Title
55513
    1DOPE     N    1   4.420   4.198  17.019  0.6975  0.0030  0.4587
    1DOPE   HN1    2   4.402   4.189  17.121 -1.6299 -0.0497  0.1016
    1DOPE   HN2    3   4.470   4.109  17.003 -0.6273 -0.8185  0.7092
    1DOPE   HN3    4   4.480   4.280  16.999  1.0180 -0.5606 -0.9760
    1DOPE   C12    5   4.291   4.190  16.934  0.0044  0.4813  0.0962
    1DOPE  H12A    6   4.330   4.226  16.836  1.9631 -2.3083 -0.2629
    1DOPE  H12B    7   4.221   4.264  16.976  1.0480  2.3716 -1.3083
    1DOPE   C11    8   4.235   4.047  16.920 -0.2035  0.1865  0.4399
    1DOPE  H11A    9   4.316   3.980  16.884 -0.1516  1.0396 -1.1212
    1DOPE  H11B   10   4.162   4.041  16.836 -1.0736  2.1448  1.0007
    1DOPE     P   11   4.128   3.845  17.058  0.2879 -0.7658  0.3585
    1DOPE   O13   12   4.028   3.833  17.168  0.1859 -0.2691 -0.1789
    1DOPE   O14   13   4.260   3.778  17.078 -0.2205 -0.3789  0.0870
    1DOPE   O11   14   4.061   3.793  16.923 -1.1900  0.2237  0.4668
    1DOPE   O12   15   4.160   4.001  17.036 -0.4441 -0.1188  0.4704
    1DOPE    C1   16   4.104   3.669  16.867 -0.2917  0.2407 -0.1094
    1DOPE    HA   17   4.069   3.587  16.933  1.0733 -0.7626 -0.5884
    1DOPE    HB   18   4.214   3.670  16.850 -0.3247 -0.1522 -0.3646
    1DOPE    C2   19   4.043   3.638  16.729 -0.1086 -0.2009 -0.1275
    1DOPE    HS   20   4.105   3.559  16.682 -0.0116 -0.0554 -0.2413
    1DOPE   O21   21   4.060   3.765  16.659 -0.1226  0.1398  0.3468
    1DOPE   C21   22   4.187   3.807  16.616  0.1054 -0.1688 -0.5520
    1DOPE   O22   23   4.287   3.736  16.623  0.4438  0.4377  0.6886
    1DOPE   C22   24   4.178   3.952  16.561  0.2362  0.1207  0.0774
    1DOPE   H2R   25   4.271   4.005  16.590  0.4322 -0.0475 -0.2411
    1DOPE   H2S   26   4.091   3.992  16.618 -1.5204 -1.7720 -1.1259
    1DOPE    C3   27   3.896   3.581  16.738  0.3073 -0.2381  0.3205
    1DOPE    HX   28   3.850   3.653  16.808 -0.8617 -2.5415  2.0773
    1DOPE    HY   29   3.892   3.479  16.782 -1.7103  0.2039  1.2630
    1DOPE   O31   30   3.834   3.588  16.602  0.2924  0.1978 -0.3092
    1DOPE   C31   31   3.873   3.495  16.518 -0.5192  0.8171  0.1303
    1DOPE   O32   32   3.931   3.392  16.555  0.0503  0.2464 -0.0460
    1DOPE   C32   33   3.838   3.536  16.379 -0.0962  0.1063 -0.0708
    1DOPE   H2X   34   3.830   3.440  16.323  0.0220  0.7340 -1.1768
    1DOPE   H2Y   35   3.737   3.581  16.386 -0.2878 -0.4243  0.8127
    1DOPE   C23   36   4.174   3.953  16.407 -0.8670  0.1133  0.0536
    1DOPE   H3R   37   4.074   3.914  16.377 -0.5542 -0.5771 -0.0992
    1DOPE   H3S   38   4.253   3.883  16.373 -2.1861 -1.1255 -0.5727
    1DOPE   C24   39   4.211   4.093  16.348  0.6156 -0.9139  0.3835
    1DOPE   H4R   40   4.320   4.113  16.359  0.1867  0.9206  1.8080
    1DOPE   H4S   41   4.158   4.168  16.411  0.2227 -0.1635 -0.7991
    1DOPE   C25   42   4.159   4.115  16.202  0.3777  0.0177 -0.0075
    1DOPE   H5R   43   4.055   4.078  16.190  0.3283  0.2290 -0.2395
    1DOPE   H5S   44   4.221   4.038  16.151 -1.5300 -1.5629 -0.0388
    1DOPE   C26   45   4.193   4.250  16.134  0.5761  0.1464 -0.0215
    1DOPE   H6R   46   4.301   4.267  16.154  0.5130 -0.8408  1.3374
    1DOPE   H6S   47   4.139   4.335  16.180  0.3174  0.0818 -0.2068
    1DOPE   C27   48   4.180   4.237  15.984 -0.1347  0.1541 -0.1128
    1DOPE   H7R   49   4.084   4.186  15.962  0.2379  0.7940 -3.8961
    1DOPE   H7S   50   4.256   4.169  15.941 -1.1099 -0.2536 -1.2359
    1DOPE   C28   51   4.188   4.378  15.923 -0.3046  0.4267  1.0685
    1DOPE   H8R   52   4.196   4.364  15.813 -2.6001 -0.6007  0.9734
    1DOPE   H8S   53   4.288   4.418  15.949  0.6306  0.2917 -1.8947
    1DOPE   C29   54   4.079   4.477  15.953 -0.1887  0.7738  0.1744
    1DOPE   H9R   55   4.093   4.527  16.050  2.2265 -1.2506  0.9865
    1DOPE  C210   56   3.983   4.521  15.866  0.1215  0.5811  0.0287
    1DOPE  H10R   57   3.908   4.592  15.904 -1.4899 -0.7620 -0.5295
    1DOPE  C211   58   3.962   4.485  15.717 -0.1864  0.5215  0.1936
    1DOPE  H11R   59   3.863   4.447  15.686 -0.0465  0.0658  0.2840
    1DOPE  H11S   60   4.034   4.406  15.685 -2.0195 -2.3682  2.6091
    1DOPE  C212   61   3.977   4.611  15.632  0.5071  0.0423  0.5829
    1DOPE  H12R   62   4.069   4.667  15.657 -0.0346  2.4107 -2.1499
    1DOPE  H12S   63   3.893   4.684  15.636  0.2302 -0.2736  0.6180
    1DOPE  C213   64   3.987   4.588  15.478  0.0586 -0.5588 -0.2771
    1DOPE  H13R   65   4.085   4.536  15.467  1.6421  1.7302  1.9138
    1DOPE  H13S   66   3.990   4.683  15.421  2.6265 -0.8819 -0.8235
    1DOPE  C214   67   3.891   4.489  15.419  0.5014 -0.4657  0.2446
    1DOPE  H14R   68   3.790   4.507  15.462  1.4573  0.3555  2.2779
    1DOPE  H14S   69   3.915   4.385  15.449  0.4148 -1.0266 -1.5618
    1DOPE  C215   70   3.874   4.504  15.268 -0.0248 -0.0341  0.3091
    1DOPE  H15R   71   3.965   4.469  15.215  0.8515 -0.0998  1.8315
    1DOPE  H15S   72   3.854   4.612  15.250 -1.2388 -0.5569 -2.0129
    1DOPE  C216   73   3.751   4.429  15.209  0.3611 -0.0791 -0.1364
    1DOPE  H16R   74   3.761   4.324  15.243 -0.3293 -0.0679  0.1337
    1DOPE  H16S   75   3.755   4.438  15.098 -0.0465  1.4185 -0.0510
    1DOPE  C217   76   3.606   4.474  15.257 -0.4170  0.1468  0.3495
    1DOPE  H17R   77   3.595   4.584  15.247 -0.1662  0.0607 -1.1429
    1DOPE  H17S   78   3.612   4.448  15.365  1.6118 -0.6898  0.0886
    1DOPE  C218   79   3.489   4.411  15.179 -0.1018 -0.1699  0.2658
    1DOPE  H18R   80   3.428   4.339  15.238  0.8366  0.0719  1.5686
    1DOPE  H18S   81   3.528   4.367  15.084  1.1710  0.1206  0.6272
    1DOPE  H18T   82   3.416   4.487  15.145 -2.9017 -2.1282  1.5047
    1DOPE   C33   83   3.944   3.637  16.332 -0.1872  0.4453  0.1514
    1DOPE   H3X   84   4.046   3.601  16.358 -0.2588 -0.5923 -0.9500
    1DOPE   H3Y   85   3.923   3.734  16.381 -0.9979  0.6245 -0.5447
    1DOPE   C34   86   3.943   3.647  16.181  0.2257 -0.1204  0.4172
    1DOPE   H4X   87   3.997   3.561  16.137  2.1644  1.2563  0.0151
    1DOPE   H4Y   88   3.836   3.645  16.151  0.0592 -1.5284  1.0004
    1DOPE   C35   89   4.011   3.770  16.130 -0.2740  0.4007  0.3599
    1DOPE   H5X   90   4.111   3.783  16.177 -0.3356 -1.5089  1.1152
    1DOPE   H5Y   91   3.955   3.865  16.149 -1.6117 -0.6261  1.8298
    1DOPE   C36   92   4.036   3.751  15.978 -0.1640  0.0997 -0.0412
    1DOPE   H6X   93   3.939   3.720  15.933 -0.2649  0.5175 -0.1170
    1DOPE   H6Y   94   4.097   3.663  15.949 -2.3057 -1.9869  1.4055
    1DOPE   C37   95   4.086   3.878  15.915 -0.1426 -0.1806  0.0207
    1DOPE   H7X   96   4.018   3.956  15.956  2.1122  1.8344  0.1427
    1DOPE   H7Y   97   4.191   3.903  15.941  0.4359 -1.6694 -0.7595
    1DOPE   C38   98   4.061   3.884  15.761  0.0171  0.5899 -0.6472
    1DOPE   H8X   99   4.042   3.989  15.731 -0.6010  0.9155  0.8117
    1DOPE   H8Y  100   3.965   3.838  15.732  0.3859 -0.5731 -0.0981
    1DOPE   C39  101   4.172   3.813  15.686 -0.0893  0.3298  0.1226
    1DOPE   H9X  102   4.163   3.704  15.698  1.9365 -0.0582 -1.2823
    1DOPE  C310  103   4.282   3.874  15.639 -0.4698  0.5961 -0.5074
    1DOPE  H10X  104   4.349   3.814  15.575 -0.4898  1.1272 -1.0352
    1DOPE  C311  105   4.307   4.016  15.652 -0.3521 -0.4601 -0.2294
    1DOPE  H11X  106   4.248   4.070  15.574  0.0727 -2.0060 -1.6672
    1DOPE  H11Y  107   4.270   4.059  15.748 -0.4216 -3.7858  1.3618
    1DOPE  C312  108   4.453   4.054  15.646  0.0539 -0.1607 -0.6063
    1DOPE  H12X  109   4.500   4.017  15.552 -0.1628 -0.9366 -0.4128
    1DOPE  H12Y  110   4.518   4.015  15.728 -0.5288 -1.6393 -0.8251
    1DOPE  C313  111   4.475   4.205  15.652 -0.5710  0.5081 -0.6249
    1DOPE  H13X  112   4.417   4.249  15.568 -4.1264  0.2084  1.4696
    1DOPE  H13Y  113   4.425   4.250  15.741  0.3268  0.5703 -0.1401
    1DOPE  C314  114   4.623   4.250  15.658 -0.1432  0.3402  0.0885
    1DOPE  H14X  115   4.659   4.202  15.751  0.2831  0.1792 -0.1578
    1DOPE  H14Y  116   4.615   4.361  15.666  0.1815  0.3739 -0.0260
    1DOPE  C315  117   4.713   4.198  15.545  0.6400  0.5538 -0.6164
    1DOPE  H15X  118   4.725   4.088  15.558  0.1206  0.4443 -1.0254
    1DOPE  H15Y  119   4.815   4.242  15.551  0.5163  0.9435 -1.2421
    1DOPE  C316  120   4.661   4.223  15.405 -0.6470 -0.0353 -0.2493
    1DOPE  H16X  121   4.655   4.333  15.392  0.2464  0.3377  1.9493
    1DOPE  H16Y  122   4.557   4.186  15.395 -0.8650  0.5066 -0.0471
    1DOPE  C317  123   4.750   4.163  15.295  0.0693  0.6085 -0.9414
    1DOPE  H17X  124   4.703   4.180  15.195 -1.6549  2.8356  0.1611
    1DOPE  H17Y  125   4.846   4.219  15.299 -0.8897  2.2788 -0.4097
    1DOPE  C318  126   4.787   4.015  15.299  0.3019  0.3236  0.0509
    1DOPE  H18X  127   4.878   3.997  15.236 -0.1074 -1.2041 -0.1439
    1DOPE  H18Y  128   4.813   3.979  15.400  0.3184  0.6390  0.1600
    1DOPE  H18Z  129   4.701   3.953  15.267  0.1602  0.9255 -0.8001
    2DOPE     N  130   5.705   3.900  17.238 -0.4387 -0.4295 -0.2725
    2DOPE   HN1  131   5.763   3.814  17.231  0.8161  0.4355 -0.7524
    2DOPE   HN2  132   5.742   3.960  17.314 -1.5919 -2.7481  2.3271
    2DOPE   HN3  133   5.617   3.867  17.283  0.2371  0.3524  1.7233
    2DOPE   C12  134   5.689   3.985  17.109  0.4559  0.4766 -0.3906
    2DOPE  H12A  135   5.779   4.049  17.103  0.1616  0.9956  0.6150
    2DOPE  H12B  136   5.610   4.062  17.117  1.3262  1.5434 -1.5912
    2DOPE   C11  137   5.654   3.900  16.984  0.2769  0.9205 -0.1306
    2DOPE  H11A  138   5.726   3.816  16.986 -1.9409 -1.0855  1.5143
    2DOPE  H11B  139   5.663   3.951  16.886  1.2536 -0.8705 -1.0145
    2DOPE     P  140   5.451   3.764  16.905 -0.0744 -0.0377  0.2512
    2DOPE   O13  141   5.305   3.766  16.919 -0.2707 -0.1644 -0.1810
    2DOPE   O14  142   5.510   3.627  16.914 -0.0035 -0.1145  0.3303
    2DOPE   O11  143   5.505   3.831  16.770 -0.0287  0.0514  0.3880
    2DOPE   O12  144   5.521   3.851  17.009  0.7510 -0.3659 -0.1961
    2DOPE    C1  145   5.442   3.945  16.713 -0.1147  0.0069  0.4658
    2DOPE    HA  146   5.520   4.023  16.703 -1.9686  1.7952 -0.6439
    2DOPE    HB  147   5.361   3.983  16.779 -0.6951 -0.3850 -0.0115
    2DOPE    C2  148   5.373   3.906  16.579  1.3241  0.0077  0.4404
    2DOPE    HS  149   5.378   3.985  16.501  0.4448  0.0844  0.4506
    2DOPE   O21  150   5.239   3.875  16.603  0.7777 -0.5268 -0.1227
    2DOPE   C21  151   5.158   3.976  16.613  0.1448 -0.1789 -0.2948
    2DOPE   O22  152   5.190   4.091  16.642 -0.0267  0.1797  0.3161
    2DOPE   C22  153   5.018   3.921  16.590  0.2921 -0.2372 -0.4606
    2DOPE   H2R  154   4.998   3.842  16.664  0.0999  1.3437  1.2570
    2DOPE   H2S  155   5.012   3.889  16.484  0.8411  3.1801 -1.6746
    2DOPE    C3  156   5.429   3.780  16.518 -0.2260 -0.3539 -0.2972
    2DOPE    HX  157   5.416   3.701  16.596  1.3434 -1.7458 -1.3661
    2DOPE    HY  158   5.539   3.792  16.509  0.2193 -2.1032  1.9185
    2DOPE   O31  159   5.375   3.741  16.391 -0.1218 -0.6139 -0.8489
    2DOPE   C31  160   5.326   3.621  16.369 -0.0186  0.0198  0.0940
    2DOPE   O32  161   5.311   3.532  16.449  0.7060 -0.4659  0.2475
    2DOPE   C32  162   5.269   3.620  16.229 -0.1250  0.4155  0.2367
    2DOPE   H2X  163   5.181   3.688  16.229  0.3057  1.1401 -3.0784
    2DOPE   H2Y  164   5.334   3.663  16.149 -0.2327 -1.2802 -0.8023
    2DOPE   C23  165   4.908   4.027  16.618  0.0464  0.0315  0.2388
    2DOPE   H3R  166   4.890   4.094  16.531  1.8718 -3.1115 -2.7760
    2DOPE   H3S  167   4.945   4.090  16.703 -1.2804 -0.0673  0.9313
    2DOPE   C24  168   4.771   3.972  16.657  0.1179  0.3869  0.0330
    2DOPE   H4R  169   4.784   3.900  16.741  0.6467  1.2133  0.6697
    2DOPE   H4S  170   4.740   3.911  16.570  0.7877  0.7992 -0.4982
    2DOPE   C25  171   4.655   4.080  16.691  0.2408  0.2498 -0.8675
    2DOPE   H5R  172   4.700   4.156  16.759 -1.7123  0.6938  0.0031
    2DOPE   H5S  173   4.577   4.033  16.756  0.7725  1.0422  0.3972
    2DOPE   C26  174   4.589   4.142  16.567 -0.4439 -0.2538  0.1884
    2DOPE   H6R  175   4.523   4.067  16.519 -0.5903 -0.4347  0.6724
    2DOPE   H6S  176   4.677   4.168  16.504  1.3332  0.0347  2.6721
    2DOPE   C27  177   4.496   4.263  16.596 -0.5043 -0.2685 -0.1544
    2DOPE   H7R  178   4.551   4.330  16.666  0.5135  1.7358 -2.7169
    2DOPE   H7S  179   4.398   4.232  16.639 -0.2064  1.6351  2.0850
    2DOPE   C28  180   4.481   4.359  16.475  0.6791  0.1659  0.7526
    2DOPE   H8R  181   4.394   4.424  16.500  1.0466  0.9730  0.0123
    2DOPE   H8S  182   4.460   4.299  16.384  0.7867  2.2853 -0.7494
    2DOPE   C29  183   4.592   4.451  16.435  0.1207  0.2172 -0.0414
    2DOPE   H9R  184   4.628   4.503  16.524  0.8941 -1.0240  0.3977
    2DOPE  C210  185   4.652   4.466  16.317 -0.2398  0.1522 -0.2897
    2DOPE  H10R  186   4.732   4.541  16.313 -0.8559  0.7850 -2.0878
    2DOPE  C211  187   4.628   4.394  16.185 -0.3081 -0.4905  0.0631
    2DOPE  H11R  188   4.694   4.444  16.111 -0.5065  0.3085  0.4121
    2DOPE  H11S  189   4.521   4.402  16.158  0.0348  2.7030 -0.8160
    2DOPE  C212  190   4.657   4.245  16.187 -0.7853  0.7879 -0.4474
    2DOPE  H12R  191   4.603   4.203  16.276 -2.6809 -2.8502 -3.0381
    2DOPE  H12S  192   4.766   4.231  16.204 -1.3020  0.7538  4.1178
    2DOPE  C213  193   4.604   4.179  16.060 -0.3813 -0.1261  0.5121
    2DOPE  H13R  194   4.618   4.251  15.977 -1.6044  1.0919  1.3069
    2DOPE  H13S  195   4.495   4.160  16.070 -0.1669 -1.0915  1.1265
    2DOPE  C214  196   4.676   4.047  16.033 -0.8939  0.3187  0.1318
    2DOPE  H14R  197   4.777   4.088  16.010 -0.0024 -1.7497  0.1398
    2DOPE  H14S  198   4.635   3.999  15.942 -0.4316 -0.7328  0.4571
    2DOPE  C215  199   4.668   3.942  16.148  0.0409 -0.1763  0.3385
    2DOPE  H15R  200   4.589   3.872  16.114 -1.3280  1.6836 -0.4983
    2DOPE  H15S  201   4.640   3.988  16.245  0.3115  1.7363 -0.4321
    2DOPE  C216  202   4.798   3.854  16.172  0.7757 -0.0477 -0.3400
    2DOPE  H16R  203   4.889   3.915  16.193  1.0133 -0.7067  0.5971
    2DOPE  H16S  204   4.821   3.788  16.086  0.8743  0.6151 -0.8302
    2DOPE  C217  205   4.780   3.764  16.296  0.1227 -0.1698 -0.4311
    2DOPE  H17R  206   4.672   3.739  16.281  0.3106 -0.4534 -1.4549
    2DOPE  H17S  207   4.792   3.820  16.390  1.4528 -0.4756 -0.4060
    2DOPE  C218  208   4.869   3.646  16.303 -0.5288  0.5703 -0.1528
    2DOPE  H18R  209   4.835   3.573  16.379  0.0242  1.4549  0.9820
    2DOPE  H18S  210   4.973   3.681  16.317  0.0969  0.2236 -3.2549
    2DOPE  H18T  211   4.866   3.600  16.202 -2.5608 -0.6019  0.3864
    2DOPE   C33  212   5.245   3.480  16.176  0.0310  0.4601  0.3256
    2DOPE   H3X  213   5.158   3.441  16.234  0.0390 -3.0183 -1.7231
    2DOPE   H3Y  214   5.320   3.403  16.205 -1.4156 -1.8575 -1.7348
    2DOPE   C34  215   5.232   3.468  16.024 -0.4497  0.5110  0.3640
    2DOPE   H4X  216   5.335   3.466  15.982  0.3282 -0.3183  2.1724
    2DOPE   H4Y  217   5.186   3.371  15.995  3.1666 -1.9037  1.9176
    2DOPE   C35  218   5.146   3.583  15.965 -0.2051 -0.1952  0.3563
    2DOPE   H5X  219   5.212   3.672  15.974 -2.0462  1.3647 -0.8289
    2DOPE   H5Y  220   5.061   3.591  16.036  0.7728  0.3071  1.5005
    2DOPE   C36  221   5.103   3.569  15.812 -0.3759  0.1265  0.2558
    2DOPE   H6X  222   5.007   3.513  15.801  0.0367 -0.5328 -0.0491
    2DOPE   H6Y  223   5.181   3.513  15.757 -0.4566  0.1658  0.1016
    2DOPE   C37  224   5.072   3.703  15.744  0.9620  0.2009 -0.2918
    2DOPE   H7X  225   5.162   3.768  15.745  0.0262  1.5974 -1.7462
    2DOPE   H7Y  226   5.061   3.677  15.636 -0.8407  0.8173 -0.2871
    2DOPE   C38  227   4.950   3.783  15.797 -0.1496 -0.2897  0.3221
    2DOPE   H8X  228   4.981   3.815  15.898  0.4060 -1.7232  0.6246
    2DOPE   H8Y  229   4.865   3.713  15.807  0.8310 -1.4630  0.7230
    2DOPE   C39  230   4.914   3.890  15.698 -0.9574 -0.1287  0.1466
    2DOPE   H9X  231   4.823   3.870  15.639 -0.0916 -0.4113 -1.1279
    2DOPE  C310  232   4.974   4.006  15.678 -0.3826 -0.4090  0.1286
    2DOPE  H10X  233   4.927   4.081  15.613 -0.3486  1.3320  1.9935
    2DOPE  C311  234   5.103   4.060  15.743  0.5321 -0.0161 -0.1614
    2DOPE  H11X  235   5.081   4.121  15.833 -1.3907 -0.3442 -0.3716
    2DOPE  H11Y  236   5.173   3.983  15.784  0.7790 -1.2414 -2.6846
    2DOPE  C312  237   5.184   4.165  15.666 -0.3679 -0.3708  0.7034
    2DOPE  H12X  238   5.255   4.215  15.736  1.2686 -1.7012  0.0594
    2DOPE  H12Y  239   5.108   4.241  15.636 -0.1109 -0.8551 -1.2949
    2DOPE  C313  240   5.259   4.117  15.539 -0.1454  0.0216  0.5300
    2DOPE  H13X  241   5.342   4.189  15.519  0.4276 -1.0904 -1.3902
    2DOPE  H13Y  242   5.308   4.018  15.545 -1.7814 -0.7779  1.0759
    2DOPE  C314  243   5.180   4.111  15.413  0.6298  0.0920 -0.6480
    2DOPE  H14X  244   5.113   4.200  15.412  0.1315 -0.2573  0.2941
    2DOPE  H14Y  245   5.131   4.012  15.417  0.8743 -0.0013  0.2387
    2DOPE  C315  246   5.269   4.096  15.290 -0.2239  0.3135 -0.7048
    2DOPE  H15X  247   5.334   4.007  15.306  0.2170  0.7565  0.0217
    2DOPE  H15Y  248   5.336   4.185  15.284 -0.0671  0.4116  1.6618
    2DOPE  C316  249   5.193   4.086  15.160 -0.0338  0.6829 -1.0061
    2DOPE  H16X  250   5.148   4.185  15.140 -2.0298  0.7717  2.8229
    2DOPE  H16Y  251   5.120   4.003  15.159  0.4027  0.2946 -1.8449
    2DOPE  C317  252   5.276   4.049  15.041 -0.2994 -0.2926 -0.3280
    2DOPE  H17X  253   5.332   3.956  15.065  0.0010  0.3588  1.7133
    2DOPE  H17Y  254   5.205   4.018  14.962 -0.5423 -1.0089  0.1538
    2DOPE  C318  255   5.369   4.151  14.983 -0.2915 -0.4243  0.1214
    2DOPE  H18X  256   5.433   4.194  15.064 -0.3692  0.0030 -0.0431
    2DOPE  H18Y  257   5.435   4.102  14.909 -0.1258 -3.6941  2.2192
    2DOPE  H18Z  258   5.313   4.237  14.942  1.3344  1.4881  1.6789
    3DOPE     N  259   4.313   5.577  16.779 -0.4951  0.4143 -0.4724
    3DOPE   HN1  260   4.265   5.613  16.864  1.7787 -1.2643  1.6481
    3DOPE   HN2  261   4.402   5.626  16.758 -0.4274  0.2797 -0.4970
    3DOPE   HN3  262   4.249   5.593  16.698  0.8080  1.2642 -1.3893
    3DOPE   C12  263   4.359   5.428  16.799  0.3653 -0.2516 -0.8799
    3DOPE  H12A  264   4.422   5.418  16.890 -1.5953  2.1424  0.8479
    3DOPE  H12B  265   4.417   5.402  16.708 -0.9446 -0.3310 -1.7214
    3DOPE   C11  266   4.232   5.344  16.804  0.0730  0.7070  0.5441
    3DOPE  H11A  267   4.278   5.245  16.823  1.2471  1.0197 -0.5200
    3DOPE  H11B  268   4.184   5.342  16.704  0.4001  1.4770  0.3653
    3DOPE     P  269   4.069   5.278  17.009  0.0751  0.2078 -0.2152
    3DOPE   O13  270   3.971   5.345  17.097 -0.0493  0.1664 -0.0546
    3DOPE   O14  271   4.185   5.208  17.071  0.2286  0.2198 -0.4971
    3DOPE   O11  272   3.996   5.182  16.916  0.1786 -1.1142  0.0340
    3DOPE   O12  273   4.133   5.383  16.903 -0.2707 -0.2344  0.5844
    3DOPE    C1  274   3.908   5.226  16.814  0.6042  0.1747 -0.0766
    3DOPE    HA  275   3.922   5.163  16.723  1.6191  0.7784 -0.3508
    3DOPE    HB  276   3.927   5.331  16.783  1.2307 -0.1703 -0.9175
    3DOPE    C2  277   3.767   5.208  16.870  0.4890  0.1268  0.6540
    3DOPE    HS  278   3.764   5.244  16.975  0.4082  1.1923  0.2951
    3DOPE   O21  279   3.731   5.066  16.855  0.1808  0.2715  0.4111
    3DOPE   C21  280   3.622   5.037  16.922  1.0591  0.0188  0.1312
    3DOPE   O22  281   3.544   5.117  16.974  0.2132 -0.3327 -0.1214
    3DOPE   C22  282   3.616   4.887  16.951  0.1258 -0.3389 -0.0413
    3DOPE   H2R  283   3.542   4.865  17.031 -0.8370 -0.9651 -1.0621
    3DOPE   H2S  284   3.709   4.865  17.007 -0.6453 -1.5765  0.8314
    3DOPE    C3  285   3.676   5.293  16.776 -0.3270  0.0793 -0.5916
    3DOPE    HX  286   3.709   5.399  16.778 -2.2167  0.6833  0.0049
    3DOPE    HY  287   3.572   5.297  16.815  0.1994 -0.7370  1.0114
    3DOPE   O31  288   3.677   5.244  16.635 -0.2114  0.0282 -0.2599
    3DOPE   C31  289   3.570   5.179  16.590 -0.4174 -0.0233  0.3889
    3DOPE   O32  290   3.468   5.162  16.651  0.2166  0.1320 -0.2728
    3DOPE   C32  291   3.597   5.116  16.454  0.2497 -0.6556  0.0917
    3DOPE   H2X  292   3.524   5.032  16.445  0.1038 -0.8191  2.3034
    3DOPE   H2Y  293   3.580   5.194  16.377  0.0358 -0.2960  0.4989
    3DOPE   C23  294   3.596   4.799  16.832  0.3639 -0.7906  0.0340
    3DOPE   H3R  295   3.606   4.690  16.853  1.2496 -1.1802 -2.0700
    3DOPE   H3S  296   3.674   4.820  16.755  0.1051 -0.5544 -0.1648
    3DOPE   C24  297   3.461   4.823  16.765 -0.4005  0.1238  0.1646
    3DOPE   H4R  298   3.441   4.932  16.770 -2.1476 -0.1687  0.1735
    3DOPE   H4S  299   3.386   4.767  16.825 -0.9916  0.9487  0.2162
    3DOPE   C25  300   3.468   4.776  16.618  0.0773 -0.3811  0.2731
    3DOPE   H5R  301   3.486   4.667  16.618 -1.0012 -0.5923 -0.9199
    3DOPE   H5S  302   3.556   4.823  16.569 -0.3728  0.8691  0.6278
    3DOPE   C26  303   3.340   4.787  16.535  0.1794  0.8207  0.1128
    3DOPE   H6R  304   3.303   4.891  16.548 -1.0803  0.4205 -0.0970
    3DOPE   H6S  305   3.257   4.732  16.585  1.7242 -0.8773  0.9002
    3DOPE   C27  306   3.348   4.757  16.389 -0.0467 -0.1851  0.0078
    3DOPE   H7R  307   3.402   4.842  16.343  2.1053 -2.1552 -1.3710
    3DOPE   H7S  308   3.246   4.757  16.346  0.1021  0.2596 -0.3487
    3DOPE   C28  309   3.420   4.626  16.333  0.3134  0.1911  0.0006
    3DOPE   H8R  310   3.393   4.534  16.390  1.5616 -0.5300 -0.5136
    3DOPE   H8S  311   3.527   4.639  16.361  0.0798 -0.9748  1.6151
    3DOPE   C29  312   3.409   4.590  16.188  0.4468  0.0516 -0.3916
    3DOPE   H9R  313   3.339   4.507  16.169  1.5313 -0.6713 -1.3446
    3DOPE  C210  314   3.465   4.647  16.079  0.1641  0.3182 -0.0425
    3DOPE  H10R  315   3.448   4.605  15.979 -2.2697 -1.4648  1.0345
    3DOPE  C211  316   3.561   4.762  16.090  0.0194 -1.0021  0.0328
    3DOPE  H11R  317   3.587   4.760  16.198 -0.7427 -1.0986  0.2216
    3DOPE  H11S  318   3.520   4.863  16.069 -0.4399 -1.2073 -0.0590
    3DOPE  C212  319   3.696   4.744  16.019 -0.4730  0.4159  0.2279
    3DOPE  H12R  320   3.694   4.737  15.908  1.5501 -1.7069  0.2314
    3DOPE  H12S  321   3.748   4.654  16.060 -0.8782 -1.1935 -2.5830
    3DOPE  C213  322   3.785   4.876  16.039 -0.0844 -0.6429  0.2099
    3DOPE  H13R  323   3.795   4.902  16.146  2.1088  0.2440 -0.1800
    3DOPE  H13S  324   3.729   4.960  15.994  0.2613 -0.5024  0.0417
    3DOPE  C214  325   3.914   4.850  15.955 -0.2398 -0.6973 -0.7991
    3DOPE  H14R  326   3.887   4.809  15.856 -0.6925 -2.6742  0.0977
    3DOPE  H14S  327   3.983   4.775  15.999  0.3895 -0.3102 -1.1025
    3DOPE  C215  328   3.986   4.983  15.932 -0.0162  0.4450  0.9294
    3DOPE  H15R  329   3.912   5.053  15.887  0.0273 -1.1051 -1.7636
    3DOPE  H15S  330   4.063   4.962  15.856 -1.3499 -1.1389 -0.0327
    3DOPE  C216  331   4.051   5.054  16.054  0.0413 -0.0478  0.4350
    3DOPE  H16R  332   4.117   4.984  16.110  0.1884  0.8040  1.3618
    3DOPE  H16S  333   3.981   5.109  16.121  0.6278  0.2026  0.8533
    3DOPE  C217  334   4.136   5.156  15.991 -0.4019  0.7789 -0.5244
    3DOPE  H17R  335   4.086   5.209  15.908  0.6955 -1.3689 -2.6782
    3DOPE  H17S  336   4.224   5.101  15.950  0.2866 -0.5367  2.4218
    3DOPE  C218  337   4.191   5.254  16.088 -0.1481  0.1044 -0.3351
    3DOPE  H18R  338   4.114   5.322  16.130  0.7314  1.5259 -0.9397
    3DOPE  H18S  339   4.269   5.315  16.037  1.6290 -2.1705 -0.5350
    3DOPE  H18T  340   4.229   5.209  16.183  0.7102  0.6371 -0.4113
    3DOPE   C33  341   3.739   5.065  16.447  0.0013  0.5004  0.1720
    3DOPE   H3X  342   3.803   5.151  16.475 -0.7202  0.8875  0.6623
    3DOPE   H3Y  343   3.756   5.040  16.340 -0.8114  2.4853 -0.4784
    3DOPE   C34  344   3.778   4.930  16.509  0.0644 -0.3191 -0.3062
    3DOPE   H4X  345   3.734   4.937  16.611 -2.2328  2.4902 -1.3748
    3DOPE   H4Y  346   3.739   4.842  16.453 -1.5878  1.3213 -1.8582
    3DOPE   C35  347   3.924   4.904  16.518  0.2210  0.6005 -0.1649
    3DOPE   H5X  348   3.952   4.866  16.618  0.5004  0.6792 -0.2139
    3DOPE   H5Y  349   3.977   5.001  16.525 -2.0826  1.8549  1.1462
    3DOPE   C36  350   3.984   4.812  16.407  0.6701 -0.4684 -0.0976
    3DOPE   H6X  351   3.937   4.829  16.308  2.2825  0.0300 -0.8188
    3DOPE   H6Y  352   3.950   4.710  16.433  0.1156  0.0406  1.2272
    3DOPE   C37  353   4.137   4.814  16.397  0.0088 -0.4018  0.3874
    3DOPE   H7X  354   4.179   4.915  16.378  1.7249 -1.4587 -1.8237
    3DOPE   H7Y  355   4.173   4.775  16.494  2.9012 -1.9439 -1.1873
    3DOPE   C38  356   4.187   4.721  16.286 -0.3037  0.4128  0.4630
    3DOPE   H8X  357   4.139   4.748  16.189  0.4064 -1.6626 -0.5207
    3DOPE   H8Y  358   4.143   4.621  16.305  1.3611 -0.2795  0.8506
    3DOPE   C39  359   4.338   4.722  16.297 -0.4031 -0.1216 -0.7872
    3DOPE   H9X  360   4.374   4.705  16.400 -1.6981  0.7975 -0.1559
    3DOPE  C310  361   4.420   4.740  16.194  0.1817 -0.7677  0.4227
    3DOPE  H10X  362   4.529   4.732  16.205 -0.1422 -3.2851  3.0189
    3DOPE  C311  363   4.372   4.765  16.053 -0.8360  0.3284  0.0798
    3DOPE  H11X  364   4.268   4.734  16.032 -1.1601  1.0295  0.5954
    3DOPE  H11Y  365   4.389   4.873  16.035 -0.8770  0.7254  2.1288
    3DOPE  C312  366   4.450   4.686  15.949  0.1460 -0.5639  1.0043
    3DOPE  H12X  367   4.438   4.576  15.962 -1.7997 -0.4276  0.5818
    3DOPE  H12Y  368   4.558   4.707  15.963  0.2275 -0.3787  0.1286
    3DOPE  C313  369   4.404   4.716  15.805  0.2068 -0.3593 -0.4887
    3DOPE  H13X  370   4.294   4.719  15.797  0.3274  0.1784 -2.3992
    3DOPE  H13Y  371   4.438   4.818  15.777 -2.0599  0.0585 -1.9947
    3DOPE  C314  372   4.446   4.600  15.710 -1.1645 -0.0165 -0.7512
    3DOPE  H14X  373   4.392   4.512  15.751 -1.9325  0.9544  0.3913
    3DOPE  H14Y  374   4.557   4.598  15.702 -1.1896  1.4003 -1.7799
    3DOPE  C315  375   4.401   4.611  15.566  0.0152 -0.0845 -0.6347
    3DOPE  H15X  376   4.291   4.625  15.559 -0.0119  1.1246  1.4735
    3DOPE  H15Y  377   4.425   4.524  15.502 -0.6591  0.2833 -1.4048
    3DOPE  C316  378   4.469   4.734  15.504 -0.2081 -0.8591  0.0337
    3DOPE  H16X  379   4.572   4.757  15.540 -0.3754  2.2487 -1.1454
    3DOPE  H16Y  380   4.407   4.822  15.534  0.2935 -1.0262  1.6518
    3DOPE  C317  381   4.476   4.731  15.355 -0.4730  0.4601 -0.3958
    3DOPE  H17X  382   4.502   4.830  15.310  2.3449  0.2838  0.6351
    3DOPE  H17Y  383   4.565   4.676  15.318 -0.3527  0.4416 -0.0842
    3DOPE  C318  384   4.353   4.681  15.277  0.2280 -0.8965 -0.0333
    3DOPE  H18X  385   4.313   4.584  15.312 -0.3695 -0.2477  1.1652
    3DOPE  H18Y  386   4.277   4.759  15.295 -0.2025 -0.4417 -3.2745
    3DOPE  H18Z  387   4.370   4.686  15.167 -1.0665 -0.3495 -0.2279
    4DOPE     N  388   5.177   3.193  16.829 -0.8943 -0.3418 -0.0836
    4DOPE   HN1  389   5.264   3.223  16.780 -2.5320  2.0269 -1.7702
    4DOPE   HN2  390   5.111   3.270  16.808 -0.4554  0.1585  0.3573
    4DOPE   HN3  391   5.194   3.204  16.931  1.9478  1.5265 -0.6436
    4DOPE   C12  392   5.115   3.075  16.770 -0.8657 -0.2678 -0.0379
    4DOPE  H12A  393   5.187   2.993  16.794 -2.4106 -1.5829  0.2286
    4DOPE  H12B  394   5.112   3.082  16.659 -0.4781  0.7939  0.0044
    4DOPE   C11  395   4.977   3.062  16.830  0.3519 -0.2059  0.0289
    4DOPE  H11A  396   4.928   2.974  16.781 -1.8548  1.3984 -0.8117
    4DOPE  H11B  397   4.914   3.152  16.812  1.0011  0.5825  1.5630
    4DOPE     P  398   5.010   2.902  17.047  0.0245 -0.2878 -0.1262
    4DOPE   O13  399   4.987   2.920  17.191 -0.1093  0.4146  0.0696
    4DOPE   O14  400   5.137   2.839  17.006 -0.1707 -0.1079 -0.6350
    4DOPE   O11  401   4.888   2.816  16.988 -0.2819  0.0157 -0.0480
    4DOPE   O12  402   4.988   3.040  16.971  0.4454 -0.2018 -0.2564
    4DOPE    C1  403   4.871   2.681  17.021 -0.8637  0.2611 -0.1158
    4DOPE    HA  404   4.764   2.656  17.040 -0.6955 -0.6309 -0.2548
    4DOPE    HB  405   4.926   2.649  17.112 -1.3282  2.8377  1.1329
    4DOPE    C2  406   4.903   2.592  16.894  0.4194 -0.0262 -0.0573
    4DOPE    HS  407   5.010   2.613  16.875  0.3974  0.9136  0.7159
    4DOPE   O21  408   4.807   2.631  16.792 -0.3529  0.2406 -0.1802
    4DOPE   C21  409   4.860   2.685  16.685  0.6376 -0.2186  0.7492
    4DOPE   O22  410   4.981   2.685  16.658  0.1861 -0.0203 -0.0443
    4DOPE   C22  411   4.751   2.749  16.591 -0.2985 -0.4182  0.1498
    4DOPE   H2R  412   4.707   2.831  16.651  1.8224 -0.3193  1.6674
    4DOPE   H2S  413   4.672   2.673  16.573 -0.5424  0.2045 -1.7461
    4DOPE    C3  414   4.887   2.439  16.918  0.3846  0.4176  0.2503
    4DOPE    HX  415   4.799   2.429  16.984  0.6344  0.9061  0.6642
    4DOPE    HY  416   4.977   2.398  16.969  1.6251  1.7934 -0.7186
    4DOPE   O31  417   4.867   2.365  16.796 -0.0525  0.1703 -0.1793
    4DOPE   C31  418   4.753   2.319  16.754  0.2843  0.4508 -0.0442
    4DOPE   O32  419   4.649   2.315  16.821  0.7209 -0.2008  0.5684
    4DOPE   C32  420   4.769   2.258  16.613  0.0068 -0.5191  0.3904
    4DOPE   H2X  421   4.877   2.247  16.592  0.1821  0.7976  0.5203
    4DOPE   H2Y  422   4.725   2.156  16.605 -1.6165  0.1555  0.3275
    4DOPE   C23  423   4.805   2.799  16.457 -0.0099  0.1281  0.1438
    4DOPE   H3R  424   4.903   2.850  16.470  1.3384 -1.8027 -1.6581
    4DOPE   H3S  425   4.748   2.881  16.410  0.8318  0.0424 -1.0838
    4DOPE   C24  426   4.805   2.688  16.356  0.0971 -0.2595 -0.2797
    4DOPE   H4R  427   4.704   2.643  16.353 -0.1874  0.3783 -0.3058
    4DOPE   H4S  428   4.888   2.615  16.371 -0.8926 -1.6257 -1.2253
    4DOPE   C25  429   4.825   2.745  16.221  0.0284 -0.6201  0.6654
    4DOPE   H5R  430   4.749   2.823  16.201  1.4241  0.4800 -0.6502
    4DOPE   H5S  431   4.801   2.675  16.139 -2.3296 -0.3303  1.0421
    4DOPE   C26  432   4.967   2.809  16.189  0.8243 -0.2737 -1.1152
    4DOPE   H6R  433   5.004   2.845  16.287 -0.6985 -0.3330 -0.4959
    4DOPE   H6S  434   4.937   2.905  16.142 -0.6394  0.4926  1.2042
    4DOPE   C27  435   5.056   2.719  16.101  0.0967  0.1212 -0.9471
    4DOPE   H7R  436   4.988   2.641  16.061 -3.3978  1.9005  0.9713
    4DOPE   H7S  437   5.130   2.669  16.166 -0.6804 -0.0476 -0.1751
    4DOPE   C28  438   5.142   2.779  15.985 -0.2678  0.5528  0.6491
    4DOPE   H8R  439   5.192   2.694  15.935  0.7069  0.9620  0.8942
    4DOPE   H8S  440   5.215   2.847  16.035  1.8871 -1.9320  1.0539
    4DOPE   C29  441   5.052   2.856  15.888 -0.6955  0.5173 -0.2982
    4DOPE   H9R  442   5.002   2.938  15.941  1.5864  0.1011  2.8102
    4DOPE  C210  443   5.030   2.846  15.753 -0.0832 -0.2526  0.3092
    4DOPE  H10R  444   4.953   2.906  15.702  1.5549 -1.6054 -4.3161
    4DOPE  C211  445   5.102   2.744  15.666 -0.1621  0.0057 -0.0208
    4DOPE  H11R  446   5.024   2.665  15.667 -0.1853  0.0091 -0.7624
    4DOPE  H11S  447   5.195   2.700  15.706  1.2722  0.4066 -2.6844
    4DOPE  C212  448   5.134   2.776  15.516  0.0082  0.0916  0.0153
    4DOPE  H12R  449   5.219   2.847  15.520 -1.3474  1.7467  0.9322
    4DOPE  H12S  450   5.058   2.836  15.462  0.5271  0.7466 -0.0016
    4DOPE  C213  451   5.177   2.640  15.447 -0.4165  0.1956 -0.1630
    4DOPE  H13R  452   5.091   2.570  15.444  1.1828 -1.8279 -1.2889
    4DOPE  H13S  453   5.260   2.587  15.499  0.3904  0.9728 -0.6252
    4DOPE  C214  454   5.210   2.657  15.295 -0.5566 -0.3061 -0.9880
    4DOPE  H14R  455   5.317   2.685  15.285 -0.1603 -0.9071  1.1253
    4DOPE  H14S  456   5.158   2.744  15.249 -0.9360 -0.1450 -0.2716
    4DOPE  C215  457   5.165   2.530  15.223  0.1694 -0.2772 -0.7011
    4DOPE  H15R  458   5.192   2.541  15.115 -1.3597  1.2276 -0.9799
    4DOPE  H15S  459   5.056   2.512  15.237  0.2973 -0.7002 -0.2566
    4DOPE  C216  460   5.228   2.406  15.271 -0.4505  0.2222  0.2542
    4DOPE  H16R  461   5.183   2.373  15.368  0.1545  1.3257  0.9389
    4DOPE  H16S  462   5.334   2.421  15.300  0.0982 -2.4075 -0.1812
    4DOPE  C217  463   5.226   2.290  15.169  0.0522 -0.3153 -0.7101
    4DOPE  H17R  464   5.313   2.282  15.099  0.6657 -2.8078  0.2329
    4DOPE  H17S  465   5.135   2.304  15.106 -1.9107 -0.9230  1.8414
    4DOPE  C218  466   5.210   2.151  15.231  0.1446  0.1912  0.4581
    4DOPE  H18R  467   5.120   2.146  15.296  0.0209  0.4068  0.3067
    4DOPE  H18S  468   5.289   2.110  15.296  0.4291 -1.0706 -0.6366
    4DOPE  H18T  469   5.209   2.074  15.151 -0.3686 -1.0674  1.6298
    4DOPE   C33  470   4.708   2.352  16.513  0.5974  0.3743  0.2037
    4DOPE   H3X  471   4.726   2.459  16.536  0.1167  0.4272  0.3452
    4DOPE   H3Y  472   4.599   2.333  16.526  0.3470  0.9402 -0.9560
    4DOPE   C34  473   4.759   2.328  16.370  0.0793 -0.8979 -0.3882
    4DOPE   H4X  474   4.728   2.415  16.308  0.3187  0.4993  1.3728
    4DOPE   H4Y  475   4.870   2.332  16.380  0.2938 -0.7610 -2.4402
    4DOPE   C35  476   4.710   2.195  16.309  0.6075  0.1691 -0.3147
    4DOPE   H5X  477   4.602   2.203  16.287  0.1102  0.5032  1.9998
    4DOPE   H5Y  478   4.747   2.109  16.370  1.3222  1.5078  1.2180
    4DOPE   C36  479   4.766   2.168  16.165  0.3829 -0.1122  0.9809
    4DOPE   H6X  480   4.876   2.152  16.158  0.2267 -0.5545 -1.2675
    4DOPE   H6Y  481   4.746   2.256  16.101 -0.3854 -1.2632 -0.4290
    4DOPE   C37  482   4.693   2.055  16.100  1.3903 -0.4086  0.8749
    4DOPE   H7X  483   4.711   1.965  16.162 -0.0296 -0.6378  0.9771
    4DOPE   H7Y  484   4.583   2.072  16.097  1.1407 -1.8568 -2.6475
    4DOPE   C38  485   4.737   2.034  15.951 -0.0507 -0.0345 -0.4394
    4DOPE   H8X  486   4.843   2.000  15.953 -0.3271 -0.9186 -0.4258
    4DOPE   H8Y  487   4.731   2.135  15.905 -0.5291  0.4395  0.6427
    4DOPE   C39  488   4.655   1.927  15.885  0.5726 -0.1892 -0.4739
    4DOPE   H9X  489   4.703   1.830  15.866 -1.7034 -1.2276 -1.2237
    4DOPE  C310  490   4.537   1.957  15.836  0.2672  0.5878 -0.0760
    4DOPE  H10X  491   4.476   1.872  15.802 -1.5608  1.0083  1.9416
    4DOPE  C311  492   4.464   2.089  15.829  0.6524 -0.0750 -0.3981
    4DOPE  H11X  493   4.361   2.091  15.873  0.4123  2.2787 -0.9276
    4DOPE  H11Y  494   4.525   2.165  15.882 -0.1786 -0.3342  0.9893
    4DOPE  C312  495   4.462   2.132  15.681 -0.1122  0.4286 -0.0994
    4DOPE  H12X  496   4.417   2.055  15.615  0.8293 -0.9041  0.7737
    4DOPE  H12Y  497   4.569   2.143  15.654 -0.0396  1.1739  0.4553
    4DOPE  C313  498   4.377   2.259  15.665 -0.0701 -0.2073  0.0804
    4DOPE  H13X  499   4.278   2.248  15.712 -0.9536  1.7593 -1.1547
    4DOPE  H13Y  500   4.440   2.325  15.729  1.9725 -2.5779  0.6583
    4DOPE  C314  501   4.367   2.322  15.526 -0.3935 -0.0702  0.2253
    4DOPE  H14X  502   4.457   2.365  15.477  0.6240 -0.5254  1.6383
    4DOPE  H14Y  503   4.292   2.402  15.545 -0.1634 -0.3714  2.6303
    4DOPE  C315  504   4.314   2.211  15.422 -0.0359 -0.2655  0.2689
    4DOPE  H15X  505   4.239   2.162  15.487 -0.3907 -0.1505 -0.0504
    4DOPE  H15Y  506   4.403   2.149  15.397 -0.6009 -0.7386 -0.6276
    4DOPE  C316  507   4.263   2.269  15.291  0.0802  0.5656 -0.0468
    4DOPE  H16X  508   4.348   2.303  15.228  0.6826 -0.2593  0.3036
    4DOPE  H16Y  509   4.192   2.352  15.313 -0.1377  0.3569  0.0434
    4DOPE  C317  510   4.185   2.154  15.217  0.6796 -0.3738  0.0301
    4DOPE  H17X  511   4.256   2.070  15.199 -0.0365 -0.7351 -1.2238
    4DOPE  H17Y  512   4.112   2.116  15.292  1.4021  1.1137  1.5500
    4DOPE  C318  513   4.109   2.207  15.091  0.3463 -0.0081  0.2577
    4DOPE  H18X  514   4.024   2.271  15.126 -2.9781 -3.1310 -1.3962
    4DOPE  H18Y  515   4.180   2.269  15.032  3.5034 -0.5088  3.2382
    4DOPE  H18Z  516   4.062   2.121  15.039 -0.5174 -0.5706  1.9053
    5DOPE     N  517   2.481   4.610  17.009  0.6115 -0.3501  0.2985
    5DOPE   HN1  518   2.536   4.534  16.965  2.7759  1.1539  0.2630
    5DOPE   HN2  519   2.397   4.624  16.948  1.3986  1.3199 -0.4690
    5DOPE   HN3  520   2.531   4.701  17.007 -0.8318  0.4841  0.8266
    5DOPE   C12  521   2.437   4.563  17.143  1.3727 -0.3632  0.2705
    5DOPE  H12A  522   2.327   4.566  17.154  1.3612 -1.7793  0.7250
    5DOPE  H12B  523   2.484   4.629  17.219  1.9226 -1.6404  1.0736
    5DOPE   C11  524   2.485   4.427  17.175  0.2840  0.3019  0.2326
    5DOPE  H11A  525   2.436   4.395  17.270  1.9654 -1.3006  0.5987
    5DOPE  H11B  526   2.594   4.435  17.195  0.6150 -1.7037 -0.6095
    5DOPE     P  527   2.333   4.245  17.067  0.2425 -0.1336  0.4972
    5DOPE   O13  528   2.207   4.319  17.101 -0.5201  0.3935  0.6822
    5DOPE   O14  529   2.357   4.124  17.153 -0.5115  0.7724 -0.1251
    5DOPE   O11  530   2.316   4.201  16.916 -0.2234  0.1643 -0.2329
    5DOPE   O12  531   2.460   4.335  17.068 -0.3996 -0.0969 -0.0123
    5DOPE    C1  532   2.323   4.295  16.806 -0.1928 -0.0312  0.1865
    5DOPE    HA  533   2.365   4.239  16.720 -2.3752  0.1347 -1.0811
    5DOPE    HB  534   2.385   4.384  16.833 -0.6864  0.8972 -1.5511
    5DOPE    C2  535   2.183   4.346  16.759  0.5361 -0.2743  0.5021
    5DOPE    HS  536   2.138   4.408  16.840  0.7682 -1.2377  1.3981
    5DOPE   O21  537   2.100   4.230  16.729 -0.1024  0.3099 -0.0250
    5DOPE   C21  538   1.965   4.261  16.719 -0.3763 -0.3883  0.1804
    5DOPE   O22  539   1.922   4.378  16.723 -0.2378  0.6724 -0.1560
    5DOPE   C22  540   1.876   4.143  16.688 -0.0938 -1.0979 -0.3784
    5DOPE   H2R  541   1.772   4.183  16.687  1.0657  2.2750 -0.6910
    5DOPE   H2S  542   1.897   4.067  16.765  1.5224 -0.0415  0.2929
    5DOPE    C3  543   2.197   4.451  16.643 -0.4348 -0.0732  0.5453
    5DOPE    HX  544   2.271   4.532  16.662 -2.7088  2.2421  0.0376
    5DOPE    HY  545   2.102   4.509  16.638 -0.5031 -0.2971 -2.1749
    5DOPE   O31  546   2.219   4.381  16.522 -0.3029 -0.0540 -0.0406
    5DOPE   C31  547   2.344   4.355  16.480 -0.1260  0.2464 -0.1905
    5DOPE   O32  548   2.446   4.402  16.527 -0.2124  0.0924  0.1164
    5DOPE   C32  549   2.341   4.244  16.374 -1.1841 -0.3735 -0.0337
    5DOPE   H2X  550   2.375   4.153  16.428 -1.3530  0.0521  0.8030
    5DOPE   H2Y  551   2.234   4.235  16.348 -1.0437 -1.5040 -0.2459
    5DOPE   C23  552   1.914   4.088  16.550  0.4432 -0.5070  0.1332
    5DOPE   H3R  553   1.861   3.991  16.544  1.3053 -1.0116  0.5049
    5DOPE   H3S  554   2.015   4.043  16.547  1.0376  0.7000  0.9094
    5DOPE   C24  555   1.863   4.180  16.436 -0.1948  0.0121 -0.8458
    5DOPE   H4R  556   1.922   4.272  16.417  0.2219 -0.2114 -0.6366
    5DOPE   H4S  557   1.755   4.207  16.445  0.3215  2.3608 -0.9921
    5DOPE   C25  558   1.873   4.102  16.305 -0.6002 -0.0054  0.8148
    5DOPE   H5R  559   1.822   4.004  16.316 -0.1063 -0.2042  1.3828
    5DOPE   H5S  560   1.978   4.073  16.286 -0.9435 -0.9951  0.3282
    5DOPE   C26  561   1.814   4.169  16.179  0.0755  0.2370  0.0854
    5DOPE   H6R  562   1.882   4.255  16.161  0.2274  0.1602  0.2876
    5DOPE   H6S  563   1.715   4.209  16.209 -0.7167 -2.7097  1.8153
    5DOPE   C27  564   1.811   4.089  16.048 -0.3254  0.0929  0.2647
    5DOPE   H7R  565   1.788   4.158  15.963  0.8565  1.0710  0.7160
    5DOPE   H7S  566   1.728   4.017  16.062  0.3418 -0.7890 -0.2532
    5DOPE   C28  567   1.944   4.017  16.019 -0.2966  0.4373  0.2879
    5DOPE   H8R  568   1.939   3.951  15.930 -1.1443 -1.0944  1.4308
    5DOPE   H8S  569   1.958   3.941  16.098  1.6150  0.7054  0.2513
    5DOPE   C29  570   2.073   4.090  16.001  0.2765 -0.1989  0.6212
    5DOPE   H9R  571   2.075   4.192  16.041  0.3922  0.6800 -1.5228
    5DOPE  C210  572   2.187   4.045  15.942 -0.1166  0.0320  0.3381
    5DOPE  H10R  573   2.283   4.100  15.941  0.6422 -1.2039 -1.5641
    5DOPE  C211  574   2.206   3.909  15.880  0.8153  0.1463  0.2331
    5DOPE  H11R  575   2.121   3.838  15.888  0.1710  0.4350 -2.6417
    5DOPE  H11S  576   2.301   3.864  15.916 -1.0582 -3.7425  0.8610
    5DOPE  C212  577   2.230   3.933  15.724  0.3940  0.0215 -0.4504
    5DOPE  H12R  578   2.336   3.964  15.710  0.5925 -0.6230 -0.4430
    5DOPE  H12S  579   2.160   4.006  15.679  1.8142  2.0191  0.4643
    5DOPE  C213  580   2.208   3.797  15.652 -0.3666  0.0709  0.6876
    5DOPE  H13R  581   2.104   3.759  15.642  0.4363 -1.8132 -1.6474
    5DOPE  H13S  582   2.266   3.726  15.715 -0.7286 -1.5755 -0.7437
    5DOPE  C214  583   2.271   3.803  15.510  0.2214  0.2662  0.2327
    5DOPE  H14R  584   2.378   3.823  15.530  0.3354  0.7324 -0.8027
    5DOPE  H14S  585   2.237   3.897  15.462  0.8486  0.5790  0.3921
    5DOPE  C215  586   2.236   3.673  15.420  0.1739 -0.1917 -0.6917
    5DOPE  H15R  587   2.140   3.697  15.370 -1.3621  1.3298  2.6477
    5DOPE  H15S  588   2.227   3.576  15.473  2.6210 -1.4145 -2.3154
    5DOPE  C216  589   2.344   3.672  15.315 -0.0550  0.0651 -0.1379
    5DOPE  H16R  590   2.441   3.668  15.369  0.2013 -0.8375 -0.6321
    5DOPE  H16S  591   2.338   3.769  15.263  0.5141  0.2523  0.1370
    5DOPE  C217  592   2.317   3.561  15.203  0.3367  0.4299 -0.1105
    5DOPE  H17R  593   2.270   3.471  15.249 -1.9581  0.7931 -1.5580
    5DOPE  H17S  594   2.422   3.536  15.175  1.1483  4.4153 -1.3115
    5DOPE  C218  595   2.234   3.600  15.087  0.3834 -0.0570 -0.3959
    5DOPE  H18R  596   2.141   3.642  15.130  0.2043 -0.1551 -0.6860
    5DOPE  H18S  597   2.205   3.515  15.023  0.1787  0.2278 -0.6860
    5DOPE  H18T  598   2.284   3.680  15.027 -0.6367  2.1798  1.5730
    5DOPE   C33  599   2.439   4.274  16.252  0.6108 -0.4572 -0.0121
    5DOPE   H3X  600   2.451   4.177  16.199  1.2661  0.8252 -2.3407
    5DOPE   H3Y  601   2.539   4.299  16.293 -0.0307 -0.4832  1.6504
    5DOPE   C34  602   2.380   4.380  16.167  0.0961  0.0871  0.1321
    5DOPE   H4X  603   2.278   4.353  16.134  0.0832  0.7027 -0.3511
    5DOPE   H4Y  604   2.393   4.478  16.217  1.5441  1.4044 -2.6578
    5DOPE   C35  605   2.457   4.392  16.037  0.0087 -0.0690 -0.3104
    5DOPE   H5X  606   2.480   4.294  15.990  1.9568  0.0161  0.3671
    5DOPE   H5Y  607   2.559   4.430  16.063  0.9536 -2.3911 -0.3480
    5DOPE   C36  608   2.378   4.482  15.944  1.0815 -0.7688 -0.7109
    5DOPE   H6X  609   2.350   4.567  16.009  0.2621 -2.1272  0.8056
    5DOPE   H6Y  610   2.284   4.427  15.922  0.2178  0.9210 -1.3745
    5DOPE   C37  611   2.441   4.541  15.816 -0.0487 -0.0701  0.6040
    5DOPE   H7X  612   2.368   4.595  15.752  1.5860  1.5360  0.0326
    5DOPE   H7Y  613   2.523   4.614  15.831  0.9416 -0.7152 -1.3532
    5DOPE   C38  614   2.482   4.439  15.712  0.1946 -0.3721  0.1099
    5DOPE   H8X  615   2.577   4.391  15.744 -0.4935 -0.7267  1.7056
    5DOPE   H8Y  616   2.513   4.481  15.613  0.4524 -0.7507  0.0257
    5DOPE   C39  617   2.388   4.328  15.682  0.4259 -0.1697  0.2126
    5DOPE   H9X  618   2.368   4.260  15.767 -0.0911 -0.1286  0.1289
    5DOPE  C310  619   2.324   4.310  15.568 -0.4354  0.8257 -0.1089
    5DOPE  H10X  620   2.247   4.231  15.566 -2.6911  2.9323 -0.4288
    5DOPE  C311  621   2.331   4.391  15.442  0.4482  0.4582  0.3077
    5DOPE  H11X  622   2.245   4.460  15.429  0.6261  0.6411  0.0855
    5DOPE  H11Y  623   2.418   4.460  15.441 -1.0724  2.4876 -0.8996
    5DOPE  C312  624   2.330   4.311  15.305 -0.5709  0.6544 -0.3538
    5DOPE  H12X  625   2.300   4.377  15.221  1.4359 -0.4329 -2.0249
    5DOPE  H12Y  626   2.239   4.247  15.302 -2.2479  2.9154 -0.3379
    5DOPE  C313  627   2.463   4.237  15.284 -0.0495  0.9802 -0.3263
    5DOPE  H13X  628   2.541   4.314  15.301 -0.0193  0.7187  0.7709
    5DOPE  H13Y  629   2.482   4.163  15.365 -0.3850 -0.3726 -1.4441
    5DOPE  C314  630   2.473   4.172  15.148 -0.0492 -0.6033 -0.2520
    5DOPE  H14X  631   2.541   4.233  15.084 -0.6731  1.5205  1.0116
    5DOPE  H14Y  632   2.373   4.166  15.101 -0.4286  2.6828 -0.1282
    5DOPE  C315  633   2.533   4.038  15.165  0.8143  0.1422 -0.2895
    5DOPE  H15X  634   2.517   3.985  15.262 -1.6861 -1.2537 -1.3667
    5DOPE  H15Y  635   2.641   4.063  15.163  1.1041 -1.0717 -0.7255
    5DOPE  C316  636   2.501   3.940  15.047 -0.5279 -0.3158  0.1338
    5DOPE  H16X  637   2.392   3.919  15.060 -0.9775  2.3851  1.6014
    5DOPE  H16Y  638   2.557   3.846  15.066  2.5468  1.4804  0.4806
    5DOPE  C317  639   2.534   4.002  14.909  0.6227 -0.9987 -0.8463
    5DOPE  H17X  640   2.468   4.088  14.886  1.2173  0.4768  2.4536
    5DOPE  H17Y  641   2.633   4.050  14.920  0.7899 -1.2311 -1.3134
    5DOPE  C318  642   2.528   3.894  14.797 -0.0249 -0.6198  0.5577
    5DOPE  H18X  643   2.501   3.955  14.708 -0.8698  0.7423  1.7119
    5DOPE  H18Y  644   2.627   3.846  14.782 -0.7408 -2.3323  1.1548
    5DOPE  H18Z  645   2.447   3.819  14.803 -2.2702  1.7775  1.9340
    6DOPE     N  646   2.053   4.457  17.276  0.3884 -0.6332 -0.1703
    6DOPE   HN1  647   2.118   4.410  17.210  1.4770 -0.1747  0.5399
    6DOPE   HN2  648   2.104   4.511  17.349 -0.1103  1.1782 -1.0875
    6DOPE   HN3  649   2.001   4.385  17.330  0.0531  0.1975  0.6384
    6DOPE   C12  650   1.957   4.542  17.200 -0.3243 -0.8231  1.0128
    6DOPE  H12A  651   1.872   4.561  17.268 -1.9152  1.2751 -1.3902
    6DOPE  H12B  652   1.918   4.490  17.110  1.9805  1.3633 -1.4528
    6DOPE   C11  653   2.022   4.681  17.160  0.0780  0.0658  0.2427
    6DOPE  H11A  654   2.049   4.727  17.257 -0.4313  0.9125 -0.0050
    6DOPE  H11B  655   1.949   4.753  17.117 -0.7651 -0.4029  0.8722
    6DOPE     P  656   2.131   4.698  16.925  0.3818  0.1218  0.3347
    6DOPE   O13  657   2.004   4.664  16.855  0.3231  0.3417 -0.5083
    6DOPE   O14  658   2.257   4.640  16.862 -0.9012 -0.3204  0.4277
    6DOPE   O11  659   2.154   4.855  16.922  0.2671  0.5073  0.5959
    6DOPE   O12  660   2.130   4.649  17.074 -0.0255 -0.7659  0.0353
    6DOPE    C1  661   2.051   4.942  16.876  0.1597 -0.0220  0.2969
    6DOPE    HA  662   2.029   5.019  16.953 -0.7758 -1.8321  1.9585
    6DOPE    HB  663   1.954   4.893  16.850  0.9452 -2.0823  1.0071
    6DOPE    C2  664   2.100   5.026  16.746  0.1422  0.6032  0.3595
    6DOPE    HS  665   2.013   5.084  16.708  0.4837  0.4389 -0.6861
    6DOPE   O21  666   2.156   4.940  16.647 -0.5374  0.3105  0.7235
    6DOPE   C21  667   2.073   4.900  16.553  0.5815  0.5391 -0.7626
    6DOPE   O22  668   1.951   4.913  16.555 -0.0700 -0.0436 -0.2418
    6DOPE   C22  669   2.149   4.812  16.453  1.0835 -0.0456 -0.1163
    6DOPE   H2R  670   2.213   4.740  16.508 -0.5625 -1.6661 -0.2336
    6DOPE   H2S  671   2.203   4.882  16.385 -2.0379  0.0235 -2.7968
    6DOPE    C3  672   2.201   5.131  16.786 -0.1782 -0.3489  1.0153
    6DOPE    HX  673   2.297   5.079  16.805  0.7577  1.7587  2.5523
    6DOPE    HY  674   2.166   5.182  16.879  1.4865 -3.2376  3.3641
    6DOPE   O31  675   2.223   5.229  16.678  0.4511  0.1818  0.0607
    6DOPE   C31  676   2.314   5.323  16.699 -0.4865  0.6868  0.5536
    6DOPE   O32  677   2.375   5.345  16.800  0.4178 -0.1799 -0.2698
    6DOPE   C32  678   2.317   5.407  16.569 -0.2496  0.1927 -0.1995
    6DOPE   H2X  679   2.243   5.376  16.493 -0.4943  0.7471 -0.1893
    6DOPE   H2Y  680   2.294   5.510  16.604 -0.4595 -0.4917  1.8114
    6DOPE   C23  681   2.049   4.725  16.368 -0.1868  0.3638  0.6691
    6DOPE   H3R  682   1.979   4.797  16.321  0.7468  0.5907 -0.4061
    6DOPE   H3S  683   1.991   4.665  16.442 -0.8987  0.5479  0.2667
    6DOPE   C24  684   2.117   4.621  16.281 -0.7603 -0.4476 -0.1956
    6DOPE   H4R  685   2.185   4.557  16.341  0.6041  1.2112  0.0903
    6DOPE   H4S  686   2.173   4.681  16.206 -2.0838 -0.8317 -1.5434
    6DOPE   C25  687   2.019   4.522  16.203  0.2693 -0.6648 -0.3238
    6DOPE   H5R  688   1.934   4.494  16.269 -0.1386 -1.0706 -1.0175
    6DOPE   H5S  689   2.081   4.434  16.177  0.9746 -0.5248  0.7883
    6DOPE   C26  690   1.966   4.593  16.074  0.5844  0.3910 -0.1371
    6DOPE   H6R  691   2.057   4.616  16.014  0.9540  3.4506  1.3817
    6DOPE   H6S  692   1.909   4.685  16.101  0.6332 -0.0235  1.4658
    6DOPE   C27  693   1.873   4.503  15.995 -0.2893 -0.1459  0.3169
    6DOPE   H7R  694   1.774   4.491  16.042  0.1385 -0.5716  1.1278
    6DOPE   H7S  695   1.910   4.398  15.997 -0.0900 -0.1174 -0.9516
    6DOPE   C28  696   1.858   4.553  15.852  0.4673 -0.0992 -0.5670
    6DOPE   H8R  697   1.815   4.655  15.863 -1.3790 -0.8435 -0.4960
    6DOPE   H8S  698   1.788   4.482  15.803  1.3174 -0.2295 -1.6423
    6DOPE   C29  699   1.987   4.551  15.765 -0.8980 -0.0410  0.1606
    6DOPE   H9R  700   2.053   4.639  15.764 -1.6820  0.5732 -1.1901
    6DOPE  C210  701   2.027   4.453  15.684 -0.1771  0.1714  0.0900
    6DOPE  H10R  702   2.128   4.459  15.642  0.6407  3.6543  2.1038
    6DOPE  C211  703   1.959   4.325  15.655  0.0337  0.9763  0.3235
    6DOPE  H11R  704   1.858   4.322  15.702 -0.3447 -1.1979 -0.5146
    6DOPE  H11S  705   2.014   4.240  15.701  0.8264 -0.7765 -3.4764
    6DOPE  C212  706   1.950   4.312  15.498 -0.0752 -0.0015 -1.0535
    6DOPE  H12R  707   2.051   4.299  15.453  1.3078 -1.8387  2.2267
    6DOPE  H12S  708   1.903   4.404  15.457  1.4996  0.5609 -1.6648
    6DOPE  C213  709   1.860   4.192  15.472 -0.1498  0.1929  0.3123
    6DOPE  H13R  710   1.793   4.213  15.386  1.3231 -0.3196 -1.0027
    6DOPE  H13S  711   1.792   4.173  15.558  0.5838 -0.9589  0.6649
    6DOPE  C214  712   1.947   4.072  15.426  0.5566  0.0378  0.0730
    6DOPE  H14R  713   1.872   3.991  15.413  0.2724 -0.0411  2.0250
    6DOPE  H14S  714   2.015   4.044  15.509 -0.6329 -2.3344  0.3409
    6DOPE  C215  715   2.024   4.088  15.292 -0.0161  0.8277 -0.5389
    6DOPE  H15R  716   2.129   4.060  15.314  0.2995  2.3088  0.0158
    6DOPE  H15S  717   2.021   4.198  15.275  0.8747  1.2486  1.7319
    6DOPE  C216  718   1.973   4.012  15.172  0.0880 -0.7512 -0.6041
    6DOPE  H16R  719   1.876   4.060  15.147  0.7201  0.7361 -0.3132
    6DOPE  H16S  720   1.957   3.907  15.206  0.1480 -1.1255 -1.7050
    6DOPE  C217  721   2.068   4.006  15.060 -0.0863  0.2150 -0.5098
    6DOPE  H17R  722   2.157   3.948  15.092 -0.5977  0.6213  1.8216
    6DOPE  H17S  723   2.105   4.108  15.034  1.9287 -0.8108 -1.9658
    6DOPE  C218  724   2.006   3.938  14.940 -0.0627 -0.4588 -0.4262
    6DOPE  H18R  725   1.920   3.996  14.900  0.0843 -0.5822 -0.9334
    6DOPE  H18S  726   1.961   3.841  14.972 -3.4768  1.0756 -0.1756
    6DOPE  H18T  727   2.078   3.912  14.859  0.1718 -1.9108  0.2190
    6DOPE   C33  728   2.466   5.404  16.515  0.1772  0.4999  0.3868
    6DOPE   H3X  729   2.540   5.439  16.590 -0.0383 -3.2569  2.5751
    6DOPE   H3Y  730   2.474   5.474  16.429  0.3210  0.5883  0.4719
    6DOPE   C34  731   2.517   5.271  16.448 -0.8444  0.2527  0.9677
    6DOPE   H4X  732   2.627   5.277  16.430 -0.9632 -0.3692 -0.0059
    6DOPE   H4Y  733   2.499   5.187  16.518 -1.5432 -0.7425 -0.3679
    6DOPE   C35  734   2.445   5.247  16.311  0.9315 -0.4395 -0.2639
    6DOPE   H5X  735   2.480   5.318  16.233  0.4934  0.1071  0.0330
    6DOPE   H5Y  736   2.335   5.250  16.322  0.8003  0.4651 -1.5780
    6DOPE   C36  737   2.468   5.104  16.258  0.0051 -0.1874  0.3308
    6DOPE   H6X  738   2.449   5.030  16.338  1.0498  0.8121  1.5398
    6DOPE   H6Y  739   2.574   5.093  16.226  0.3784 -1.6174  1.9328
    6DOPE   C37  740   2.370   5.078  16.137 -0.6017  0.0629 -0.3408
    6DOPE   H7X  741   2.265   5.069  16.172 -0.3847 -0.0107  0.3074
    6DOPE   H7Y  742   2.382   5.165  16.069 -2.1926  0.5473 -0.0563
    6DOPE   C38  743   2.398   4.943  16.062 -0.5049  0.7319  0.1081
    6DOPE   H8X  744   2.401   4.862  16.138 -0.8175 -0.8417 -1.4806
    6DOPE   H8Y  745   2.502   4.945  16.021 -0.9512  0.6262 -1.0841
    6DOPE   C39  746   2.304   4.909  15.945 -0.4972  0.4206  0.5179
    6DOPE   H9X  747   2.200   4.888  15.973 -0.8345  2.4960  0.9583
    6DOPE  C310  748   2.334   4.910  15.813 -0.2302 -0.0052 -0.3517
    6DOPE  H10X  749   2.254   4.905  15.737 -0.8863  0.3004  0.3104
    6DOPE  C311  750   2.462   4.942  15.749 -0.1186  0.3840  0.4739
    6DOPE  H11X  751   2.486   5.051  15.739  2.9353 -0.0233  2.2235
    6DOPE  H11Y  752   2.547   4.895  15.802  0.5144  0.5198 -0.3825
    6DOPE  C312  753   2.470   4.879  15.612  0.1835  0.5554 -0.7306
    6DOPE  H12X  754   2.389   4.911  15.543  1.7013  0.7395 -2.5414
    6DOPE  H12Y  755   2.473   4.768  15.620  1.4064  0.4963 -1.6068
    6DOPE  C313  756   2.599   4.920  15.542 -0.3003  0.2341  0.4800
    6DOPE  H13X  757   2.687   4.894  15.604  0.7544  0.8310 -0.7383
    6DOPE  H13Y  758   2.614   4.848  15.458  1.9588  0.9900  0.1719
    6DOPE  C314  759   2.613   5.055  15.479  0.1031  0.7005  0.2041
    6DOPE  H14X  760   2.607   5.137  15.554  1.6990  1.2149 -0.1726
    6DOPE  H14Y  761   2.533   5.069  15.404  1.2232 -1.6028 -1.5675
    6DOPE  C315  762   2.745   5.078  15.400  0.2673 -0.0248 -0.3174
    6DOPE  H15X  763   2.765   4.987  15.339  0.5771 -0.7614  0.8550
    6DOPE  H15Y  764   2.833   5.085  15.467  0.5639 -4.0056 -0.0520
    6DOPE  C316  765   2.736   5.202  15.313 -0.2575  0.1006  0.1897
    6DOPE  H16X  766   2.654   5.260  15.359  0.6099  2.3770 -1.0132
    6DOPE  H16Y  767   2.706   5.180  15.208  0.4090 -0.3227  0.0778
    6DOPE  C317  768   2.866   5.287  15.305  0.7098 -0.6771 -0.2895
    6DOPE  H17X  769   2.883   5.325  15.408 -0.4394 -1.3753  0.1717
    6DOPE  H17Y  770   2.953   5.223  15.277  1.6066  0.2426  0.3037
    6DOPE  C318  771   2.854   5.399  15.208  0.1633  0.5024  1.1485
    6DOPE  H18X  772   2.947   5.458  15.193  0.6342 -0.1249  1.5768
    6DOPE  H18Y  773   2.812   5.356  15.114  0.6657 -1.2445  1.6779
    6DOPE  H18Z  774   2.769   5.464  15.236 -1.3079  0.2091 -2.1676
    7DOPE     N  775   5.123   5.907  16.866 -0.5329  0.0230  0.2170
    7DOPE   HN1  776   5.076   5.913  16.774  0.3109 -1.8402 -0.3919
    7DOPE   HN2  777   5.059   5.850  16.924  0.0110  0.4679  1.2788
    7DOPE   HN3  778   5.133   6.000  16.911 -0.5231  0.7557 -1.2428
    7DOPE   C12  779   5.253   5.829  16.860 -0.2706  0.0931 -0.1703
    7DOPE  H12A  780   5.266   5.808  16.969  0.5274 -2.7767 -0.7538
    7DOPE  H12B  781   5.335   5.891  16.818 -0.5385 -1.1608 -2.6810
    7DOPE   C11  782   5.236   5.697  16.797  0.1691 -0.2889  0.3448
    7DOPE  H11A  783   5.319   5.624  16.801 -0.1347 -0.7041 -0.6160
    7DOPE  H11B  784   5.215   5.716  16.690  1.3939 -0.5122  0.0488
    7DOPE     P  785   5.039   5.526  16.803  0.4149 -0.1850 -0.1733
    7DOPE   O13  786   4.903   5.563  16.845 -0.4925 -0.1250 -0.1251
    7DOPE   O14  787   5.089   5.396  16.841 -0.5498  0.2064 -0.0907
    7DOPE   O11  788   5.054   5.529  16.651 -0.0381  0.0670  0.0810
    7DOPE   O12  789   5.127   5.634  16.861 -0.6432 -0.1390 -0.0189
    7DOPE    C1  790   4.977   5.616  16.574  1.0162  0.5951 -0.4573
    7DOPE    HA  791   5.040   5.658  16.493  0.5244 -2.1519 -2.4075
    7DOPE    HB  792   4.918   5.694  16.626  0.1714 -1.4463  1.8290
    7DOPE    C2  793   4.883   5.526  16.484 -0.4788 -0.0794 -0.6455
    7DOPE    HS  794   4.836   5.449  16.548 -1.0688  1.2939  0.6453
    7DOPE   O21  795   4.963   5.476  16.374 -0.0807  0.4500 -0.0209
    7DOPE   C21  796   5.010   5.361  16.409 -0.0888  0.0460  0.4569
    7DOPE   O22  797   4.976   5.290  16.502  0.2199 -0.1528 -0.3190
    7DOPE   C22  798   5.119   5.319  16.310 -0.5532 -0.0415 -0.7946
    7DOPE   H2R  799   5.127   5.209  16.325 -1.0193 -0.1702 -1.4371
    7DOPE   H2S  800   5.207   5.374  16.348 -0.3468 -1.5668  1.0894
    7DOPE    C3  801   4.766   5.603  16.418 -0.2203 -0.2588  0.5917
    7DOPE    HX  802   4.825   5.673  16.356  1.0067  2.1965  4.2096
    7DOPE    HY  803   4.708   5.657  16.496 -0.4389  0.2999  0.0472
    7DOPE   O31  804   4.679   5.518  16.332 -0.1553  0.5421 -1.4366
    7DOPE   C31  805   4.606   5.434  16.405  0.1052  0.0041  0.2947
    7DOPE   O32  806   4.588   5.430  16.525 -0.2862 -0.3780  0.2648
    7DOPE   C32  807   4.543   5.334  16.306 -0.3480 -0.7381 -0.1225
    7DOPE   H2X  808   4.446   5.314  16.356 -0.0256 -0.4400  0.6434
    7DOPE   H2Y  809   4.524   5.391  16.212 -0.5481 -0.8658 -0.1596
    7DOPE   C23  810   5.084   5.362  16.169  0.0504  0.5983 -0.0420
    7DOPE   H3R  811   5.069   5.471  16.157  0.9774  0.5624 -1.8510
    7DOPE   H3S  812   4.988   5.317  16.136 -0.7251  0.0862  2.6848
    7DOPE   C24  813   5.198   5.325  16.068  0.3450 -0.0103 -0.2691
    7DOPE   H4R  814   5.209   5.215  16.062  0.6671 -0.2306  2.7702
    7DOPE   H4S  815   5.297   5.358  16.104  0.0303 -0.0053  0.6194
    7DOPE   C25  816   5.153   5.363  15.934 -0.4325 -0.8135 -0.0040
    7DOPE   H5R  817   5.121   5.468  15.919  1.2073  0.1374  2.6190
    7DOPE   H5S  818   5.075   5.291  15.898 -1.3909  0.2904 -0.2098
    7DOPE   C26  819   5.273   5.340  15.840 -0.1694  0.1951  0.1467
    7DOPE   H6R  820   5.326   5.244  15.856 -1.0565 -0.7473 -2.0880
    7DOPE   H6S  821   5.343   5.424  15.859  0.5209 -0.9212  3.0548
    7DOPE   C27  822   5.226   5.349  15.692 -0.3177 -0.1261  0.3331
    7DOPE   H7R  823   5.175   5.448  15.686 -1.1446 -0.6090 -1.2095
    7DOPE   H7S  824   5.150   5.273  15.667 -2.5138  2.6951 -2.5818
    7DOPE   C28  825   5.337   5.338  15.577 -0.3133 -0.3114 -0.5048
    7DOPE   H8R  826   5.417   5.413  15.593 -0.5936 -0.1726  0.2999
    7DOPE   H8S  827   5.292   5.358  15.478 -0.4952 -2.4514 -0.8972
    7DOPE   C29  828   5.387   5.198  15.570  0.1852  0.6631  0.6782
    7DOPE   H9R  829   5.308   5.128  15.542  2.5686 -1.5429 -0.9926
    7DOPE  C210  830   5.507   5.147  15.557 -0.3576 -0.3217  0.5792
    7DOPE  H10R  831   5.509   5.038  15.546 -1.1542 -0.3713  0.8974
    7DOPE  C211  832   5.634   5.224  15.549 -0.5627 -0.4562  0.1285
    7DOPE  H11R  833   5.710   5.169  15.609 -0.5174 -0.5179  0.0145
    7DOPE  H11S  834   5.621   5.328  15.585 -1.0404 -0.3655 -0.2925
    7DOPE  C212  835   5.702   5.222  15.414 -0.4315 -0.8502 -0.2863
    7DOPE  H12R  836   5.640   5.282  15.344  1.7611 -0.7146 -2.2459
    7DOPE  H12S  837   5.719   5.120  15.374 -0.1487 -0.0266 -2.3576
    7DOPE  C213  838   5.843   5.272  15.430  0.1047 -0.5218  0.1914
    7DOPE  H13R  839   5.905   5.187  15.467  0.8475 -0.5272 -0.9792
    7DOPE  H13S  840   5.843   5.356  15.502 -1.9023  0.1304 -0.4932
    7DOPE  C214  841   5.882   5.329  15.294 -0.1572  0.6383  0.6803
    7DOPE  H14R  842   5.819   5.417  15.268 -0.9196  0.7224  2.6901
    7DOPE  H14S  843   5.878   5.258  15.208  1.8075 -0.1491  1.1888
    7DOPE  C215  844   6.025   5.385  15.290  0.0046  0.2006 -0.3730
    7DOPE  H15R  845   6.095   5.300  15.276 -0.9592 -0.6441 -0.2011
    7DOPE  H15S  846   6.054   5.442  15.380  0.5378 -1.8425  0.8023
    7DOPE  C216  847   6.039   5.462  15.154  0.0600  0.4264 -0.1709
    7DOPE  H16R  848   5.947   5.523  15.139  0.1626  0.5846 -0.1648
    7DOPE  H16S  849   6.035   5.395  15.066 -2.2440  2.6033 -1.8749
    7DOPE  C217  850   6.151   5.561  15.169  0.4211  0.7141 -0.6143
    7DOPE  H17R  851   6.145   5.615  15.266  0.8078  0.0552 -0.2187
    7DOPE  H17S  852   6.142   5.635  15.086  1.8326 -1.5713 -2.9487
    7DOPE  C218  853   6.292   5.508  15.167 -0.7216  0.1722 -0.7627
    7DOPE  H18R  854   6.364   5.589  15.192  0.1603 -0.5484 -0.9026
    7DOPE  H18S  855   6.328   5.464  15.072  1.2386  1.2043 -0.5541
    7DOPE  H18T  856   6.294   5.428  15.245 -1.2988  2.5325  1.8276
    7DOPE   C33  857   4.627   5.208  16.276 -0.7284 -0.5738 -0.2791
    7DOPE   H3X  858   4.640   5.146  16.367 -2.3560 -0.7627 -0.1497
    7DOPE   H3Y  859   4.727   5.249  16.250 -0.2499 -0.7435  1.1787
    7DOPE   C34  860   4.586   5.116  16.154  0.2525 -0.1087 -0.0008
    7DOPE   H4X  861   4.662   5.035  16.163 -1.6563 -1.8850  1.1886
    7DOPE   H4Y  862   4.485   5.072  16.173 -0.4817  1.0180 -1.1699
    7DOPE   C35  863   4.602   5.181  16.019 -0.9700  0.6662 -0.6057
    7DOPE   H5X  864   4.700   5.232  16.005  0.3475 -1.9983 -1.8664
    7DOPE   H5Y  865   4.527   5.263  16.011 -1.5212  0.1680 -0.6385
    7DOPE   C36  866   4.586   5.066  15.910  0.1710 -0.2487 -0.1147
    7DOPE   H6X  867   4.499   5.003  15.936  1.0337 -0.6921  1.8506
    7DOPE   H6Y  868   4.673   4.996  15.914 -0.8109 -1.5595 -0.8104
    7DOPE   C37  869   4.570   5.133  15.768  0.2550  0.3403  0.2127
    7DOPE   H7X  870   4.468   5.175  15.755 -1.1996 -2.6511  1.0828
    7DOPE   H7Y  871   4.650   5.210  15.761  0.0836  0.5762  0.7926
    7DOPE   C38  872   4.603   5.048  15.650 -0.2224 -0.5424  0.4517
    7DOPE   H8X  873   4.532   4.966  15.625  1.0628 -1.1638 -1.3518
    7DOPE   H8Y  874   4.696   4.995  15.679  0.1224  0.7041  1.7958
    7DOPE   C39  875   4.614   5.123  15.517  0.1928 -0.4883 -0.2211
    7DOPE   H9X  876   4.526   5.184  15.494  0.3150  0.0084  0.6095
    7DOPE  C310  877   4.725   5.121  15.435  0.3523 -0.3359 -0.3356
    7DOPE  H10X  878   4.721   5.192  15.350 -0.3263  2.3194  1.7738
    7DOPE  C311  879   4.853   5.048  15.463 -0.1612 -0.1217 -0.4852
    7DOPE  H11X  880   4.838   4.969  15.540  0.8590 -0.4681 -0.6214
    7DOPE  H11Y  881   4.890   4.978  15.385 -0.5570  1.1798 -1.8816
    7DOPE  C312  882   4.962   5.148  15.492 -0.4068 -0.4486  0.0351
    7DOPE  H12X  883   5.047   5.092  15.537  0.5911  1.0182  0.0398
    7DOPE  H12Y  884   4.931   5.225  15.565 -1.2924 -0.1512 -0.6420
    7DOPE  C313  885   5.034   5.226  15.371  0.3187  0.1150 -0.3599
    7DOPE  H13X  886   4.945   5.261  15.315 -0.2861 -1.8141 -0.6843
    7DOPE  H13Y  887   5.091   5.311  15.412 -1.5976  1.4392 -0.3073
    7DOPE  C314  888   5.120   5.138  15.285  0.0723 -0.0400  0.6567
    7DOPE  H14X  889   5.060   5.060  15.234  0.9376 -0.8984  0.9410
    7DOPE  H14Y  890   5.192   5.088  15.352  0.3977  1.8303  1.7859
    7DOPE  C315  891   5.201   5.204  15.180  0.0451 -0.3071  0.3978
    7DOPE  H15X  892   5.245   5.297  15.223  3.3618 -1.0524 -1.0697
    7DOPE  H15Y  893   5.141   5.255  15.102  0.8081  0.1087  0.0612
    7DOPE  C316  894   5.294   5.106  15.108 -0.8934 -0.2476  0.1242
    7DOPE  H16X  895   5.362   5.171  15.049 -0.9706  0.5586  0.9060
    7DOPE  H16Y  896   5.236   5.029  15.052  0.2436 -0.5306 -0.6924
    7DOPE  C317  897   5.399   5.031  15.188 -0.3797 -0.0065  0.1689
    7DOPE  H17X  898   5.438   5.106  15.261 -1.6466  1.5725 -0.6866
    7DOPE  H17Y  899   5.348   4.951  15.245 -0.3610 -0.8994 -1.0318
    7DOPE  C318  900   5.517   4.976  15.109 -0.1898  0.0638  0.6014
    7DOPE  H18X  901   5.473   4.909  15.031 -1.0312  2.0263 -0.7009
    7DOPE  H18Y  902   5.574   5.053  15.052 -0.4263 -0.3539 -0.2097
    7DOPE  H18Z  903   5.585   4.922  15.178 -0.1073  1.0439  1.3085
    8DOPE     N  904   5.066   6.411  17.002  0.2665 -0.4479 -0.3410
    8DOPE   HN1  905   5.045   6.339  16.930 -1.9596  0.3618 -0.5894
    8DOPE   HN2  906   5.001   6.394  17.082 -0.1560 -2.0932 -0.9977
    8DOPE   HN3  907   5.033   6.501  16.961 -0.7958 -1.1984 -1.2240
    8DOPE   C12  908   5.205   6.410  17.053  0.4442 -0.1797  0.3172
    8DOPE  H12A  909   5.225   6.310  17.098 -1.0428  0.1459  1.7796
    8DOPE  H12B  910   5.235   6.498  17.115  0.0598  1.1145 -1.2635
    8DOPE   C11  911   5.300   6.447  16.934  0.4813 -0.0735  0.2003
    8DOPE  H11A  912   5.406   6.424  16.957  0.4982  0.1059  0.3064
    8DOPE  H11B  913   5.282   6.552  16.900 -1.2835 -0.6891 -0.8918
    8DOPE     P  914   5.326   6.227  16.790  0.3020  0.2828  0.3580
    8DOPE   O13  915   5.289   6.137  16.907  0.3112  0.1171  0.0444
    8DOPE   O14  916   5.470   6.237  16.769 -0.0477 -0.3255 -0.3891
    8DOPE   O11  917   5.254   6.178  16.659 -0.6779  0.2532  0.3572
    8DOPE   O12  918   5.259   6.367  16.820 -0.4055 -0.2491  0.5653
    8DOPE    C1  919   5.267   6.251  16.538 -0.7938  0.0544  0.4162
    8DOPE    HA  920   5.372   6.263  16.504 -1.4978  1.3950 -1.3743
    8DOPE    HB  921   5.224   6.352  16.551 -2.0650 -0.1189 -1.8734
    8DOPE    C2  922   5.183   6.200  16.418 -0.9693 -0.0743 -0.2632
    8DOPE    HS  923   5.076   6.210  16.446 -1.3145 -0.6615 -1.3058
    8DOPE   O21  924   5.225   6.069  16.395 -0.0402 -0.2768  0.1158
    8DOPE   C21  925   5.131   5.974  16.370  0.1887 -0.0727 -0.5357
    8DOPE   O22  926   5.012   5.999  16.391  0.2059  0.2519  0.0730
    8DOPE   C22  927   5.189   5.850  16.308  0.7614 -0.3667 -0.3580
    8DOPE   H2R  928   5.199   5.785  16.398 -0.8889  0.8539  0.7473
    8DOPE   H2S  929   5.294   5.871  16.277  1.0155 -0.7967  0.1676
    8DOPE    C3  930   5.207   6.278  16.281  0.3930  0.5513  0.8116
    8DOPE    HX  931   5.155   6.375  16.262 -1.0439 -0.6929 -2.2801
    8DOPE    HY  932   5.159   6.219  16.200  1.7937  0.1187  0.2516
    8DOPE   O31  933   5.347   6.268  16.242 -0.4166 -0.2954  0.5270
    8DOPE   C31  934   5.411   6.385  16.247  0.4204 -0.2356 -0.4204
    8DOPE   O32  935   5.360   6.491  16.278 -0.1320 -0.4727  0.1344
    8DOPE   C32  936   5.567   6.377  16.231 -0.2111  0.2865  0.5841
    8DOPE   H2X  937   5.605   6.418  16.327  2.7518  1.9462 -1.1544
    8DOPE   H2Y  938   5.606   6.274  16.222  0.8156  0.8147 -1.8537
    8DOPE   C23  939   5.103   5.784  16.201 -0.5465 -0.9726 -0.3989
    8DOPE   H3R  940   4.999   5.767  16.237 -0.5012 -4.4891 -1.5726
    8DOPE   H3S  941   5.136   5.679  16.196  0.2257 -0.9354  2.2796
    8DOPE   C24  942   5.119   5.847  16.067 -0.1951 -0.1448  0.0247
    8DOPE   H4R  943   5.119   5.958  16.064 -0.7507 -0.1357  0.3478
    8DOPE   H4S  944   5.037   5.825  15.995  0.0063  1.1674 -0.6245
    8DOPE   C25  945   5.250   5.808  16.008  0.6934  0.0914  0.3866
    8DOPE   H5R  946   5.251   5.697  16.002  0.7043  0.1645 -1.9995
    8DOPE   H5S  947   5.337   5.839  16.069  0.5467 -1.1682  1.2830
    8DOPE   C26  948   5.270   5.873  15.868  0.5801 -0.1114 -0.1665
    8DOPE   H6R  949   5.278   5.982  15.885  0.6985  0.1293 -1.6193
    8DOPE   H6S  950   5.178   5.855  15.808  1.0397  0.4339 -1.0534
    8DOPE   C27  951   5.386   5.802  15.803  1.3023 -0.2949  0.2875
    8DOPE   H7R  952   5.357   5.701  15.769 -1.5740  0.0971  1.3449
    8DOPE   H7S  953   5.465   5.788  15.880 -0.3114 -0.6376  1.9544
    8DOPE   C28  954   5.444   5.883  15.680  0.5057  0.0686  0.0160
    8DOPE   H8R  955   5.360   5.895  15.607  0.8895  0.2015 -0.4141
    8DOPE   H8S  956   5.519   5.819  15.628  0.5039 -0.7912  1.0646
    8DOPE   C29  957   5.489   6.019  15.733 -0.4533 -0.1742  0.2974
    8DOPE   H9R  958   5.569   6.013  15.808  2.1657 -0.1763 -2.3188
    8DOPE  C210  959   5.449   6.140  15.696 -0.5099 -0.6264 -0.4979
    8DOPE  H10R  960   5.497   6.231  15.736 -1.8490  1.0869 -2.5741
    8DOPE  C211  961   5.346   6.172  15.594  0.2902 -0.0692 -0.0541
    8DOPE  H11R  962   5.317   6.087  15.529 -2.0429 -0.4036  1.3300
    8DOPE  H11S  963   5.368   6.256  15.525 -2.7519 -1.3852 -2.9361
    8DOPE  C212  964   5.224   6.225  15.669  0.3377 -0.5424  0.2375
    8DOPE  H12R  965   5.244   6.315  15.731 -0.1805 -0.4095  0.2219
    8DOPE  H12S  966   5.194   6.148  15.744 -1.3034  0.2337  0.4284
    8DOPE  C213  967   5.110   6.254  15.574 -0.0079  0.0808  0.3562
    8DOPE  H13R  968   5.053   6.161  15.556 -0.8937  1.1221 -3.0619
    8DOPE  H13S  969   5.153   6.291  15.479  2.4637 -1.4154  0.8259
    8DOPE  C214  970   5.006   6.353  15.615 -0.2252  0.0742 -0.5672
    8DOPE  H14R  971   4.947   6.375  15.523 -0.7237 -1.8139 -0.7506
    8DOPE  H14S  972   5.052   6.449  15.647 -0.4893  0.2549 -0.7243
    8DOPE  C215  973   4.899   6.294  15.715  0.2938  0.3853  0.3602
    8DOPE  H15R  974   4.952   6.265  15.808 -0.8556 -0.1884  0.8581
    8DOPE  H15S  975   4.871   6.197  15.668  3.0264  0.4000 -1.5137
    8DOPE  C216  976   4.786   6.390  15.737 -0.1412  0.9685 -0.5625
    8DOPE  H16R  977   4.736   6.421  15.643 -2.5288 -1.1544 -0.0674
    8DOPE  H16S  978   4.829   6.485  15.776  0.1687  0.5880  0.0482
    8DOPE  C217  979   4.672   6.330  15.833  0.2256  1.0105  0.4928
    8DOPE  H17R  980   4.608   6.412  15.874  0.6733  3.1573 -2.7237
    8DOPE  H17S  981   4.728   6.284  15.917  0.0002 -0.0593  0.0638
    8DOPE  C218  982   4.581   6.230  15.773 -0.1327 -0.3169  0.5483
    8DOPE  H18R  983   4.632   6.152  15.714  3.9440  1.6473  1.1489
    8DOPE  H18S  984   4.515   6.277  15.696  0.0950 -0.6783  0.1333
    8DOPE  H18T  985   4.517   6.192  15.855  0.4587 -0.4418  0.9483
    8DOPE   C33  986   5.628   6.459  16.115 -0.6301  0.8831 -0.4219
    8DOPE   H3X  987   5.738   6.448  16.106 -0.7543 -0.2632 -0.6988
    8DOPE   H3Y  988   5.608   6.568  16.123  0.1322  0.9222  1.2185
    8DOPE   C34  989   5.566   6.415  15.983 -0.1531 -0.3113  0.1741
    8DOPE   H4X  990   5.606   6.316  15.951  0.4384 -0.0438  0.0769
    8DOPE   H4Y  991   5.457   6.402  16.000 -0.4703  3.1306  1.6438
    8DOPE   C35  992   5.601   6.513  15.870 -0.7564 -0.1494  0.4075
    8DOPE   H5X  993   5.607   6.467  15.769 -1.3920  1.0024 -0.1784
    8DOPE   H5Y  994   5.704   6.547  15.893 -0.4457 -1.3002  0.7683
    8DOPE   C36  995   5.503   6.631  15.880 -0.2310 -0.4333  0.8356
    8DOPE   H6X  996   5.556   6.720  15.839  0.9284 -1.5383 -0.1651
    8DOPE   H6Y  997   5.477   6.657  15.985 -0.7929  0.4388  0.4921
    8DOPE   C37  998   5.370   6.606  15.806 -0.3127  0.1833 -0.3554
    8DOPE   H7X  999   5.384   6.568  15.703  1.1833  1.0029 -0.4901
    8DOPE   H7Y 1000   5.320   6.521  15.857  0.1399  0.3684  0.4221
    8DOPE   C38 1001   5.284   6.732  15.803 -0.5267 -0.0455  0.1254
    8DOPE   H8X 1002   5.353   6.818  15.790 -0.3100 -0.5268 -2.2341
    8DOPE   H8Y 1003   5.242   6.746  15.906  1.4853 -0.8933  1.1061
    8DOPE   C39 1004   5.169   6.716  15.701 -0.0395  0.1010  0.6831
    8DOPE   H9X 1005   5.103   6.630  15.717 -0.2325 -0.3237 -1.9544
    8DOPE  C310 1006   5.153   6.780  15.579  0.2863  0.8412 -0.2536
    8DOPE  H10X 1007   5.076   6.741  15.511  0.5072  2.5764 -1.5419
    8DOPE  C311 1008   5.243   6.877  15.511  0.4614  0.2477  0.6448
    8DOPE  H11X 1009   5.343   6.856  15.555 -0.7845 -1.4346  2.8958
    8DOPE  H11Y 1010   5.246   6.863  15.401  0.0539  1.9530  0.3865
    8DOPE  C312 1011   5.197   7.017  15.541  0.5215 -0.5992 -0.1937
    8DOPE  H12X 1012   5.257   7.095  15.488 -2.9470  2.3839 -0.1542
    8DOPE  H12Y 1013   5.205   7.045  15.648  1.5185  2.1812 -0.8904
    8DOPE  C313 1014   5.052   7.049  15.503  0.5763 -0.3598  0.6713
    8DOPE  H13X 1015   5.020   6.996  15.411 -0.7298  0.5952  0.5414
    8DOPE  H13Y 1016   4.987   7.016  15.587  0.2931  0.7839  0.9152
    8DOPE  C314 1017   5.019   7.199  15.482  0.1062 -0.4581 -0.7569
    8DOPE  H14X 1018   5.059   7.239  15.385  3.2497 -0.1221  0.5468
    8DOPE  H14Y 1019   5.054   7.264  15.565  0.1550 -2.9748  1.3031
    8DOPE  C315 1020   4.870   7.224  15.488  0.3961 -0.6655  0.0020
    8DOPE  H15X 1021   4.832   7.186  15.585 -1.3597  3.1318  0.9706
    8DOPE  H15Y 1022   4.827   7.175  15.398  1.6066 -0.1489 -0.8927
    8DOPE  C316 1023   4.822   7.370  15.493  0.4522 -0.1897 -0.6858
    8DOPE  H16X 1024   4.860   7.429  15.407  1.1238  1.5751  0.7288
    8DOPE  H16Y 1025   4.838   7.419  15.592 -0.7713 -1.2806  0.0838
    8DOPE  C317 1026   4.667   7.386  15.509 -0.0746  0.4922  0.1438
    8DOPE  H17X 1027   4.638   7.493  15.515  1.0673  0.8383 -0.3595
    8DOPE  H17Y 1028   4.617   7.357  15.413 -1.1630  1.9511  0.2353
    8DOPE  C318 1029   4.606   7.303  15.623 -0.0759 -0.0717  0.0680
    8DOPE  H18X 1030   4.511   7.344  15.663 -0.2022 -0.6517  0.3705
    8DOPE  H18Y 1031   4.673   7.299  15.712 -0.7653 -2.3838  0.5378
    8DOPE  H18Z 1032   4.583   7.200  15.589 -1.9474  0.5834 -0.7392
    9DOPE     N 1033   1.774   4.594  16.760  0.1121 -0.1908  0.1663
    9DOPE   HN1 1034   1.732   4.661  16.692  1.3589 -0.2479 -0.6937
    9DOPE   HN2 1035   1.863   4.631  16.800  0.2593  0.2355 -0.5346
    9DOPE   HN3 1036   1.800   4.501  16.722  0.9733 -0.5307  1.5306
    9DOPE   C12 1037   1.687   4.558  16.879 -0.4857 -0.0673 -0.5568
    9DOPE  H12A 1038   1.758   4.517  16.954 -0.6778  1.3328  0.4298
    9DOPE  H12B 1039   1.611   4.484  16.845 -0.0952 -0.9277  0.3691
    9DOPE   C11 1040   1.604   4.676  16.932  0.1758  0.3587 -0.6884
    9DOPE  H11A 1041   1.538   4.641  17.014 -1.2241  1.3870 -1.3236
    9DOPE  H11B 1042   1.529   4.704  16.855  0.3687  0.9908 -0.6521
    9DOPE     P 1043   1.658   4.902  17.059 -0.6235  0.1134 -0.0749
    9DOPE   O13 1044   1.763   5.006  17.052  0.4831  0.3151 -0.5107
    9DOPE   O14 1045   1.631   4.859  17.194  0.0757  0.5262 -0.1116
    9DOPE   O11 1046   1.525   4.958  16.996  0.4221 -0.1650 -0.6141
    9DOPE   O12 1047   1.697   4.781  16.968 -0.0021 -0.3349 -0.0719
    9DOPE    C1 1048   1.528   5.077  16.911  0.3254  0.3399 -0.4529
    9DOPE    HA 1049   1.622   5.136  16.923  1.5798 -0.9057 -3.2396
    9DOPE    HB 1050   1.439   5.139  16.935  0.0341 -0.8667  1.8095
    9DOPE    C2 1051   1.518   5.029  16.763  0.7992 -0.1008  0.6076
    9DOPE    HS 1052   1.479   5.115  16.704 -0.8687 -0.5804  0.9569
    9DOPE   O21 1053   1.432   4.912  16.754  0.6257  0.4860 -0.1270
    9DOPE   C21 1054   1.305   4.935  16.787 -0.0170  1.1088  0.0229
    9DOPE   O22 1055   1.249   5.038  16.817 -0.6414  0.6326 -0.0074
    9DOPE   C22 1056   1.238   4.794  16.796  0.3993 -0.0312 -0.7613
    9DOPE   H2R 1057   1.192   4.810  16.895 -2.3829  0.9026 -2.0997
    9DOPE   H2S 1058   1.311   4.710  16.799  0.4084  0.0022  0.8040
    9DOPE    C3 1059   1.660   5.001  16.704  0.2064  0.2902 -0.3458
    9DOPE    HX 1060   1.715   4.925  16.763 -1.4899 -1.3627 -0.8106
    9DOPE    HY 1061   1.724   5.090  16.720  0.8496  0.0418 -1.4272
    9DOPE   O31 1062   1.659   4.985  16.566 -0.2067 -0.4308  0.4724
    9DOPE   C31 1063   1.657   4.864  16.519 -0.6328  0.6988 -0.3903
    9DOPE   O32 1064   1.660   4.760  16.584  0.6554 -0.1159 -0.4963
    9DOPE   C32 1065   1.651   4.856  16.368  0.1849 -0.0820 -0.3465
    9DOPE   H2X 1066   1.616   4.953  16.325  1.7405 -0.5970 -3.0191
    9DOPE   H2Y 1067   1.758   4.850  16.339  0.5205  2.4524  0.0560
    9DOPE   C23 1068   1.132   4.761  16.689 -0.5008 -0.1631 -0.0145
    9DOPE   H3R 1069   1.070   4.852  16.677  0.6701  0.8049  0.9761
    9DOPE   H3S 1070   1.057   4.686  16.722 -0.9717 -0.2639 -1.2823
    9DOPE   C24 1071   1.197   4.731  16.553 -0.1455  0.2829 -0.3698
    9DOPE   H4R 1072   1.249   4.636  16.576  0.2762  0.9518  1.5802
    9DOPE   H4S 1073   1.268   4.806  16.511  1.0483  0.5002  1.9013
    9DOPE   C25 1074   1.094   4.710  16.448  0.1601 -0.0197  0.4696
    9DOPE   H5R 1075   1.031   4.801  16.431 -1.6412 -1.0020  1.5938
    9DOPE   H5S 1076   1.018   4.637  16.484 -1.6976  1.1534 -0.8260
    9DOPE   C26 1077   1.157   4.680  16.312 -0.0813  0.1992  0.0226
    9DOPE   H6R 1078   1.216   4.585  16.317 -0.7984 -0.4751 -2.8366
    9DOPE   H6S 1079   1.233   4.759  16.293 -0.7753  0.4909 -1.6789
    9DOPE   C27 1080   1.064   4.677  16.196  0.1880 -0.7362  0.5201
    9DOPE   H7R 1081   1.009   4.772  16.181  0.2209 -0.8961 -0.7863
    9DOPE   H7S 1082   0.994   4.593  16.217 -0.2684 -0.7899 -1.0685
    9DOPE   C28 1083   1.133   4.657  16.057 -0.4319 -0.4083 -0.3449
    9DOPE   H8R 1084   1.206   4.576  16.079  0.1889 -0.1584 -1.3996
    9DOPE   H8S 1085   1.197   4.748  16.051 -1.6222  0.4527 -0.4150
    9DOPE   C29 1086   1.048   4.629  15.937 -0.4809 -0.3369 -0.8952
    9DOPE   H9R 1087   1.004   4.720  15.893  0.0246 -0.3962 -1.5308
    9DOPE  C210 1088   1.011   4.511  15.886 -0.0419 -0.0304 -0.6081
    9DOPE  H10R 1089   0.953   4.514  15.793  0.6299  0.9592 -1.0065
    9DOPE  C211 1090   1.050   4.371  15.924  0.6994 -0.1436 -0.5772
    9DOPE  H11R 1091   0.998   4.345  16.019 -0.9815  3.6042 -0.2936
    9DOPE  H11S 1092   1.159   4.372  15.945  0.5826 -1.7917  0.2650
    9DOPE  C212 1093   1.008   4.255  15.827  0.2605 -0.3747 -0.4812
    9DOPE  H12R 1094   0.898   4.262  15.814  0.3015  0.3504 -0.4832
    9DOPE  H12S 1095   1.026   4.154  15.870 -0.7056 -0.9222 -1.2971
    9DOPE  C213 1096   1.071   4.260  15.689 -0.3409  0.8561  0.7626
    9DOPE  H13R 1097   1.181   4.255  15.703 -0.3733 -1.3761  0.6227
    9DOPE  H13S 1098   1.037   4.356  15.645 -2.0036  0.7841  1.7980
    9DOPE  C214 1099   1.039   4.144  15.591 -0.1030 -0.1729  0.2373
    9DOPE  H14R 1100   0.930   4.125  15.586 -0.5153  2.2015 -1.4502
    9DOPE  H14S 1101   1.098   4.053  15.616  1.4427  0.5584 -0.6134
    9DOPE  C215 1102   1.072   4.186  15.448 -0.1673 -0.3629 -0.1384
    9DOPE  H15R 1103   1.174   4.225  15.430 -0.2563  0.2643  0.6442
    9DOPE  H15S 1104   1.002   4.272  15.441 -0.5575 -0.6905 -0.3263
    9DOPE  C216 1105   1.048   4.079  15.350  0.1378  1.0735  0.3444
    9DOPE  H16R 1106   1.006   4.118  15.255 -2.2142 -1.0491  0.4116
    9DOPE  H16S 1107   0.953   4.027  15.374 -0.1832  1.3560 -0.2838
    9DOPE  C217 1108   1.163   3.982  15.311 -0.4317  0.1733 -0.2365
    9DOPE  H17R 1109   1.131   3.876  15.320  0.0595  0.0529  0.1894
    9DOPE  H17S 1110   1.242   4.006  15.385 -2.2201 -0.1091  1.8650
    9DOPE  C218 1111   1.211   4.019  15.170  0.5485 -0.4990 -0.1702
    9DOPE  H18R 1112   1.123   4.009  15.102 -0.3152 -2.0661  1.1056
    9DOPE  H18S 1113   1.279   3.935  15.143  1.7027 -0.5875  2.6935
    9DOPE  H18T 1114   1.261   4.118  15.163  0.8870 -0.6745 -0.2413
    9DOPE   C33 1115   1.579   4.738  16.308 -0.0962  0.9535  0.1172
    9DOPE   H3X 1116   1.475   4.726  16.346  0.6903 -1.9116  1.6410
    9DOPE   H3Y 1117   1.623   4.641  16.340 -0.7831  0.5276 -0.1899
    9DOPE   C34 1118   1.589   4.749  16.157 -0.7104 -0.3469 -0.0313
    9DOPE   H4X 1119   1.555   4.845  16.114 -0.1733 -0.5951 -1.0504
    9DOPE   H4Y 1120   1.694   4.745  16.121 -0.4147 -1.4044  0.8998
    9DOPE   C35 1121   1.517   4.633  16.099  0.1800 -0.1881  0.3083
    9DOPE   H5X 1122   1.417   4.617  16.145  0.1141 -0.1494  0.1797
    9DOPE   H5Y 1123   1.573   4.538  16.106 -0.5607 -0.9659 -2.6894
    9DOPE   C36 1124   1.501   4.649  15.945 -0.0692 -0.7244  0.6598
    9DOPE   H6X 1125   1.595   4.689  15.900 -0.7218 -2.0392 -2.0766
    9DOPE   H6Y 1126   1.439   4.740  15.926 -0.1447 -1.1347 -1.2304
    9DOPE   C37 1127   1.456   4.525  15.865 -0.5303 -0.3789 -0.1847
    9DOPE   H7X 1128   1.545   4.461  15.845 -0.1557  0.1959 -0.3896
    9DOPE   H7Y 1129   1.381   4.463  15.918 -0.9680  0.8988  0.7461
    9DOPE   C38 1130   1.399   4.574  15.735 -0.0268 -0.0544  0.2642
    9DOPE   H8X 1131   1.474   4.644  15.693 -0.6064 -0.0098 -0.7321
    9DOPE   H8Y 1132   1.303   4.629  15.741 -1.2047 -2.0383  0.3560
    9DOPE   C39 1133   1.385   4.473  15.618 -0.0195 -0.0974  0.5524
    9DOPE   H9X 1134   1.440   4.380  15.638  1.7831  0.5853 -0.8816
    9DOPE  C310 1135   1.344   4.501  15.494  0.4093 -0.4726 -0.1407
    9DOPE  H10X 1136   1.366   4.429  15.414  0.0158 -0.4135 -0.3031
    9DOPE  C311 1137   1.293   4.630  15.439  0.2608 -0.0284 -0.0843
    9DOPE  H11X 1138   1.205   4.605  15.375 -0.7022 -0.8070  1.4804
    9DOPE  H11Y 1139   1.257   4.687  15.527  1.7634  1.2767 -0.2795
    9DOPE  C312 1140   1.401   4.714  15.375  0.1491  0.3231  0.1996
    9DOPE  H12X 1141   1.472   4.652  15.315 -0.1179  0.4698 -0.2794
    9DOPE  H12Y 1142   1.461   4.756  15.458 -2.4649  0.6538  2.0213
    9DOPE  C313 1143   1.346   4.828  15.289 -0.3302  0.4058  0.0578
    9DOPE  H13X 1144   1.285   4.791  15.203 -3.5469  0.8728  1.9543
    9DOPE  H13Y 1145   1.265   4.878  15.347  0.5591  0.0664  1.6285
    9DOPE  C314 1146   1.443   4.928  15.257  0.4156  0.0137  0.9415
    9DOPE  H14X 1147   1.520   4.868  15.204  0.2854 -1.9160  2.8123
    9DOPE  H14Y 1148   1.497   4.965  15.347  0.1695  1.5397  0.4906
    9DOPE  C315 1149   1.389   5.042  15.176  0.4266  0.2123  0.2113
    9DOPE  H15X 1150   1.314   5.097  15.237 -0.5886 -1.5003  0.5525
    9DOPE  H15Y 1151   1.354   5.007  15.077 -2.2432  3.7964 -0.3441
    9DOPE  C316 1152   1.496   5.152  15.146 -0.2860  0.6128  0.3570
    9DOPE  H16X 1153   1.569   5.117  15.070  0.2421  0.8540  0.7468
    9DOPE  H16Y 1154   1.552   5.173  15.240  0.1740  2.1137 -0.2323
    9DOPE  C317 1155   1.422   5.278  15.097  0.2393 -0.6103  0.3854
    9DOPE  H17X 1156   1.488   5.318  15.017 -1.6200  0.7135 -0.5666
    9DOPE  H17Y 1157   1.331   5.250  15.039 -0.0256 -2.5731  1.6536
    9DOPE  C318 1158   1.390   5.391  15.198 -0.0469  0.0786 -0.1982
    9DOPE  H18X 1159   1.480   5.432  15.250  0.9664 -0.6578 -1.3068
    9DOPE  H18Y 1160   1.335   5.472  15.145 -0.3810 -0.7863 -1.2068
    9DOPE  H18Z 1161   1.321   5.349  15.274  0.1132  0.8075  0.3668
   10DOPE     N 1162   2.240   6.607  16.916 -0.1163 -0.2220  0.2636
   10DOPE   HN1 1163   2.170   6.642  16.847 -0.3820 -1.6524 -0.2219
   10DOPE   HN2 1164   2.316   6.678  16.918 -0.6303  0.4107 -1.0785
   10DOPE   HN3 1165   2.278   6.519  16.876  0.4796  0.2759 -0.2933
   10DOPE   C12 1166   2.189   6.576  17.049 -0.7364  0.6128 -0.0171
   10DOPE  H12A 1167   2.101   6.641  17.072 -0.1744  1.9413 -1.4466
   10DOPE  H12B 1168   2.268   6.590  17.126 -0.8978  1.4265  0.0145
   10DOPE   C11 1169   2.137   6.434  17.049  0.1302  0.1907 -0.1555
   10DOPE  H11A 1170   2.059   6.426  16.971  2.9678 -1.2726 -3.0651
   10DOPE  H11B 1171   2.092   6.400  17.145 -1.5659 -1.0530 -1.3276
   10DOPE     P 1172   2.209   6.190  17.025 -0.1287 -0.0339 -0.6041
   10DOPE   O13 1173   2.207   6.143  17.169 -0.4433  0.0996 -0.4086
   10DOPE   O14 1174   2.295   6.116  16.935 -0.3764  0.1520 -0.0504
   10DOPE   O11 1175   2.060   6.186  16.973  0.1199 -0.6269  0.1033
   10DOPE   O12 1176   2.245   6.345  17.019  0.2180  0.3270  0.3097
   10DOPE    C1 1177   2.035   6.143  16.837  0.2267  0.0896 -0.2159
   10DOPE    HA 1178   2.112   6.176  16.764 -0.1982  0.4697 -0.5034
   10DOPE    HB 1179   1.936   6.178  16.799 -0.3532  1.3703  2.2584
   10DOPE    C2 1180   2.020   5.986  16.824  0.3053 -0.5515  0.5352
   10DOPE    HS 1181   2.111   5.937  16.866 -1.2665 -2.4387  1.9110
   10DOPE   O21 1182   2.011   5.963  16.684 -0.1719 -0.2574  0.5806
   10DOPE   C21 1183   2.023   5.835  16.648  0.2518  1.2101  0.1862
   10DOPE   O22 1184   2.039   5.739  16.721 -0.1117  0.0387  0.2444
   10DOPE   C22 1185   2.031   5.829  16.495  0.4468 -0.3520 -0.5438
   10DOPE   H2R 1186   2.048   5.927  16.445  0.5304  0.2394  0.6233
   10DOPE   H2S 1187   1.933   5.789  16.459  1.2606 -3.9210  0.8401
   10DOPE    C3 1188   1.891   5.929  16.901 -0.2092 -0.6641 -0.7495
   10DOPE    HX 1189   1.909   5.963  17.006  0.3275  1.0254 -1.3531
   10DOPE    HY 1190   1.902   5.819  16.895  0.0779 -0.5506 -3.6775
   10DOPE   O31 1191   1.773   5.995  16.849 -0.5091  0.6766 -0.0502
   10DOPE   C31 1192   1.705   5.916  16.757 -0.3470  0.7315 -0.2365
   10DOPE   O32 1193   1.736   5.799  16.730  0.3661  0.1893 -0.2612
   10DOPE   C32 1194   1.590   5.997  16.691 -0.3530  0.3614  0.5425
   10DOPE   H2X 1195   1.540   6.047  16.777  0.8443  2.8650 -0.1197
   10DOPE   H2Y 1196   1.629   6.067  16.614  0.5041 -0.7009 -0.0206
   10DOPE   C23 1197   2.148   5.734  16.464 -0.2550 -0.3509 -0.0628
   10DOPE   H3R 1198   2.128   5.638  16.516 -2.7423  1.2709  2.2550
   10DOPE   H3S 1199   2.249   5.774  16.491 -0.0432 -0.3661 -0.8255
   10DOPE   C24 1200   2.164   5.726  16.307 -0.1348  0.4773  0.1775
   10DOPE   H4R 1201   2.258   5.780  16.283  0.7226 -0.9697  0.1292
   10DOPE   H4S 1202   2.080   5.774  16.253  0.0801 -0.0471 -0.6539
   10DOPE   C25 1203   2.176   5.579  16.258 -0.0293 -0.2072  1.3658
   10DOPE   H5R 1204   2.093   5.521  16.303  0.2415  0.0247  2.1794
   10DOPE   H5S 1205   2.269   5.545  16.309 -0.4818 -1.6115  1.2893
   10DOPE   C26 1206   2.202   5.564  16.107 -0.2247 -0.3613  0.5853
   10DOPE   H6R 1207   2.291   5.627  16.089  0.1839 -0.7967  1.0623
   10DOPE   H6S 1208   2.108   5.600  16.059 -0.7141  0.4377  2.0561
   10DOPE   C27 1209   2.231   5.420  16.054  0.5589 -0.4171 -0.0060
   10DOPE   H7R 1210   2.138   5.359  16.060  0.9914 -1.0663  0.2247
   10DOPE   H7S 1211   2.299   5.375  16.129  0.7343 -0.6516 -0.3064
   10DOPE   C28 1212   2.293   5.412  15.912  0.3967  0.2441  0.7217
   10DOPE   H8R 1213   2.339   5.313  15.895  1.6037  0.8856  0.0569
   10DOPE   H8S 1214   2.383   5.478  15.916  0.3770  0.3378 -0.2044
   10DOPE   C29 1215   2.186   5.452  15.810 -0.4381  0.9854  0.1559
   10DOPE   H9R 1216   2.146   5.552  15.831 -1.2128  0.6320  0.4074
   10DOPE  C210 1217   2.144   5.383  15.702  0.2053  0.2347  0.1712
   10DOPE  H10R 1218   2.050   5.408  15.649  1.2387  2.3534 -0.7393
   10DOPE  C211 1219   2.199   5.246  15.665  0.0603 -0.1767  0.2407
   10DOPE  H11R 1220   2.133   5.169  15.711 -0.9559  0.7141  0.3098
   10DOPE  H11S 1221   2.302   5.232  15.705  0.5120  1.4768 -0.2417
   10DOPE  C212 1222   2.210   5.231  15.512 -0.5348 -0.2289 -0.4648
   10DOPE  H12R 1223   2.108   5.232  15.469  0.1509 -0.1550 -2.1440
   10DOPE  H12S 1224   2.259   5.133  15.490 -1.1551 -1.0537  1.5517
   10DOPE  C213 1225   2.289   5.343  15.435 -0.0182 -0.2968 -0.3454
   10DOPE  H13R 1226   2.389   5.365  15.478 -0.0494 -1.4524  0.3540
   10DOPE  H13S 1227   2.229   5.436  15.446  1.8111  0.6873  2.2592
   10DOPE  C214 1228   2.299   5.321  15.279  0.4690 -0.0085 -0.1734
   10DOPE  H14R 1229   2.198   5.306  15.235  0.8729 -0.6844 -0.8820
   10DOPE  H14S 1230   2.356   5.230  15.251 -0.1911 -0.3995 -0.2718
   10DOPE  C215 1231   2.357   5.432  15.195 -0.1148 -0.3298 -0.2074
   10DOPE  H15R 1232   2.447   5.453  15.256 -0.8234 -2.4137  1.6427
   10DOPE  H15S 1233   2.284   5.517  15.198 -0.7285 -0.7436 -1.9293
   10DOPE  C216 1234   2.381   5.390  15.046 -0.3650  0.1667 -0.0075
   10DOPE  H16R 1235   2.449   5.302  15.051 -0.9070 -0.2505  0.1288
   10DOPE  H16S 1236   2.442   5.467  14.995  0.2471  0.6747  1.4495
   10DOPE  C217 1237   2.252   5.361  14.971 -0.6896  0.4714  0.4491
   10DOPE  H17R 1238   2.181   5.446  14.987 -3.3211 -1.9384  2.6114
   10DOPE  H17S 1239   2.194   5.274  15.009 -2.6554  2.0819  1.3252
   10DOPE  C218 1240   2.274   5.341  14.824  0.0845  0.3216 -0.0283
   10DOPE  H18R 1241   2.363   5.391  14.779  1.0247 -1.6961 -0.5176
   10DOPE  H18S 1242   2.182   5.370  14.769 -0.6299 -2.1170 -0.2343
   10DOPE  H18T 1243   2.313   5.240  14.799  0.0262 -0.3670  2.4551
   10DOPE   C33 1244   1.486   5.903  16.624 -0.0814 -0.0264 -0.2727
   10DOPE   H3X 1245   1.394   5.966  16.619  1.2177  2.1013  0.8489
   10DOPE   H3Y 1246   1.455   5.818  16.687  2.3383  0.1980  1.3405
   10DOPE   C34 1247   1.520   5.852  16.482 -0.1635  0.0169  0.3913
   10DOPE   H4X 1248   1.551   5.927  16.406 -1.3420 -0.2878 -0.4354
   10DOPE   H4Y 1249   1.619   5.802  16.479  0.2898  0.9277 -0.7126
   10DOPE   C35 1250   1.417   5.756  16.422 -0.4322 -0.1646  0.5364
   10DOPE   H5X 1251   1.320   5.807  16.435  0.8801  2.5134  0.5721
   10DOPE   H5Y 1252   1.409   5.660  16.477 -1.4584 -2.4247 -3.1415
   10DOPE   C36 1253   1.433   5.735  16.269 -0.2512  0.2317 -0.2348
   10DOPE   H6X 1254   1.535   5.699  16.247 -0.1182 -0.8647  1.9756
   10DOPE   H6Y 1255   1.423   5.832  16.214 -0.2993 -0.0971 -0.8120
   10DOPE   C37 1256   1.339   5.628  16.220 -0.3744 -0.5182  0.0307
   10DOPE   H7X 1257   1.351   5.530  16.271 -3.2314 -1.3384 -0.6900
   10DOPE   H7Y 1258   1.231   5.648  16.242  0.0005  1.4360  0.2941
   10DOPE   C38 1259   1.340   5.623  16.069  0.8460  0.1666 -0.2428
   10DOPE   H8X 1260   1.320   5.725  16.028 -1.1000 -0.9386 -2.2677
   10DOPE   H8Y 1261   1.248   5.567  16.043  1.4040 -0.6788 -0.4257
   10DOPE   C39 1262   1.458   5.545  16.002 -0.2642 -0.1790 -0.0035
   10DOPE   H9X 1263   1.448   5.435  16.005  1.7398 -0.4079 -0.4180
   10DOPE  C310 1264   1.567   5.597  15.953 -0.1197 -0.8827  0.1178
   10DOPE  H10X 1265   1.637   5.534  15.896 -1.5871 -2.9337  0.4536
   10DOPE  C311 1266   1.606   5.738  15.943 -0.4257 -0.3256  0.1405
   10DOPE  H11X 1267   1.537   5.806  15.998  1.5879  2.8659 -1.0205
   10DOPE  H11Y 1268   1.711   5.755  15.977 -0.1855  0.3133 -0.8973
   10DOPE  C312 1269   1.612   5.787  15.795  0.2380  0.0271  0.2638
   10DOPE  H12X 1270   1.503   5.783  15.772 -0.0596  1.7896  1.1858
   10DOPE  H12Y 1271   1.664   5.728  15.718 -1.0483 -0.4617 -0.2610
   10DOPE  C313 1272   1.658   5.930  15.790  0.2627 -0.5375  0.2859
   10DOPE  H13X 1273   1.595   5.996  15.853  1.1738  0.8966 -0.2717
   10DOPE  H13Y 1274   1.759   5.949  15.832 -0.0747  2.3721 -0.0541
   10DOPE  C314 1275   1.676   5.982  15.645 -0.1056  0.2642 -0.0391
   10DOPE  H14X 1276   1.584   5.967  15.584  1.1733  0.2112 -2.0545
   10DOPE  H14Y 1277   1.750   5.915  15.596  0.7302  1.2703 -0.1586
   10DOPE  C315 1278   1.735   6.119  15.637  0.2543 -0.3208 -0.2547
   10DOPE  H15X 1279   1.839   6.121  15.675  0.2350  3.2306 -0.0388
   10DOPE  H15Y 1280   1.671   6.182  15.703  0.1899 -2.7472  2.2126
   10DOPE  C316 1281   1.725   6.183  15.498 -0.4348  1.1170 -0.0078
   10DOPE  H16X 1282   1.617   6.177  15.473 -0.5115  3.6397 -0.4590
   10DOPE  H16Y 1283   1.775   6.112  15.429 -2.5855 -1.8332  1.2497
   10DOPE  C317 1284   1.788   6.328  15.478  0.6123  0.3036  0.0831
   10DOPE  H17X 1285   1.745   6.375  15.387  2.1660  2.4327  0.3538
   10DOPE  H17Y 1286   1.753   6.397  15.558 -0.1000  0.1343 -0.0753
   10DOPE  C318 1287   1.937   6.328  15.479  0.2951  0.0506 -0.6792
   10DOPE  H18X 1288   1.976   6.408  15.413 -0.7061 -2.2085 -4.3298
   10DOPE  H18Y 1289   1.968   6.340  15.585 -0.4706  0.4726 -0.4977
   10DOPE  H18Z 1290   1.980   6.234  15.438  1.2493  0.0608  0.2689
   11DOPE     N 1291   0.707   3.035  16.780 -0.2395  0.3193  0.5739
   11DOPE   HN1 1292   0.648   3.117  16.804 -0.8086  0.3394 -0.8121
   11DOPE   HN2 1293   0.750   3.057  16.688 -0.1595 -1.3847  0.1712
   11DOPE   HN3 1294   0.638   2.959  16.766 -0.4133  0.2420  1.7029
   11DOPE   C12 1295   0.798   3.005  16.899  0.2879 -0.7382  0.2544
   11DOPE  H12A 1296   0.809   2.895  16.909  0.3848 -0.8601 -1.0161
   11DOPE  H12B 1297   0.742   3.048  16.985 -0.0940  3.9405 -2.0587
   11DOPE   C11 1298   0.931   3.080  16.895  0.2830  0.3240  0.4288
   11DOPE  H11A 1299   1.005   3.030  16.830  0.6934  0.7228  0.5852
   11DOPE  H11B 1300   0.971   3.087  16.999 -1.0501  1.7979  0.9033
   11DOPE     P 1301   0.987   3.340  16.898  0.4294  0.2559 -0.0181
   11DOPE   O13 1302   1.096   3.296  16.990 -0.0351 -0.2621  0.0111
   11DOPE   O14 1303   0.883   3.439  16.937  0.1389  0.2528 -0.0502
   11DOPE   O11 1304   1.043   3.407  16.764  0.6339 -0.2166 -0.2494
   11DOPE   O12 1305   0.904   3.212  16.841 -0.4259 -0.2169  0.0512
   11DOPE    C1 1306   1.143   3.343  16.687  0.3772 -0.2703  0.1312
   11DOPE    HA 1307   1.208   3.278  16.748 -0.9379 -0.8811  0.9253
   11DOPE    HB 1308   1.205   3.413  16.627 -0.2233  0.5491  0.4472
   11DOPE    C2 1309   1.075   3.253  16.570 -0.6696 -0.5829  0.2323
   11DOPE    HS 1310   1.046   3.161  16.624 -0.6871 -1.0301 -0.5276
   11DOPE   O21 1311   1.173   3.219  16.471 -0.3489 -0.0167 -0.0778
   11DOPE   C21 1312   1.165   3.099  16.422  0.1417 -0.2510  0.2790
   11DOPE   O22 1313   1.078   3.017  16.450 -0.3974  0.0536 -0.0122
   11DOPE   C22 1314   1.292   3.065  16.351 -0.4332 -0.0743 -0.3709
   11DOPE   H2R 1315   1.291   2.957  16.325 -1.3655 -0.3332  0.6708
   11DOPE   H2S 1316   1.370   3.080  16.428 -1.1730  1.0724  0.1819
   11DOPE    C3 1317   0.948   3.317  16.501 -0.8976 -0.0798 -0.6725
   11DOPE    HX 1318   0.974   3.417  16.459  1.3366 -0.6223 -0.7303
   11DOPE    HY 1319   0.873   3.346  16.577 -2.8793 -0.8327 -2.2509
   11DOPE   O31 1320   0.893   3.236  16.396 -0.0618  0.8213 -0.0131
   11DOPE   C31 1321   0.802   3.143  16.434 -0.2982 -0.3176 -0.1391
   11DOPE   O32 1322   0.752   3.138  16.542  0.2455  0.3368 -0.6538
   11DOPE   C32 1323   0.766   3.063  16.309  0.1081  0.7378  0.8876
   11DOPE   H2X 1324   0.753   3.135  16.225  1.5503  0.2321  0.1899
   11DOPE   H2Y 1325   0.861   3.012  16.279  0.7523  1.8759  0.9344
   11DOPE   C23 1326   1.336   3.167  16.241 -0.3504  0.1059 -0.0737
   11DOPE   H3R 1327   1.446   3.169  16.259 -0.2741 -1.8616 -0.0435
   11DOPE   H3S 1328   1.284   3.264  16.242 -1.3243 -0.3606 -1.5701
   11DOPE   C24 1329   1.321   3.106  16.102 -0.1665  1.0680  0.2341
   11DOPE   H4R 1330   1.387   3.017  16.099 -1.2863  0.2304  0.0672
   11DOPE   H4S 1331   1.349   3.185  16.029 -1.4040 -0.1356 -1.6018
   11DOPE   C25 1332   1.176   3.054  16.062 -0.2001  0.2132 -0.0291
   11DOPE   H5R 1333   1.145   2.965  16.120 -0.2724  0.8788  0.9696
   11DOPE   H5S 1334   1.183   3.021  15.956 -1.1171  1.8885 -0.6510
   11DOPE   C26 1335   1.083   3.176  16.066 -0.1146  0.0195  0.1128
   11DOPE   H6R 1336   1.126   3.255  16.001 -0.1196 -0.6238 -0.6888
   11DOPE   H6S 1337   1.076   3.224  16.166 -1.6393  1.3898 -0.6000
   11DOPE   C27 1338   0.947   3.139  16.003 -0.3767  0.2306  0.2760
   11DOPE   H7R 1339   0.908   3.053  16.061 -0.9069 -0.2253 -0.7130
   11DOPE   H7S 1340   0.955   3.107  15.896 -0.4409  0.3453  0.2357
   11DOPE   C28 1341   0.845   3.255  15.991  0.1811  0.1788  0.2940
   11DOPE   H8R 1342   0.893   3.337  15.933 -0.3011 -1.4243 -2.5087
   11DOPE   H8S 1343   0.813   3.290  16.092 -2.3355 -0.4773 -0.2095
   11DOPE   C29 1344   0.716   3.216  15.921  0.2848 -0.2283 -0.1161
   11DOPE   H9R 1345   0.643   3.155  15.976  1.1583  0.4306  1.8690
   11DOPE  C210 1346   0.685   3.257  15.791 -0.2991  0.1965 -0.9711
   11DOPE  H10R 1347   0.586   3.223  15.758 -0.8453 -0.3939  1.0917
   11DOPE  C211 1348   0.769   3.335  15.699 -0.0943 -0.4156  0.0457
   11DOPE  H11R 1349   0.842   3.403  15.750  1.4274 -2.1073  0.2084
   11DOPE  H11S 1350   0.699   3.399  15.641  0.2827  0.3168  0.3859
   11DOPE  C212 1351   0.853   3.250  15.609 -0.4023  0.2474 -0.6523
   11DOPE  H12R 1352   0.778   3.197  15.547  0.4180 -1.4236 -0.2811
   11DOPE  H12S 1353   0.905   3.168  15.664 -1.1602  0.4340  0.3688
   11DOPE  C213 1354   0.944   3.323  15.510 -0.6080 -0.0385 -0.2406
   11DOPE  H13R 1355   1.019   3.253  15.467 -0.1198  0.0394  0.4787
   11DOPE  H13S 1356   1.007   3.399  15.561  0.4622 -1.4024  0.5404
   11DOPE  C214 1357   0.868   3.393  15.394 -0.6214  0.4164  1.0921
   11DOPE  H14R 1358   0.789   3.459  15.436 -0.7283  1.2165 -0.2879
   11DOPE  H14S 1359   0.822   3.315  15.330  0.1001  0.6738  0.2299
   11DOPE  C215 1360   0.963   3.492  15.312  0.3991  0.0526 -0.7277
   11DOPE  H15R 1361   1.054   3.429  15.301  0.8790  0.2187  1.7255
   11DOPE  H15S 1362   0.988   3.581  15.374 -1.5124  1.1015 -1.3979
   11DOPE  C216 1363   0.898   3.531  15.184  0.5630  0.4513 -0.5050
   11DOPE  H16R 1364   0.802   3.582  15.209  0.2910  0.7431 -2.0499
   11DOPE  H16S 1365   0.872   3.444  15.121  2.3018  1.2771 -2.4800
   11DOPE  C217 1366   0.977   3.641  15.115  0.0380 -0.0467 -0.2827
   11DOPE  H17R 1367   0.991   3.735  15.173  0.5189  0.9118 -1.8663
   11DOPE  H17S 1368   0.913   3.673  15.030  3.0425  0.9805 -2.3492
   11DOPE  C218 1369   1.112   3.597  15.054  0.5480  0.6846 -0.2347
   11DOPE  H18R 1370   1.201   3.626  15.114 -0.4131 -0.7518  2.0070
   11DOPE  H18S 1371   1.119   3.644  14.953  0.0488  1.6056  0.1482
   11DOPE  H18T 1372   1.102   3.487  15.042 -3.2661  0.5578  2.4622
   11DOPE   C33 1373   0.653   2.958  16.330  0.3463  0.2099  0.1110
   11DOPE   H3X 1374   0.666   2.889  16.417 -0.8459 -0.6983 -0.4010
   11DOPE   H3Y 1375   0.650   2.893  16.240 -1.0727  0.9658 -0.4298
   11DOPE   C34 1376   0.511   3.029  16.339 -0.2098  1.0141  0.9393
   11DOPE   H4X 1377   0.431   2.955  16.363  1.1310 -0.6573  0.4205
   11DOPE   H4Y 1378   0.518   3.106  16.419  0.3036  0.5955  1.3081
   11DOPE   C35 1379   0.466   3.098  16.210  0.3825 -0.0946  0.0400
   11DOPE   H5X 1380   0.523   3.193  16.199 -1.0631  0.8309  0.3720
   11DOPE   H5Y 1381   0.364   3.132  16.236  0.2175  0.3277 -1.1085
   11DOPE   C36 1382   0.461   3.009  16.093  0.0116 -0.2777 -0.0919
   11DOPE   H6X 1383   0.413   2.914  16.123  1.7810 -1.8144 -1.8966
   11DOPE   H6Y 1384   0.565   2.986  16.061  0.1865  0.9966 -0.4984
   11DOPE   C37 1385   0.385   3.076  15.980  0.0987 -0.4659  0.8937
   11DOPE   H7X 1386   0.277   3.076  16.007 -0.0600 -1.7985  0.3239
   11DOPE   H7Y 1387   0.423   3.181  15.974  0.5365 -0.6392  0.5643
   11DOPE   C38 1388   0.423   3.012  15.849  0.6814 -0.4370 -0.8601
   11DOPE   H8X 1389   0.532   2.989  15.850  0.3329 -2.2419 -0.7280
   11DOPE   H8Y 1390   0.395   3.081  15.766 -2.3578 -0.8089 -0.2467
   11DOPE   C39 1391   0.353   2.880  15.817  0.0807 -0.5525  0.2198
   11DOPE   H9X 1392   0.389   2.785  15.857 -1.8179 -1.7748 -0.8187
   11DOPE  C310 1393   0.245   2.860  15.733 -0.9196  0.3634 -0.1016
   11DOPE  H10X 1394   0.210   2.758  15.711  0.7919 -0.2686 -0.0832
   11DOPE  C311 1395   0.173   2.971  15.666 -0.5410 -0.0417  0.0071
   11DOPE  H11X 1396   0.194   3.069  15.714  1.7980 -1.0183  1.0669
   11DOPE  H11Y 1397   0.187   2.971  15.556  0.6769 -2.3414  0.1109
   11DOPE  C312 1398   0.023   2.948  15.674  0.1985  0.5138  0.5887
   11DOPE  H12X 1399   0.004   2.853  15.621 -1.5552  0.9805  0.3293
   11DOPE  H12Y 1400  -0.026   3.025  15.611  1.0281 -0.2984 -1.1143
   11DOPE  C313 1401  -0.036   2.954  15.819 -0.5042 -0.3317 -0.2117
   11DOPE  H13X 1402   0.038   2.917  15.893 -0.8968  1.0057  0.8817
   11DOPE  H13Y 1403  -0.043   3.060  15.849 -1.4519  0.3454 -2.5683
   11DOPE  C314 1404  -0.166   2.890  15.815 -0.2174  0.1719  0.0287
   11DOPE  H14X 1405  -0.156   2.785  15.781  1.0844 -0.1790  1.4147
   11DOPE  H14Y 1406  -0.234   2.934  15.739  0.8402 -1.6025 -2.0574
   11DOPE  C315 1407  -0.252   2.895  15.946 -0.3118  0.2978  0.8981
   11DOPE  H15X 1408  -0.287   2.999  15.965 -2.8149 -0.3028 -0.0599
   11DOPE  H15Y 1409  -0.192   2.870  16.036  0.9564 -0.9893 -0.2491
   11DOPE  C316 1410  -0.376   2.802  15.938 -0.3861  0.2654  0.2401
   11DOPE  H16X 1411  -0.376   2.732  15.852 -1.9926 -1.2597  1.3923
   11DOPE  H16Y 1412  -0.465   2.867  15.927  0.2142  0.9371 -0.7023
   11DOPE  C317 1413  -0.390   2.720  16.066  0.2663  0.2230  0.0458
   11DOPE  H17X 1414  -0.301   2.657  16.084  0.7462  0.8009 -0.2635
   11DOPE  H17Y 1415  -0.396   2.801  16.143 -2.1003  0.9020 -0.7730
   11DOPE  C318 1416  -0.518   2.628  16.067 -0.4496 -0.2055  0.3062
   11DOPE  H18X 1417  -0.519   2.557  16.152  1.9092 -2.0101 -1.0419
   11DOPE  H18Y 1418  -0.607   2.693  16.084 -0.4000 -0.5956  2.3093
   11DOPE  H18Z 1419  -0.531   2.567  15.975  0.3462 -1.9856  1.3216
   12DOPE     N 1420   3.383   6.374  17.105 -0.3402 -0.2094  0.7070
   12DOPE   HN1 1421   3.322   6.436  17.046 -0.8113  0.1555  1.5596
   12DOPE   HN2 1422   3.322   6.292  17.125  0.0721  0.0477  3.2096
   12DOPE   HN3 1423   3.388   6.413  17.201  0.5599  1.3104  0.0732
   12DOPE   C12 1424   3.514   6.333  17.040 -0.1258 -0.9588  0.7484
   12DOPE  H12A 1425   3.494   6.273  16.949  2.6543 -2.2225  0.8395
   12DOPE  H12B 1426   3.567   6.270  17.116  2.5256  2.8111  2.3641
   12DOPE   C11 1427   3.591   6.463  17.008 -0.4493  1.6728 -0.1656
   12DOPE  H11A 1428   3.674   6.438  16.938  0.0491  0.6895  0.7472
   12DOPE  H11B 1429   3.627   6.501  17.106 -0.3336  2.1630 -0.3944
   12DOPE     P 1430   3.605   6.698  16.895 -0.2457 -0.2976 -0.2042
   12DOPE   O13 1431   3.706   6.729  17.000  0.1268  0.0726 -0.1847
   12DOPE   O14 1432   3.512   6.805  16.849 -0.5820 -0.0446  0.2142
   12DOPE   O11 1433   3.684   6.648  16.768  0.2218 -0.1041  0.1705
   12DOPE   O12 1434   3.512   6.566  16.942 -0.3010  0.1492  0.7904
   12DOPE    C1 1435   3.611   6.604  16.655  0.8497  0.0020 -0.0767
   12DOPE    HA 1436   3.503   6.617  16.673  0.5535  0.4552 -1.9706
   12DOPE    HB 1437   3.621   6.493  16.649  2.1220 -0.1412  2.8665
   12DOPE    C2 1438   3.659   6.668  16.526 -0.3114 -0.4576 -0.3365
   12DOPE    HS 1439   3.590   6.749  16.494 -0.4968 -0.4747  0.0142
   12DOPE   O21 1440   3.686   6.565  16.424 -0.4302  0.1921  0.2388
   12DOPE   C21 1441   3.579   6.526  16.361 -0.0036  0.0784 -0.1918
   12DOPE   O22 1442   3.469   6.577  16.368 -0.5267 -0.6115 -0.1772
   12DOPE   C22 1443   3.607   6.407  16.283 -0.2325 -0.0844 -0.1870
   12DOPE   H2R 1444   3.608   6.325  16.358  0.1143  1.7637  1.9361
   12DOPE   H2S 1445   3.711   6.423  16.245  0.0630  0.5578  0.8634
   12DOPE    C3 1446   3.789   6.756  16.541  0.1359  0.1066 -0.3427
   12DOPE    HX 1447   3.865   6.689  16.585 -1.5039 -0.5800  1.5924
   12DOPE    HY 1448   3.767   6.840  16.611 -1.9871 -0.0066 -0.7777
   12DOPE   O31 1449   3.825   6.808  16.416 -0.3105  0.2164 -0.0226
   12DOPE   C31 1450   3.949   6.826  16.392 -0.4261  0.6191 -0.8139
   12DOPE   O32 1451   4.040   6.824  16.476  0.3711 -0.4405  0.2727
   12DOPE   C32 1452   3.973   6.853  16.247  0.2467  0.9025  0.2045
   12DOPE   H2X 1453   3.933   6.952  16.215 -0.7581 -0.3153 -2.6917
   12DOPE   H2Y 1454   4.083   6.867  16.240  0.5337 -1.3473 -0.9352
   12DOPE   C23 1455   3.514   6.393  16.162 -0.3093  0.3202  0.8032
   12DOPE   H3R 1456   3.408   6.372  16.190 -0.4198 -1.4624 -0.7967
   12DOPE   H3S 1457   3.554   6.297  16.125 -1.6811  0.4613 -1.2607
   12DOPE   C24 1458   3.518   6.505  16.053 -0.7191 -0.1438 -0.6656
   12DOPE   H4R 1459   3.623   6.540  16.047  0.1227 -2.3047  0.4756
   12DOPE   H4S 1460   3.451   6.590  16.080 -1.0930  0.3727 -2.9579
   12DOPE   C25 1461   3.472   6.461  15.909  0.4097  0.4602 -0.3030
   12DOPE   H5R 1462   3.449   6.555  15.854  1.1491 -0.0598 -1.5390
   12DOPE   H5S 1463   3.379   6.401  15.916  0.4966  0.3527 -0.0709
   12DOPE   C26 1464   3.569   6.371  15.827  0.5073 -0.5798  0.5608
   12DOPE   H6R 1465   3.596   6.283  15.889 -2.8471 -2.2299 -0.1204
   12DOPE   H6S 1466   3.664   6.424  15.803  0.4579 -0.8099 -0.1808
   12DOPE   C27 1467   3.500   6.313  15.705 -0.9443 -0.0911  0.5307
   12DOPE   H7R 1468   3.462   6.392  15.637 -0.2801  1.2150  1.6375
   12DOPE   H7S 1469   3.415   6.256  15.749 -1.9650  0.3441 -0.8148
   12DOPE   C28 1470   3.595   6.211  15.637  0.3436 -0.3387 -0.0555
   12DOPE   H8R 1471   3.532   6.144  15.575  0.9753 -2.3321  1.3379
   12DOPE   H8S 1472   3.648   6.144  15.708 -0.9022  0.5161  1.7600
   12DOPE   C29 1473   3.692   6.273  15.537  0.8351 -0.1316  0.8259
   12DOPE   H9R 1474   3.725   6.374  15.563  0.1689  0.0191  1.1079
   12DOPE  C210 1475   3.728   6.241  15.412 -0.2081  0.1178 -0.1250
   12DOPE  H10R 1476   3.802   6.305  15.362 -1.3376  0.3148 -1.6231
   12DOPE  C211 1477   3.691   6.120  15.333  0.1447  0.2336  0.2048
   12DOPE  H11R 1478   3.612   6.048  15.363  0.8500 -1.1745 -1.1167
   12DOPE  H11S 1479   3.781   6.055  15.332  0.7080  0.9150  2.1785
   12DOPE  C212 1480   3.657   6.159  15.185 -0.7485 -0.3205  0.0042
   12DOPE  H12R 1481   3.597   6.252  15.178  2.5395  1.8564 -2.0246
   12DOPE  H12S 1482   3.598   6.083  15.129 -1.6390  2.2779 -2.8320
   12DOPE  C213 1483   3.783   6.177  15.107 -0.5128 -0.0038 -0.4852
   12DOPE  H13R 1484   3.866   6.110  15.135  0.1341 -0.3806 -3.0847
   12DOPE  H13S 1485   3.823   6.279  15.128  0.8660 -0.3175 -1.4776
   12DOPE  C214 1486   3.754   6.169  14.958 -0.1941 -0.1177  0.3181
   12DOPE  H14R 1487   3.669   6.233  14.923 -0.2774 -1.5401 -2.3215
   12DOPE  H14S 1488   3.726   6.064  14.934  0.0415  0.3402 -2.1935
   12DOPE  C215 1489   3.882   6.210  14.877  0.1953  0.3470  0.0256
   12DOPE  H15R 1490   3.951   6.125  14.895  1.3995  1.1360 -0.6936
   12DOPE  H15S 1491   3.920   6.302  14.926 -1.3205  1.1911 -0.3371
   12DOPE  C216 1492   3.866   6.229  14.726  0.4891  0.1180 -0.1931
   12DOPE  H16R 1493   3.787   6.306  14.718 -0.4234 -0.7906 -0.0751
   12DOPE  H16S 1494   3.825   6.131  14.696 -0.1701  0.3631 -0.1205
   12DOPE  C217 1495   3.985   6.270  14.639  0.2636 -0.5115  0.3261
   12DOPE  H17R 1496   3.975   6.240  14.533 -2.2103  0.1811  0.3188
   12DOPE  H17S 1497   4.073   6.213  14.677 -0.1769 -0.5852  1.2839
   12DOPE  C218 1498   4.021   6.425  14.633  0.5701 -0.2926  1.3253
   12DOPE  H18R 1499   4.103   6.439  14.559  1.8608 -2.3607  2.2550
   12DOPE  H18S 1500   4.044   6.457  14.737  0.4452 -0.0401  1.2736
   12DOPE  H18T 1501   3.932   6.480  14.598  1.1618 -0.3372 -0.3586
   12DOPE   C33 1502   3.918   6.746  16.148  0.0428  0.5512  0.1040
   12DOPE   H3X 1503   3.810   6.741  16.174 -0.0094  2.4773  0.4077
   12DOPE   H3Y 1504   3.959   6.644  16.164  0.4176  0.2098 -2.6053
   12DOPE   C34 1505   3.934   6.789  16.008 -0.8647  0.0226 -0.6022
   12DOPE   H4X 1506   3.898   6.893  16.001 -1.3817 -0.1716 -0.8361
   12DOPE   H4Y 1507   4.039   6.783  15.971 -0.1502  2.0036  0.9529
   12DOPE   C35 1508   3.837   6.717  15.909  0.3012 -1.0710  0.1269
   12DOPE   H5X 1509   3.735   6.718  15.952  0.6325  0.4914  0.9652
   12DOPE   H5Y 1510   3.859   6.608  15.907  2.4454 -0.9246  4.4781
   12DOPE   C36 1511   3.832   6.773  15.766 -0.3752 -0.9368 -0.0173
   12DOPE   H6X 1512   3.940   6.787  15.745 -0.6443 -0.2098 -1.0181
   12DOPE   H6Y 1513   3.778   6.870  15.770 -1.0609 -1.2725 -0.7758
   12DOPE   C37 1514   3.782   6.674  15.666  0.6925  0.3274 -0.0776
   12DOPE   H7X 1515   3.845   6.583  15.677 -0.3641 -0.5039 -0.7546
   12DOPE   H7Y 1516   3.677   6.647  15.692  1.0903 -0.5348  0.6883
   12DOPE   C38 1517   3.788   6.729  15.516 -0.3274  0.7669 -0.5779
   12DOPE   H8X 1518   3.898   6.734  15.497 -0.2663  0.1027 -0.4205
   12DOPE   H8Y 1519   3.742   6.831  15.518 -1.7027  0.2251  2.6825
   12DOPE   C39 1520   3.710   6.652  15.414 -0.5759 -0.1167  0.0067
   12DOPE   H9X 1521   3.602   6.645  15.432 -1.0723 -2.5733 -3.0812
   12DOPE  C310 1522   3.762   6.581  15.311  0.0950  0.3365 -0.5658
   12DOPE  H10X 1523   3.692   6.534  15.240 -0.5510 -0.5933  0.6524
   12DOPE  C311 1524   3.903   6.565  15.263 -0.3359 -0.1199  0.1078
   12DOPE  H11X 1525   3.968   6.635  15.319 -0.3496  1.3022 -1.5641
   12DOPE  H11Y 1526   3.931   6.460  15.283 -1.8381 -0.5597  0.0795
   12DOPE  C312 1527   3.931   6.584  15.113 -0.2140 -0.8504 -0.0065
   12DOPE  H12X 1528   3.864   6.522  15.049  0.6888 -2.2344  0.3363
   12DOPE  H12Y 1529   4.038   6.568  15.090  0.0319  0.8665 -0.1930
   12DOPE  C313 1530   3.909   6.728  15.078  0.0296  0.2197 -0.1352
   12DOPE  H13X 1531   3.799   6.746  15.085 -0.0006  0.9799 -1.9480
   12DOPE  H13Y 1532   3.960   6.803  15.141  1.7310  1.0845 -2.3834
   12DOPE  C314 1533   3.929   6.751  14.924  0.4434 -0.8002 -0.7200
   12DOPE  H14X 1534   3.841   6.697  14.884 -0.4081  0.5192 -0.6722
   12DOPE  H14Y 1535   4.022   6.706  14.883 -0.5526 -3.8923  0.0785
   12DOPE  C315 1536   3.910   6.906  14.892 -0.1963  0.6065 -0.2558
   12DOPE  H15X 1537   3.994   6.963  14.937 -1.1656  1.0604  1.0555
   12DOPE  H15Y 1538   3.817   6.931  14.948 -1.6265  3.1010 -3.3810
   12DOPE  C316 1539   3.892   6.935  14.743 -0.2772 -0.9206  0.1007
   12DOPE  H16X 1540   3.837   6.851  14.696  2.0759 -2.4427 -0.0893
   12DOPE  H16Y 1541   3.990   6.939  14.690  1.8887 -0.9944  3.7328
   12DOPE  C317 1542   3.824   7.072  14.727 -0.2421 -0.5615  0.5486
   12DOPE  H17X 1543   3.728   7.063  14.782 -1.4402  1.1605 -1.1180
   12DOPE  H17Y 1544   3.887   7.148  14.778 -0.2236 -1.3124  1.6864
   12DOPE  C318 1545   3.808   7.115  14.577  0.4448  0.4864  0.0709
   12DOPE  H18X 1546   3.738   7.200  14.560 -3.0080 -1.5038  3.0319
   12DOPE  H18Y 1547   3.911   7.137  14.541  0.1965  0.0943 -0.9110
   12DOPE  H18Z 1548   3.769   7.028  14.521 -0.5776 -1.6141  3.7339
   13DOPE     N 1549   1.874   1.978  16.687 -0.4379  0.6500  0.2219
   13DOPE   HN1 1550   1.798   1.915  16.719  0.4141 -0.4616  0.1192
   13DOPE   HN2 1551   1.935   2.013  16.763  1.6347 -2.2499  0.0475
   13DOPE   HN3 1552   1.822   2.062  16.655  1.1581  1.4808 -0.3031
   13DOPE   C12 1553   1.954   1.895  16.590 -0.3035 -0.0432 -0.2966
   13DOPE  H12A 1554   2.021   1.959  16.528  1.1029  1.2853  2.4097
   13DOPE  H12B 1555   1.889   1.839  16.520  0.6448 -1.6115  0.0447
   13DOPE   C11 1556   2.054   1.790  16.667  0.4192 -0.1783 -0.0865
   13DOPE  H11A 1557   2.137   1.841  16.721 -1.2237  0.6106  1.8230
   13DOPE  H11B 1558   2.102   1.725  16.592  1.4898  0.4747  0.0087
   13DOPE     P 1559   2.068   1.600  16.852 -0.6396  0.0291  0.2264
   13DOPE   O13 1560   1.976   1.507  16.909 -0.3323  0.2191 -0.9601
   13DOPE   O14 1561   2.153   1.678  16.949 -0.1161  0.3903  0.1040
   13DOPE   O11 1562   2.149   1.522  16.736  0.1190 -0.1609  0.5627
   13DOPE   O12 1563   1.983   1.705  16.765  0.3895 -0.4378 -0.4887
   13DOPE    C1 1564   2.242   1.424  16.771  0.3319  0.1215 -0.7275
   13DOPE    HA 1565   2.225   1.342  16.698 -0.1480 -1.1883  0.7966
   13DOPE    HB 1566   2.226   1.379  16.871  2.8980  1.2153  0.2624
   13DOPE    C2 1567   2.397   1.457  16.759  0.6685 -0.2195 -0.3374
   13DOPE    HS 1568   2.421   1.530  16.840 -0.5093  0.1300 -0.2802
   13DOPE   O21 1569   2.428   1.500  16.626  0.0384  0.4231  0.0305
   13DOPE   C21 1570   2.403   1.629  16.600  0.3801 -0.1267  0.2697
   13DOPE   O22 1571   2.398   1.715  16.691 -0.5263  0.4077 -0.0906
   13DOPE   C22 1572   2.365   1.641  16.456  0.2255 -0.0459  0.2723
   13DOPE   H2R 1573   2.268   1.588  16.441  1.0562 -0.7242 -3.9545
   13DOPE   H2S 1574   2.448   1.600  16.395 -0.0061  0.1121 -0.1522
   13DOPE    C3 1575   2.484   1.333  16.796 -0.2250 -0.1200 -0.5296
   13DOPE    HX 1576   2.460   1.307  16.902 -0.7914  0.0962 -0.6021
   13DOPE    HY 1577   2.592   1.357  16.798 -0.1793 -0.3489 -0.0511
   13DOPE   O31 1578   2.447   1.223  16.709 -0.3440 -0.0945 -0.7319
   13DOPE   C31 1579   2.541   1.140  16.673 -0.0618  0.4608  0.1825
   13DOPE   O32 1580   2.655   1.129  16.718  0.3103  0.0033 -0.4038
   13DOPE   C32 1581   2.486   1.046  16.563 -0.5446  0.2054  0.1604
   13DOPE   H2X 1582   2.564   0.986  16.513  0.9786  1.5379  0.8636
   13DOPE   H2Y 1583   2.425   0.979  16.628 -0.8467  0.2483 -0.0769
   13DOPE   C23 1584   2.338   1.784  16.411 -0.5935 -0.4681  0.0183
   13DOPE   H3R 1585   2.426   1.847  16.437 -0.3987 -1.1107  0.9783
   13DOPE   H3S 1586   2.241   1.814  16.455 -1.8683 -1.0565 -2.2395
   13DOPE   C24 1587   2.347   1.795  16.252  0.6967 -0.2534 -0.1718
   13DOPE   H4R 1588   2.446   1.761  16.216  0.4038 -0.5484 -0.7109
   13DOPE   H4S 1589   2.337   1.898  16.212 -1.3948 -0.5612 -0.5460
   13DOPE   C25 1590   2.234   1.700  16.188 -0.5682  0.0492 -0.2516
   13DOPE   H5R 1591   2.208   1.606  16.240 -1.2508  0.1504 -0.4051
   13DOPE   H5S 1592   2.281   1.647  16.101 -1.4215  0.7648 -1.1735
   13DOPE   C26 1593   2.116   1.781  16.138 -0.3614 -0.2750  0.0127
   13DOPE   H6R 1594   2.031   1.712  16.117 -0.9450  0.6638 -0.7987
   13DOPE   H6S 1595   2.126   1.833  16.040 -2.2135  0.1326  0.0145
   13DOPE   C27 1596   2.066   1.887  16.238 -0.1050  0.9302  0.2069
   13DOPE   H7R 1597   2.131   1.977  16.242 -1.4956  1.9493  0.3101
   13DOPE   H7S 1598   2.047   1.846  16.339 -1.4042  2.0884  0.4516
   13DOPE   C28 1599   1.943   1.952  16.174  0.0917 -0.0710 -0.2520
   13DOPE   H8R 1600   1.970   1.968  16.068  1.5382 -0.4231  0.0470
   13DOPE   H8S 1601   1.942   2.049  16.228  0.1584 -1.6478  2.7966
   13DOPE   C29 1602   1.808   1.874  16.181  0.3056 -0.2171  0.9669
   13DOPE   H9R 1603   1.784   1.820  16.275  1.1164  0.8228  1.7938
   13DOPE  C210 1604   1.722   1.846  16.074 -0.1407 -0.2556 -0.1080
   13DOPE  H10R 1605   1.649   1.765  16.091 -0.4437 -0.0208 -0.2701
   13DOPE  C211 1606   1.752   1.886  15.929 -0.6686 -0.1677 -1.3015
   13DOPE  H11R 1607   1.816   1.977  15.927 -0.3677 -0.3817 -1.4478
   13DOPE  H11S 1608   1.660   1.917  15.875 -0.9095 -0.0181 -0.8093
   13DOPE  C212 1609   1.812   1.778  15.838 -0.3821  0.4208 -0.7005
   13DOPE  H12R 1610   1.751   1.685  15.831 -0.2844  0.3985 -1.3419
   13DOPE  H12S 1611   1.915   1.749  15.866 -0.1654  0.5901 -1.3152
   13DOPE  C213 1612   1.825   1.830  15.697 -0.4840  0.2440  0.9709
   13DOPE  H13R 1613   1.868   1.932  15.706 -0.5795  0.2203  1.7885
   13DOPE  H13S 1614   1.724   1.837  15.651  0.6762 -0.0243 -1.7764
   13DOPE  C214 1615   1.910   1.731  15.605 -0.3347 -0.2115  0.0004
   13DOPE  H14R 1616   1.862   1.633  15.624  0.0408 -1.1371 -3.1670
   13DOPE  H14S 1617   2.014   1.729  15.644  0.0779 -3.1189 -0.9579
   13DOPE  C215 1618   1.921   1.766  15.453  0.0347  0.4229 -0.4697
   13DOPE  H15R 1619   1.969   1.864  15.432  0.0355 -0.1059 -3.3147
   13DOPE  H15S 1620   1.817   1.768  15.416  0.0472 -0.1176 -0.5506
   13DOPE  C216 1621   2.007   1.665  15.379 -0.8349  0.5146 -0.6971
   13DOPE  H16R 1622   1.956   1.567  15.388  0.5376 -0.1436  0.2658
   13DOPE  H16S 1623   2.113   1.667  15.413 -0.3025 -1.4593 -2.1089
   13DOPE  C217 1624   2.022   1.709  15.233 -0.5126 -0.1689  0.4858
   13DOPE  H17R 1625   2.093   1.794  15.226  0.9824 -1.4261 -6.2865
   13DOPE  H17S 1626   1.921   1.731  15.191 -0.6227 -0.9822  0.3061
   13DOPE  C218 1627   2.087   1.614  15.141 -0.1155 -0.0762  0.9979
   13DOPE  H18R 1628   2.118   1.655  15.042 -0.4999 -1.5855  0.2142
   13DOPE  H18S 1629   2.029   1.524  15.113 -0.2677  0.9591 -2.5673
   13DOPE  H18T 1630   2.179   1.574  15.190  0.2054 -1.5356 -0.6966
   13DOPE   C33 1631   2.410   1.124  16.450  0.3352 -0.5943 -0.3756
   13DOPE   H3X 1632   2.339   1.193  16.500 -0.5899 -2.5761  1.2311
   13DOPE   H3Y 1633   2.351   1.042  16.404  1.7608 -2.5129  1.0144
   13DOPE   C34 1634   2.512   1.198  16.350  0.4719  0.1841 -0.1201
   13DOPE   H4X 1635   2.592   1.241  16.414 -1.0239 -0.1873  2.1069
   13DOPE   H4Y 1636   2.556   1.125  16.279  1.6991 -0.2844  1.0612
   13DOPE   C35 1637   2.434   1.288  16.257  0.0065  0.1572  0.0370
   13DOPE   H5X 1638   2.396   1.375  16.315  0.8009  0.8973 -0.5276
   13DOPE   H5Y 1639   2.347   1.237  16.212  1.1118 -0.3971 -1.5559
   13DOPE   C36 1640   2.532   1.330  16.145 -0.5497 -0.4124  0.6183
   13DOPE   H6X 1641   2.579   1.239  16.103 -0.1924 -0.9517  2.1405
   13DOPE   H6Y 1642   2.618   1.383  16.191 -1.6375  1.8339  0.2277
   13DOPE   C37 1643   2.463   1.405  16.032  0.4132  0.3070  0.4088
   13DOPE   H7X 1644   2.386   1.333  15.997  1.6556 -0.9402  0.1660
   13DOPE   H7Y 1645   2.428   1.504  16.068  3.7359  1.3316  1.1991
   13DOPE   C38 1646   2.561   1.435  15.916  0.4545 -0.7838 -0.3191
   13DOPE   H8X 1647   2.622   1.349  15.882 -0.9660 -1.1491 -2.0351
   13DOPE   H8Y 1648   2.644   1.483  15.974  0.6846 -0.9792 -0.4856
   13DOPE   C39 1649   2.504   1.515  15.802 -0.4450  0.1636  0.1168
   13DOPE   H9X 1650   2.420   1.475  15.744  0.0491 -0.4933 -0.1655
   13DOPE  C310 1651   2.535   1.644  15.774 -0.0063  0.0637 -0.4172
   13DOPE  H10X 1652   2.499   1.682  15.677 -1.3268  0.3854  0.1726
   13DOPE  C311 1653   2.619   1.738  15.856 -0.0984  0.4347 -0.1375
   13DOPE  H11X 1654   2.550   1.816  15.897 -0.1028 -0.9540  2.7733
   13DOPE  H11Y 1655   2.667   1.695  15.947  1.1185 -0.5634 -1.2164
   13DOPE  C312 1656   2.731   1.809  15.777 -0.2175 -0.2458  0.0629
   13DOPE  H12X 1657   2.678   1.866  15.698 -1.6346 -0.6425  0.6835
   13DOPE  H12Y 1658   2.799   1.736  15.727  0.3139  1.3895 -1.7026
   13DOPE  C313 1659   2.817   1.913  15.863  0.0443  0.0932 -0.3687
   13DOPE  H13X 1660   2.876   1.853  15.934  0.5055 -0.5770 -1.3071
   13DOPE  H13Y 1661   2.894   1.949  15.792 -0.7521  0.7916 -0.9070
   13DOPE  C314 1662   2.748   2.032  15.921  0.3174 -0.7738 -0.1651
   13DOPE  H14X 1663   2.808   2.062  16.010  1.4372 -1.0182 -0.8253
   13DOPE  H14Y 1664   2.648   2.009  15.964  0.4521  1.8621  1.8361
   13DOPE  C315 1665   2.727   2.150  15.834 -0.3368 -0.3399 -0.4436
   13DOPE  H15X 1666   2.634   2.139  15.774 -0.2906  0.6257 -0.7148
   13DOPE  H15Y 1667   2.814   2.148  15.765 -0.5614 -1.0586 -0.7057
   13DOPE  C316 1668   2.728   2.279  15.915 -0.1285  0.5731  0.3059
   13DOPE  H16X 1669   2.654   2.255  15.995 -1.9505  1.5631 -1.0082
   13DOPE  H16Y 1670   2.676   2.359  15.860 -0.9626  1.8582  2.7892
   13DOPE  C317 1671   2.860   2.339  15.974  0.1639  0.4581  0.2272
   13DOPE  H17X 1672   2.824   2.430  16.027 -2.9359 -0.4056 -0.1857
   13DOPE  H17Y 1673   2.901   2.260  16.040 -1.9818 -2.8233 -2.0671
   13DOPE  C318 1674   2.962   2.372  15.863  0.3452 -0.8760 -0.0210
   13DOPE  H18X 1675   3.002   2.281  15.814  0.1320 -0.5533 -0.8208
   13DOPE  H18Y 1676   2.913   2.422  15.777  2.0252  0.9007 -0.0223
   13DOPE  H18Z 1677   3.049   2.424  15.909 -1.0719  1.8445 -0.1615
   14DOPE     N 1678   6.833   5.877  16.969  0.1797  0.1454 -0.0424
   14DOPE   HN1 1679   6.820   5.971  16.927  1.2919  0.1712 -0.3522
   14DOPE   HN2 1680   6.749   5.863  17.029 -0.1967  0.3481 -0.5159
   14DOPE   HN3 1681   6.916   5.878  17.032 -0.7199 -1.1456  1.2169
   14DOPE   C12 1682   6.854   5.769  16.866 -0.6275  0.1135 -0.2165
   14DOPE  H12A 1683   6.960   5.742  16.847 -0.4634  0.3200  0.3678
   14DOPE  H12B 1684   6.796   5.820  16.787 -0.2347 -0.1149 -0.6534
   14DOPE   C11 1685   6.778   5.646  16.905 -0.3778 -0.8552 -0.7671
   14DOPE  H11A 1686   6.813   5.619  17.007 -1.4529 -1.6976 -0.5987
   14DOPE  H11B 1687   6.808   5.559  16.843  0.5937 -1.8909  1.0774
   14DOPE     P 1688   6.553   5.672  16.765 -0.2129 -0.3624 -0.2114
   14DOPE   O13 1689   6.576   5.799  16.694  0.0877 -0.3853 -0.2308
   14DOPE   O14 1690   6.414   5.649  16.805  0.5388 -0.3249 -0.0273
   14DOPE   O11 1691   6.622   5.561  16.691 -0.0121  0.3873 -0.4565
   14DOPE   O12 1692   6.639   5.671  16.903  0.0609  0.2454 -0.2574
   14DOPE    C1 1693   6.601   5.530  16.555 -0.1726  0.1624 -0.3592
   14DOPE    HA 1694   6.691   5.491  16.504 -0.0681 -0.8155  0.5344
   14DOPE    HB 1695   6.578   5.622  16.496 -1.7132 -0.5706 -0.9680
   14DOPE    C2 1696   6.490   5.421  16.547  0.0963 -0.9011 -0.3403
   14DOPE    HS 1697   6.399   5.455  16.601 -0.3883  0.7892 -2.1112
   14DOPE   O21 1698   6.547   5.304  16.606  0.5568 -0.1056  0.6474
   14DOPE   C21 1699   6.453   5.218  16.651 -0.4790  0.4983 -0.2537
   14DOPE   O22 1700   6.332   5.232  16.658  0.1884  0.1360 -0.1274
   14DOPE   C22 1701   6.533   5.093  16.679 -0.0295 -0.4129  0.1676
   14DOPE   H2R 1702   6.573   5.108  16.781 -1.5106 -2.4755  1.1331
   14DOPE   H2S 1703   6.621   5.089  16.611  0.1194  1.5735  0.1898
   14DOPE    C3 1704   6.441   5.401  16.408  0.3352 -0.3180  0.4249
   14DOPE    HX 1705   6.384   5.493  16.383  1.2031  0.1880  0.2627
   14DOPE    HY 1706   6.359   5.327  16.398  0.1015 -0.0324  0.2239
   14DOPE   O31 1707   6.545   5.387  16.318  0.1334  0.1224 -0.4001
   14DOPE   C31 1708   6.512   5.398  16.190  0.7385 -0.1692 -0.6377
   14DOPE   O32 1709   6.396   5.404  16.150 -0.1299  0.0860  0.2219
   14DOPE   C32 1710   6.631   5.384  16.097  0.3679 -1.2099 -0.3679
   14DOPE   H2X 1711   6.655   5.275  16.098  1.0140 -1.0824 -1.4435
   14DOPE   H2Y 1712   6.601   5.414  15.995 -0.7834 -0.2900  0.2112
   14DOPE   C23 1713   6.456   4.952  16.683 -0.1037  0.3112  0.2184
   14DOPE   H3R 1714   6.514   4.878  16.624 -0.4719 -1.8723  2.4184
   14DOPE   H3S 1715   6.354   4.951  16.638 -0.8037 -2.7807  1.6011
   14DOPE   C24 1716   6.457   4.896  16.832  0.1185 -0.2857 -0.1289
   14DOPE   H4R 1717   6.418   4.982  16.889  0.2576  0.2725 -0.8625
   14DOPE   H4S 1718   6.564   4.876  16.855  0.0161 -1.8033 -0.8398
   14DOPE   C25 1719   6.375   4.766  16.846 -0.5652  0.2748 -0.6501
   14DOPE   H5R 1720   6.409   4.718  16.941  2.6209 -0.3539 -1.9835
   14DOPE   H5S 1721   6.415   4.712  16.758  0.6360 -0.6997  0.4420
   14DOPE   C26 1722   6.224   4.787  16.850  0.5621  0.0147  0.0012
   14DOPE   H6R 1723   6.169   4.691  16.842  0.8393 -0.0489 -1.3456
   14DOPE   H6S 1724   6.187   4.854  16.770  0.0890  1.6588  1.5180
   14DOPE   C27 1725   6.156   4.833  16.978  0.0824 -0.0861  0.1852
   14DOPE   H7R 1726   6.198   4.931  17.008 -1.1330  0.2088  0.9933
   14DOPE   H7S 1727   6.183   4.766  17.062  0.4334 -0.0157  0.1279
   14DOPE   C28 1728   5.996   4.863  16.972 -0.0351  0.3764  0.1502
   14DOPE   H8R 1729   5.984   4.961  16.921  0.1087 -0.1557 -0.9359
   14DOPE   H8S 1730   5.968   4.875  17.079 -1.3665  1.1475 -0.2635
   14DOPE   C29 1731   5.909   4.751  16.917  0.5023  0.1184  0.7716
   14DOPE   H9R 1732   5.960   4.655  16.932  3.1834  0.5368 -3.7496
   14DOPE  C210 1733   5.800   4.768  16.841  0.3315 -0.2129 -0.7875
   14DOPE  H10R 1734   5.744   4.680  16.807 -1.6435 -0.1938  2.0642
   14DOPE  C211 1735   5.743   4.902  16.799  0.4844 -0.5884  0.0016
   14DOPE  H11R 1736   5.808   4.988  16.826 -0.5385 -0.8004  3.7191
   14DOPE  H11S 1737   5.647   4.906  16.853 -0.7642 -0.7764 -2.1077
   14DOPE  C212 1738   5.726   4.903  16.642  0.9538 -0.2719  0.3313
   14DOPE  H12R 1739   5.666   4.995  16.622 -0.3468 -1.2967 -0.7012
   14DOPE  H12S 1740   5.667   4.815  16.608 -1.0068  0.7146  1.0014
   14DOPE  C213 1741   5.856   4.916  16.569  0.8134  0.1239 -0.2260
   14DOPE  H13R 1742   5.931   4.844  16.608  0.9071 -0.9206 -2.2093
   14DOPE  H13S 1743   5.901   5.012  16.604  1.9128 -0.8198  1.0322
   14DOPE  C214 1744   5.850   4.897  16.415 -0.5716  0.1547  0.2937
   14DOPE  H14R 1745   5.766   4.959  16.375 -1.1066 -1.5837 -1.4339
   14DOPE  H14S 1746   5.853   4.789  16.389  2.0805  0.0739  0.6350
   14DOPE  C215 1747   5.976   4.951  16.359 -0.5166 -0.1425 -0.1281
   14DOPE  H15R 1748   5.991   5.054  16.398  0.9782 -0.9259  1.5444
   14DOPE  H15S 1749   5.969   4.964  16.249  2.1656  2.8026 -0.0903
   14DOPE  C216 1750   6.098   4.864  16.399 -0.0765  0.0517  0.1215
   14DOPE  H16R 1751   6.068   4.758  16.412 -2.9809  0.5412 -1.7577
   14DOPE  H16S 1752   6.140   4.902  16.495 -1.1735 -0.1523  0.6937
   14DOPE  C217 1753   6.207   4.875  16.296  0.6078 -0.6131  0.3472
   14DOPE  H17R 1754   6.184   4.826  16.199  3.0746 -0.1321 -0.5646
   14DOPE  H17S 1755   6.288   4.804  16.324 -0.3093 -1.5886  0.5994
   14DOPE  C218 1756   6.274   5.015  16.282  0.6698  0.4103 -0.1106
   14DOPE  H18R 1757   6.346   5.042  16.362  1.2300  0.3431 -0.5790
   14DOPE  H18S 1758   6.193   5.088  16.267  0.3652  0.1950  0.4736
   14DOPE  H18T 1759   6.346   5.006  16.197  2.1477  1.2500  0.9906
   14DOPE   C33 1760   6.760   5.459  16.143  0.1819 -0.2919 -0.5767
   14DOPE   H3X 1761   6.786   5.430  16.247 -0.3840 -0.2002 -0.4059
   14DOPE   H3Y 1762   6.727   5.565  16.141 -0.3170 -0.4125  0.5316
   14DOPE   C34 1763   6.885   5.438  16.055 -0.1688  0.3394 -0.0632
   14DOPE   H4X 1764   6.845   5.410  15.955  0.9746 -1.5179 -0.0581
   14DOPE   H4Y 1765   6.938   5.535  16.053 -2.8629  2.2537  4.6426
   14DOPE   C35 1766   6.983   5.317  16.086  0.0648  0.0177 -0.5253
   14DOPE   H5X 1767   6.932   5.221  16.109 -2.2551  1.1014 -0.7885
   14DOPE   H5Y 1768   7.021   5.349  16.185 -1.8240  0.6462  0.0340
   14DOPE   C36 1769   7.093   5.304  15.974  0.2941  0.5868  0.2789
   14DOPE   H6X 1770   7.044   5.304  15.874  0.9466  1.9636 -0.0561
   14DOPE   H6Y 1771   7.144   5.207  15.992 -2.5159 -1.0532 -0.0020
   14DOPE   C37 1772   7.192   5.423  15.956 -0.7988 -0.4961 -0.2625
   14DOPE   H7X 1773   7.139   5.518  15.931  1.8401  0.3105 -3.5745
   14DOPE   H7Y 1774   7.252   5.428  16.049  1.0658 -2.7876 -1.2366
   14DOPE   C38 1775   7.293   5.395  15.839  0.0044 -1.0267  0.1316
   14DOPE   H8X 1776   7.328   5.291  15.854 -1.2766 -1.5176 -0.0699
   14DOPE   H8Y 1777   7.375   5.461  15.874  0.2574 -1.5425  0.5211
   14DOPE   C39 1778   7.245   5.426  15.697 -0.3999 -0.2483 -0.3964
   14DOPE   H9X 1779   7.250   5.533  15.673 -0.1565  0.0699  0.9788
   14DOPE  C310 1780   7.232   5.346  15.589 -0.1249 -0.0129  0.6432
   14DOPE  H10X 1781   7.210   5.400  15.496  0.3542 -0.1737  0.4360
   14DOPE  C311 1782   7.255   5.200  15.597 -0.3046 -0.0368 -0.6990
   14DOPE  H11X 1783   7.325   5.189  15.682  1.2716  0.4198 -1.8891
   14DOPE  H11Y 1784   7.161   5.142  15.611  0.8204 -2.0290 -0.9652
   14DOPE  C312 1785   7.322   5.140  15.471  0.0888 -0.0294 -0.5370
   14DOPE  H12X 1786   7.259   5.143  15.379 -1.4177 -0.8192  0.4453
   14DOPE  H12Y 1787   7.358   5.037  15.492 -0.8325 -0.5147 -1.2823
   14DOPE  C313 1788   7.451   5.211  15.422 -0.2501 -0.5776  0.2120
   14DOPE  H13X 1789   7.419   5.312  15.391 -1.0027 -0.8645  0.0152
   14DOPE  H13Y 1790   7.528   5.226  15.501  0.7573 -4.4883  0.1902
   14DOPE  C314 1791   7.526   5.142  15.301 -0.0795  0.1125 -1.1095
   14DOPE  H14X 1792   7.632   5.175  15.311 -0.4380  1.1275 -0.5588
   14DOPE  H14Y 1793   7.479   5.183  15.210 -1.3199  1.1296 -0.0497
   14DOPE  C315 1794   7.529   4.989  15.310 -0.1567  0.6137 -0.1702
   14DOPE  H15X 1795   7.431   4.936  15.307  1.7419 -3.2538 -1.9867
   14DOPE  H15Y 1796   7.578   4.959  15.405 -0.9038 -0.0013  0.0392
   14DOPE  C316 1797   7.614   4.943  15.190  0.3507 -0.0176 -0.1501
   14DOPE  H16X 1798   7.643   4.837  15.207 -1.7785 -0.5472  0.4744
   14DOPE  H16Y 1799   7.712   4.991  15.172 -0.5198  1.4296 -1.2885
   14DOPE  C317 1800   7.549   4.968  15.048  0.2622  0.3514 -0.6838
   14DOPE  H17X 1801   7.555   5.077  15.033  0.0238  0.6809  1.3248
   14DOPE  H17Y 1802   7.620   4.927  14.973  0.7194  0.5632 -0.3748
   14DOPE  C318 1803   7.403   4.928  15.021 -0.7100 -0.4946 -0.1775
   14DOPE  H18X 1804   7.383   4.970  14.920  2.8245  0.7464 -0.5095
   14DOPE  H18Y 1805   7.379   4.820  15.017 -2.4512 -0.1971  1.1763
   14DOPE  H18Z 1806   7.326   4.974  15.086 -0.6219  0.0219 -0.4294
   15DOPE     N 1807   0.808   2.495  17.299 -0.1712  0.1548  0.2324
   15DOPE   HN1 1808   0.716   2.489  17.251  0.3515  0.4071 -0.8133
   15DOPE   HN2 1809   0.864   2.409  17.285  1.1952  1.0609 -0.0946
   15DOPE   HN3 1810   0.784   2.508  17.400 -0.1357  0.8595  0.1564
   15DOPE   C12 1811   0.887   2.618  17.253 -0.5164  0.1501 -0.0332
   15DOPE  H12A 1812   0.989   2.594  17.288 -1.0300 -3.4976 -0.6219
   15DOPE  H12B 1813   0.846   2.711  17.299 -2.0117  0.0003 -0.9845
   15DOPE   C11 1814   0.876   2.636  17.105 -0.3102  0.0415  0.7956
   15DOPE  H11A 1815   0.912   2.549  17.045 -2.3063  0.6662 -1.4732
   15DOPE  H11B 1816   0.950   2.715  17.082 -2.2772  1.2180 -2.2419
   15DOPE     P 1817   0.641   2.573  17.013 -0.1607  0.3471  0.0856
   15DOPE   O13 1818   0.521   2.643  16.962 -0.3957 -0.4729  0.2889
   15DOPE   O14 1819   0.615   2.484  17.119  0.3192  0.2293 -0.1747
   15DOPE   O11 1820   0.710   2.492  16.891  0.4378 -0.3041 -0.1767
   15DOPE   O12 1821   0.742   2.678  17.067 -0.1423 -0.1205 -0.3005
   15DOPE    C1 1822   0.767   2.549  16.773 -0.5216 -0.0746 -0.2514
   15DOPE    HA 1823   0.874   2.524  16.763  0.0291  0.8991  2.3005
   15DOPE    HB 1824   0.758   2.660  16.771  0.5304  0.0055 -2.3624
   15DOPE    C2 1825   0.682   2.496  16.652  0.3520 -0.7590 -0.4334
   15DOPE    HS 1826   0.573   2.505  16.670  0.0181 -0.7901 -2.2352
   15DOPE   O21 1827   0.719   2.355  16.628 -0.3030 -0.1716 -0.4006
   15DOPE   C21 1828   0.616   2.279  16.615  0.1783  0.2753 -0.3217
   15DOPE   O22 1829   0.499   2.310  16.611 -0.1520 -0.6387 -0.1416
   15DOPE   C22 1830   0.670   2.136  16.615  0.5881  0.9256  0.3603
   15DOPE   H2R 1831   0.694   2.107  16.720  1.8207  0.4629 -0.0333
   15DOPE   H2S 1832   0.768   2.132  16.565  0.1116  2.0356 -0.7170
   15DOPE    C3 1833   0.705   2.581  16.527 -0.7154 -0.3543 -0.0316
   15DOPE    HX 1834   0.815   2.572  16.511 -0.4076  0.4700  1.4840
   15DOPE    HY 1835   0.675   2.686  16.544 -0.5517 -0.3053 -0.0465
   15DOPE   O31 1836   0.635   2.520  16.423  0.3349 -0.4217  0.2167
   15DOPE   C31 1837   0.515   2.573  16.389  0.0676 -0.1674 -0.9359
   15DOPE   O32 1838   0.460   2.666  16.448 -0.2337  0.8205 -0.1481
   15DOPE   C32 1839   0.454   2.495  16.271 -0.0317  0.3596 -0.3751
   15DOPE   H2X 1840   0.446   2.389  16.303  1.0793  0.4599  0.2664
   15DOPE   H2Y 1841   0.352   2.539  16.258 -0.6287 -0.7355  0.4510
   15DOPE   C23 1842   0.562   2.046  16.558  0.6413  0.6913  0.1269
   15DOPE   H3R 1843   0.459   2.065  16.596  1.7178  2.2664  2.5502
   15DOPE   H3S 1844   0.580   1.960  16.626 -1.1253 -0.3928 -0.7062
   15DOPE   C24 1845   0.575   2.002  16.407 -0.2899  0.4248  0.4794
   15DOPE   H4R 1846   0.516   1.909  16.398  2.7049 -1.4804 -1.2984
   15DOPE   H4S 1847   0.678   1.982  16.371 -0.2101  1.0923  0.3235
   15DOPE   C25 1848   0.517   2.104  16.308  0.2463  0.2896 -0.6395
   15DOPE   H5R 1849   0.587   2.190  16.296 -1.6987  1.5819 -4.1032
   15DOPE   H5S 1850   0.427   2.152  16.352 -0.4602 -0.5986 -1.0882
   15DOPE   C26 1851   0.503   2.030  16.174 -0.4364  0.1378 -0.4340
   15DOPE   H6R 1852   0.411   1.968  16.180 -1.9594  2.0882 -2.0705
   15DOPE   H6S 1853   0.599   1.976  16.163  0.1995  1.3675 -1.1148
   15DOPE   C27 1854   0.475   2.116  16.051  0.7548 -0.2421 -0.3003
   15DOPE   H7R 1855   0.573   2.167  16.036 -0.1374  1.0096 -2.2473
   15DOPE   H7S 1856   0.393   2.189  16.064 -1.6627 -2.9632  0.7175
   15DOPE   C28 1857   0.442   2.034  15.921 -0.1742 -0.1645  0.5906
   15DOPE   H8R 1858   0.355   1.968  15.940 -0.9701  0.5255 -0.5660
   15DOPE   H8S 1859   0.525   1.962  15.903  0.2786  0.0966  1.5175
   15DOPE   C29 1860   0.403   2.121  15.798 -0.8254  0.0916 -0.2976
   15DOPE   H9R 1861   0.296   2.148  15.797 -0.9554 -0.3003  1.1831
   15DOPE  C210 1862   0.483   2.166  15.700  0.2469 -0.2197  0.8023
   15DOPE  H10R 1863   0.448   2.214  15.608 -0.2541 -0.6840  0.7437
   15DOPE  C211 1864   0.634   2.136  15.708 -0.2644  0.1656 -0.2573
   15DOPE  H11R 1865   0.676   2.106  15.609 -0.1697 -0.6196  0.0166
   15DOPE  H11S 1866   0.659   2.072  15.795  1.1365  1.6876  0.5047
   15DOPE  C212 1867   0.699   2.276  15.737 -0.6416 -0.1910 -0.2748
   15DOPE  H12R 1868   0.647   2.323  15.823 -0.7529 -1.1699  0.2019
   15DOPE  H12S 1869   0.692   2.336  15.643  0.7117 -2.9717 -2.2995
   15DOPE  C213 1870   0.850   2.272  15.762 -0.9374  0.6393 -0.4528
   15DOPE  H13R 1871   0.899   2.372  15.761 -0.4638  0.4324  0.9190
   15DOPE  H13S 1872   0.895   2.229  15.670 -0.1640  0.2528  0.1056
   15DOPE  C214 1873   0.885   2.202  15.899  0.4788  0.3408 -0.7321
   15DOPE  H14R 1874   0.995   2.202  15.892  0.4650  0.7670 -0.9450
   15DOPE  H14S 1875   0.851   2.096  15.899 -0.5752  0.6584  0.2131
   15DOPE  C215 1876   0.844   2.282  16.015 -0.0179 -0.2136  0.2819
   15DOPE  H15R 1877   0.734   2.283  16.030 -0.3001  2.5094 -1.2479
   15DOPE  H15S 1878   0.875   2.387  15.995 -0.2478 -0.4079 -1.2682
   15DOPE  C216 1879   0.910   2.240  16.148 -0.2047 -0.4956 -0.1683
   15DOPE  H16R 1880   1.020   2.230  16.137  0.4435  1.4331  3.0839
   15DOPE  H16S 1881   0.867   2.144  16.183 -0.7179 -0.5325 -0.8642
   15DOPE  C217 1882   0.895   2.349  16.256 -0.2325  0.1551  0.5388
   15DOPE  H17R 1883   0.792   2.390  16.264 -1.0264 -1.9240  1.6072
   15DOPE  H17S 1884   0.948   2.444  16.232 -1.2562  0.3436 -1.0877
   15DOPE  C218 1885   0.944   2.308  16.391 -0.3000  0.0925 -0.1359
   15DOPE  H18R 1886   0.898   2.211  16.419 -1.3110 -0.0669 -2.1247
   15DOPE  H18S 1887   0.923   2.381  16.472  1.9953 -0.1276  0.7236
   15DOPE  H18T 1888   1.054   2.294  16.388 -0.0342  1.9581 -0.7247
   15DOPE   C33 1889   0.530   2.493  16.129  0.3733  0.3006 -0.4708
   15DOPE   H3X 1890   0.475   2.443  16.046 -1.1719  0.5747  0.3370
   15DOPE   H3Y 1891   0.617   2.426  16.144 -1.7126 -2.5619 -0.3639
   15DOPE   C34 1892   0.588   2.632  16.091  0.2419  0.0202 -0.0393
   15DOPE   H4X 1893   0.515   2.711  16.068 -0.2390  0.4385  2.5480
   15DOPE   H4Y 1894   0.650   2.682  16.168  0.2013  3.9693 -2.3123
   15DOPE   C35 1895   0.661   2.627  15.955  0.4551 -0.2063  0.0542
   15DOPE   H5X 1896   0.578   2.627  15.882  0.0689  0.2272  0.4907
   15DOPE   H5Y 1897   0.730   2.542  15.933 -0.1683 -0.6378 -0.2466
   15DOPE   C36 1898   0.745   2.756  15.930 -0.7325  0.3195 -0.4749
   15DOPE   H6X 1899   0.806   2.769  16.022 -1.3418  0.4154 -0.0774
   15DOPE   H6Y 1900   0.684   2.849  15.929  0.3824  1.1554  1.7413
   15DOPE   C37 1901   0.833   2.745  15.809 -0.5730 -0.5445  0.0520
   15DOPE   H7X 1902   0.894   2.838  15.802 -2.0807  0.6313  1.5603
   15DOPE   H7Y 1903   0.893   2.652  15.807 -1.2700 -1.0239  0.7775
   15DOPE   C38 1904   0.755   2.722  15.677  0.2206 -0.1961  0.5541
   15DOPE   H8X 1905   0.666   2.788  15.675 -1.8886 -2.8187  1.2838
   15DOPE   H8Y 1906   0.714   2.619  15.676  1.3361 -0.6936  1.8801
   15DOPE   C39 1907   0.839   2.751  15.557 -0.4340 -0.0035  0.7705
   15DOPE   H9X 1908   0.944   2.720  15.568  0.0379  1.2031 -0.0498
   15DOPE  C310 1909   0.796   2.799  15.438 -0.4303  0.6865 -0.2978
   15DOPE  H10X 1910   0.878   2.797  15.364  0.6146  0.4005  0.8293
   15DOPE  C311 1911   0.662   2.840  15.389  0.2689 -0.5037  0.0613
   15DOPE  H11X 1912   0.633   2.756  15.322 -1.6856  0.9875 -1.0746
   15DOPE  H11Y 1913   0.586   2.821  15.468 -1.3814 -3.4440 -2.0143
   15DOPE  C312 1914   0.643   2.975  15.319  0.4794 -0.3683 -0.3161
   15DOPE  H12X 1915   0.704   2.982  15.227  3.0036  0.4446  1.2999
   15DOPE  H12Y 1916   0.679   3.061  15.380  0.7819 -1.5529  1.2500
   15DOPE  C313 1917   0.494   2.991  15.273 -0.1081 -0.5588  0.3042
   15DOPE  H13X 1918   0.484   3.058  15.185  0.1072 -0.6885  0.1800
   15DOPE  H13Y 1919   0.471   2.888  15.237  2.1647 -0.7661 -0.7543
   15DOPE  C314 1920   0.390   3.026  15.379  0.1464 -0.1173  0.3113
   15DOPE  H14X 1921   0.399   2.954  15.464  0.6183 -0.2202  0.1781
   15DOPE  H14Y 1922   0.290   3.027  15.330 -0.2628  0.5383  1.1446
   15DOPE  C315 1923   0.407   3.162  15.448  0.0420  0.7017  0.0235
   15DOPE  H15X 1924   0.508   3.165  15.493  0.7626 -0.1663 -1.4631
   15DOPE  H15Y 1925   0.339   3.177  15.534  0.0091  1.0175 -0.0571
   15DOPE  C316 1926   0.405   3.281  15.359  0.0557 -0.2613 -0.1337
   15DOPE  H16X 1927   0.303   3.295  15.317  0.0676 -1.7006 -0.6975
   15DOPE  H16Y 1928   0.461   3.255  15.266 -0.6667 -0.1873 -0.6000
   15DOPE  C317 1929   0.469   3.410  15.418  0.3927  0.4509  0.7107
   15DOPE  H17X 1930   0.574   3.379  15.434  0.4812  0.5646  0.3441
   15DOPE  H17Y 1931   0.453   3.491  15.343  0.7732 -0.0631  0.0758
   15DOPE  C318 1932   0.423   3.452  15.557  0.1938  0.1749  0.1499
   15DOPE  H18X 1933   0.496   3.523  15.601 -0.1073  0.8495 -0.4148
   15DOPE  H18Y 1934   0.320   3.493  15.556  0.8474  2.0740  2.3022
   15DOPE  H18Z 1935   0.438   3.374  15.635 -0.7299  1.0702  1.2618
   16DOPE     N 1936   0.350   4.184  16.901  0.5610  0.5807  0.1352
   16DOPE   HN1 1937   0.389   4.252  16.970  1.3923 -0.1657  0.4162
   16DOPE   HN2 1938   0.260   4.224  16.868 -1.4951 -2.9014  1.0843
   16DOPE   HN3 1939   0.335   4.105  16.967  2.1180  0.6431  0.6172
   16DOPE   C12 1940   0.453   4.144  16.805 -0.2713 -0.3045  0.2129
   16DOPE  H12A 1941   0.404   4.078  16.729 -0.0741  0.6141 -0.7302
   16DOPE  H12B 1942   0.527   4.078  16.855 -0.3856 -0.8752 -0.3505
   16DOPE   C11 1943   0.520   4.270  16.734 -0.1099  0.7250 -0.0255
   16DOPE  H11A 1944   0.437   4.328  16.689 -1.0004 -0.2229  0.3481
   16DOPE  H11B 1945   0.577   4.226  16.650  1.7773 -0.1072  1.6075
   16DOPE     P 1946   0.753   4.309  16.857 -0.2671 -0.2157  0.3043
   16DOPE   O13 1947   0.758   4.211  16.965  0.2613 -0.2418  0.3673
   16DOPE   O14 1948   0.812   4.440  16.890  0.4761  0.0338 -0.4173
   16DOPE   O11 1949   0.819   4.242  16.725  0.2376 -0.5994  0.2232
   16DOPE   O12 1950   0.599   4.347  16.826 -0.5980  0.0204 -0.0278
   16DOPE    C1 1951   0.860   4.325  16.618 -0.3345 -1.3348  0.5969
   16DOPE    HA 1952   0.966   4.356  16.623 -1.3720  3.4745 -1.4558
   16DOPE    HB 1953   0.793   4.414  16.610 -0.5337 -1.4912  0.5292
   16DOPE    C2 1954   0.831   4.249  16.481  0.0296 -0.3942 -0.0288
   16DOPE    HS 1955   0.727   4.220  16.507 -0.6875  3.6520  2.5388
   16DOPE   O21 1956   0.932   4.150  16.465  0.0443  0.4037 -0.0947
   16DOPE   C21 1957   0.875   4.037  16.432 -0.8364  0.3332  0.6072
   16DOPE   O22 1958   0.755   4.023  16.397 -0.0073  0.0534 -0.2948
   16DOPE   C22 1959   0.993   3.930  16.435  0.1633  0.1178 -0.0465
   16DOPE   H2R 1960   0.955   3.840  16.487  0.3018 -0.4983 -0.9866
   16DOPE   H2S 1961   1.072   3.974  16.499  0.9766 -1.6391  0.2096
   16DOPE    C3 1962   0.827   4.340  16.358  0.0311  0.2236  0.3681
   16DOPE    HX 1963   0.933   4.366  16.337  0.5963  0.0038  2.7040
   16DOPE    HY 1964   0.769   4.434  16.367  0.5196  0.5931 -0.3380
   16DOPE   O31 1965   0.767   4.267  16.246 -0.2814 -0.1399 -0.7644
   16DOPE   C31 1966   0.640   4.258  16.258 -0.2478 -0.0697 -0.2435
   16DOPE   O32 1967   0.570   4.322  16.334 -0.0594  0.0294 -0.2337
   16DOPE   C32 1968   0.573   4.163  16.156 -1.0030  0.1671  0.4496
   16DOPE   H2X 1969   0.596   4.061  16.192  2.6853  1.4764  2.3028
   16DOPE   H2Y 1970   0.464   4.182  16.163 -0.8401  2.4044 -1.5966
   16DOPE   C23 1971   1.047   3.891  16.293 -0.1170 -0.3607 -0.2860
   16DOPE   H3R 1972   1.143   3.836  16.304 -0.0606  0.0219  1.4777
   16DOPE   H3S 1973   1.074   3.978  16.229  0.8215 -0.0276  0.5435
   16DOPE   C24 1974   0.961   3.788  16.211 -0.2743 -0.3666 -0.5925
   16DOPE   H4R 1975   1.023   3.751  16.127 -0.9200  0.3433 -1.3906
   16DOPE   H4S 1976   0.880   3.853  16.173 -0.2130 -0.0760 -0.2377
   16DOPE   C25 1977   0.917   3.656  16.280 -0.3539  0.0894  0.1989
   16DOPE   H5R 1978   0.852   3.687  16.365  1.5002 -0.1176  1.7681
   16DOPE   H5S 1979   1.005   3.600  16.319  1.4909  2.8746  0.2759
   16DOPE   C26 1980   0.832   3.567  16.185  0.6987 -0.2660 -0.0365
   16DOPE   H6R 1981   0.797   3.478  16.241 -1.2463  1.1973  1.2235
   16DOPE   H6S 1982   0.891   3.536  16.096  0.6144  1.0754 -0.5907
   16DOPE   C27 1983   0.696   3.639  16.147  0.0820  0.0141  0.1027
   16DOPE   H7R 1984   0.714   3.733  16.090  0.7613 -0.7868 -1.0470
   16DOPE   H7S 1985   0.659   3.663  16.249 -2.5214 -3.3303  0.1358
   16DOPE   C28 1986   0.592   3.555  16.069  0.1159 -0.8333 -0.4700
   16DOPE   H8R 1987   0.635   3.490  15.990 -1.0579 -0.9501 -1.0394
   16DOPE   H8S 1988   0.529   3.628  16.013 -0.1775 -0.7185  0.0066
   16DOPE   C29 1989   0.520   3.462  16.164  0.2180  0.1742 -0.1405
   16DOPE   H9R 1990   0.595   3.397  16.212  0.2723  0.6484  0.4261
   16DOPE  C210 1991   0.392   3.448  16.189 -0.4330 -0.4922  0.0064
   16DOPE  H10R 1992   0.351   3.365  16.250 -0.6844  0.1531  0.7339
   16DOPE  C211 1993   0.287   3.531  16.123  0.0664 -0.0037 -0.4948
   16DOPE  H11R 1994   0.326   3.623  16.074  0.1563  0.2808  0.0956
   16DOPE  H11S 1995   0.212   3.559  16.200  0.9022 -0.6729  0.6019
   16DOPE  C212 1996   0.197   3.457  16.026 -0.2933 -0.1971  0.0488
   16DOPE  H12R 1997   0.108   3.523  16.019 -0.6156 -0.4883  1.2177
   16DOPE  H12S 1998   0.183   3.358  16.074  3.0817 -0.5876  0.4628
   16DOPE  C213 1999   0.250   3.417  15.890 -0.5126  0.4963  0.1501
   16DOPE  H13R 2000   0.341   3.354  15.903  0.1527  1.1060 -1.3215
   16DOPE  H13S 2001   0.296   3.509  15.848 -0.1679  0.6503  0.8574
   16DOPE  C214 2002   0.141   3.355  15.806  0.1836 -0.4978 -0.0708
   16DOPE  H14R 2003   0.075   3.294  15.871  0.1722  0.1617  0.5588
   16DOPE  H14S 2004   0.177   3.288  15.725  1.0724  1.4352 -1.3290
   16DOPE  C215 2005   0.064   3.459  15.716  0.5300  0.0301 -0.0201
   16DOPE  H15R 2006   0.128   3.486  15.630  1.4936  1.3195  1.0400
   16DOPE  H15S 2007   0.065   3.551  15.779  0.9168  0.3474 -0.4890
   16DOPE  C216 2008  -0.070   3.409  15.666 -0.0629 -0.2495  0.1028
   16DOPE  H16R 2009  -0.064   3.313  15.611 -2.1406 -0.2016 -0.2705
   16DOPE  H16S 2010  -0.122   3.476  15.594  0.4557  0.5249  0.4393
   16DOPE  C217 2011  -0.163   3.380  15.785  0.3812 -0.0934  0.3011
   16DOPE  H17R 2012  -0.195   3.480  15.820 -2.4165 -0.3891 -1.1244
   16DOPE  H17S 2013  -0.112   3.332  15.871  2.1728 -0.2716 -0.7978
   16DOPE  C218 2014  -0.294   3.309  15.747 -0.0319  0.1307 -0.3062
   16DOPE  H18R 2015  -0.270   3.226  15.678  1.3904  0.1777  0.0910
   16DOPE  H18S 2016  -0.352   3.384  15.690  0.0038  0.6492  0.3264
   16DOPE  H18T 2017  -0.347   3.276  15.839  1.4067  1.1936  0.9495
   16DOPE   C33 2018   0.607   4.191  16.008  0.2189 -0.0201 -0.1861
   16DOPE   H3X 2019   0.683   4.119  15.970 -0.7747 -0.5433 -1.2662
   16DOPE   H3Y 2020   0.652   4.290  15.985  2.1443 -0.7935  0.0902
   16DOPE   C34 2021   0.483   4.166  15.920 -0.2117  0.2672 -0.1800
   16DOPE   H4X 2022   0.413   4.251  15.935 -1.0457 -0.5417  0.5725
   16DOPE   H4Y 2023   0.510   4.170  15.812  0.8179 -0.0799  0.0482
   16DOPE   C35 2024   0.422   4.028  15.943 -0.5192 -0.0474 -0.7330
   16DOPE   H5X 2025   0.378   4.022  16.045  1.3269  1.0187  0.1770
   16DOPE   H5Y 2026   0.505   3.955  15.936  0.1030  0.7202 -1.6257
   16DOPE   C36 2027   0.316   4.004  15.833  0.3572  0.0900 -0.4162
   16DOPE   H6X 2028   0.368   4.007  15.735  2.0903  0.8919  0.4832
   16DOPE   H6Y 2029   0.245   4.089  15.838 -0.1253 -0.3525  2.3875
   16DOPE   C37 2030   0.237   3.876  15.840  0.3376  0.1564 -0.0126
   16DOPE   H7X 2031   0.302   3.788  15.858  1.2726  0.9635  0.7189
   16DOPE   H7Y 2032   0.170   3.880  15.929  0.0521  0.4589 -0.2356
   16DOPE   C38 2033   0.160   3.858  15.715 -0.2232  0.1732  0.2690
   16DOPE   H8X 2034   0.113   3.955  15.687  1.0769  0.5768 -0.5973
   16DOPE   H8Y 2035   0.080   3.784  15.737 -0.4219  0.6587  1.2706
   16DOPE   C39 2036   0.241   3.815  15.591  0.1884 -0.1316  0.2746
   16DOPE   H9X 2037   0.338   3.770  15.615  1.4678  2.5067  0.4645
   16DOPE  C310 2038   0.201   3.839  15.469  0.0597  0.0420 -0.1742
   16DOPE  H10X 2039   0.253   3.787  15.387  0.6853  1.3000 -0.5891
   16DOPE  C311 2040   0.074   3.908  15.427  0.1129 -0.1143  0.2277
   16DOPE  H11X 2041   0.006   3.893  15.513  0.9973 -0.2037  0.9269
   16DOPE  H11Y 2042   0.095   4.017  15.413  0.0454 -0.0960  0.2668
   16DOPE  C312 2043   0.019   3.833  15.300 -0.5529 -0.4628 -0.8264
   16DOPE  H12X 2044   0.100   3.819  15.225  1.0693 -0.9600  0.9651
   16DOPE  H12Y 2045  -0.056   3.896  15.246  0.4139  0.4024 -1.1967
   16DOPE  C313 2046  -0.040   3.692  15.341 -0.0717  0.3269 -0.0205
   16DOPE  H13X 2047   0.048   3.633  15.375 -0.3122  0.4730  0.9027
   16DOPE  H13Y 2048  -0.099   3.702  15.435  3.2109 -1.4554  2.4556
   16DOPE  C314 2049  -0.108   3.627  15.223 -0.1918 -0.1563  0.0593
   16DOPE  H14X 2050  -0.057   3.667  15.133 -1.5364 -1.6737 -1.4491
   16DOPE  H14Y 2051  -0.215   3.653  15.215 -0.0829  1.0023  1.9266
   16DOPE  C315 2052  -0.102   3.474  15.238  0.6377  0.7657 -0.4469
   16DOPE  H15X 2053  -0.193   3.437  15.186 -0.6861  1.3891  1.3318
   16DOPE  H15Y 2054  -0.111   3.452  15.347 -0.8903  0.8472 -0.5279
   16DOPE  C316 2055   0.024   3.408  15.185 -0.1828  0.3629 -0.2594
   16DOPE  H16X 2056   0.109   3.445  15.247 -1.8196  1.2457  1.5645
   16DOPE  H16Y 2057   0.034   3.437  15.078 -1.6517 -1.5375 -0.9663
   16DOPE  C317 2058   0.031   3.251  15.210 -0.5299  0.2197  0.1342
   16DOPE  H17X 2059  -0.047   3.206  15.145  0.0565  0.4543 -0.7610
   16DOPE  H17Y 2060   0.129   3.213  15.175 -1.2917 -1.8924  0.1675
   16DOPE  C318 2061   0.001   3.204  15.359  0.5399  1.3647  0.0493
   16DOPE  H18X 2062   0.070   3.260  15.425 -1.6476  2.4074  1.5616
   16DOPE  H18Y 2063  -0.102   3.231  15.389  0.7490  3.0539 -0.6567
   16DOPE  H18Z 2064   0.028   3.098  15.376  0.3089  1.3526  0.3464
   17DOPE     N 2065   2.528   5.995  17.086 -0.0052  0.4143  0.1336
   17DOPE   HN1 2066   2.590   5.928  17.136 -1.4115 -0.3078  0.9468
   17DOPE   HN2 2067   2.508   6.082  17.139 -1.6372 -0.5106  1.1086
   17DOPE   HN3 2068   2.437   5.948  17.068 -0.5535  0.6699  2.0817
   17DOPE   C12 2069   2.594   6.032  16.950  0.3822 -0.5822 -0.0681
   17DOPE  H12A 2070   2.541   6.118  16.905  0.7590  0.1366  0.8277
   17DOPE  H12B 2071   2.572   5.940  16.891  0.9640 -0.7857  0.0338
   17DOPE   C11 2072   2.747   6.055  16.955  0.3219 -0.3365  0.2190
   17DOPE  H11A 2073   2.780   6.077  16.851  2.5865 -1.5775  0.6112
   17DOPE  H11B 2074   2.798   5.964  16.991 -0.9008 -2.2339 -2.5200
   17DOPE     P 2075   2.797   6.314  16.992 -0.0137  0.1251  0.0651
   17DOPE   O13 2076   2.904   6.321  16.892  0.1725  0.1997 -0.0150
   17DOPE   O14 2077   2.801   6.404  17.114 -0.2470 -0.9422 -0.4056
   17DOPE   O11 2078   2.661   6.343  16.926 -0.6059  0.5797  0.0748
   17DOPE   O12 2079   2.776   6.164  17.044 -0.0817 -0.6179  0.1412
   17DOPE    C1 2080   2.631   6.469  16.858 -0.2775 -0.5880 -0.2442
   17DOPE    HA 2081   2.699   6.549  16.895  0.2395 -0.0702 -2.2199
   17DOPE    HB 2082   2.529   6.494  16.894 -0.4304 -1.0006 -0.3908
   17DOPE    C2 2083   2.632   6.480  16.702 -0.6060 -0.0901  0.2707
   17DOPE    HS 2084   2.570   6.566  16.669 -0.0911 -0.4254 -1.6997
   17DOPE   O21 2085   2.587   6.357  16.644  0.5096  0.0105  0.0801
   17DOPE   C21 2086   2.454   6.334  16.668 -0.0088 -0.2197  0.3754
   17DOPE   O22 2087   2.383   6.411  16.725  0.5678  0.3316  0.2545
   17DOPE   C22 2088   2.403   6.204  16.604 -0.1107 -0.1354 -0.1283
   17DOPE   H2R 2089   2.323   6.158  16.666  1.2444 -0.4749  1.4196
   17DOPE   H2S 2090   2.487   6.131  16.603  1.1314  1.2262 -1.7561
   17DOPE    C3 2091   2.775   6.493  16.642  0.2258 -0.4909 -0.3786
   17DOPE    HX 2092   2.819   6.391  16.641  1.7806  0.0093  2.9195
   17DOPE    HY 2093   2.826   6.559  16.715 -0.0038 -0.3539 -0.3431
   17DOPE   O31 2094   2.758   6.542  16.500 -0.2632  0.6839  0.2334
   17DOPE   C31 2095   2.868   6.599  16.455 -0.1887 -0.4913  0.3492
   17DOPE   O32 2096   2.963   6.638  16.521  0.0631  0.1861 -0.1400
   17DOPE   C32 2097   2.856   6.600  16.298  0.8576 -0.6012 -0.4860
   17DOPE   H2X 2098   2.896   6.502  16.263  0.6549 -1.0435  0.5013
   17DOPE   H2Y 2099   2.750   6.615  16.269  0.4479  0.5780  1.4308
   17DOPE   C23 2100   2.350   6.221  16.460 -0.3182 -0.5114 -0.1901
   17DOPE   H3R 2101   2.267   6.295  16.460 -0.5619 -0.6590  2.4756
   17DOPE   H3S 2102   2.302   6.126  16.428 -2.1291  0.8404 -1.7223
   17DOPE   C24 2103   2.453   6.248  16.354 -0.0460  0.1698  0.0426
   17DOPE   H4R 2104   2.535   6.174  16.347 -0.5845 -0.4238  0.0013
   17DOPE   H4S 2105   2.498   6.348  16.373  2.0434  0.5772 -5.2966
   17DOPE   C25 2106   2.403   6.270  16.211  0.6287  0.7898 -1.3968
   17DOPE   H5R 2107   2.302   6.315  16.224  0.7126  1.0535 -1.6498
   17DOPE   H5S 2108   2.378   6.173  16.163 -1.6102  0.9096 -0.5706
   17DOPE   C26 2109   2.488   6.361  16.114 -0.1962 -1.5502  1.1818
   17DOPE   H6R 2110   2.586   6.312  16.101  0.7349  0.8234 -2.2396
   17DOPE   H6S 2111   2.505   6.459  16.162 -0.4480  0.6480 -2.7826
   17DOPE   C27 2112   2.420   6.385  15.979 -0.8447 -0.2159  0.5053
   17DOPE   H7R 2113   2.481   6.444  15.907  0.9331  1.0934  2.9430
   17DOPE   H7S 2114   2.332   6.451  15.997 -1.0834 -0.7256  1.2411
   17DOPE   C28 2115   2.375   6.257  15.901 -0.4521  0.0040 -0.3448
   17DOPE   H8R 2116   2.307   6.199  15.967  0.2551 -0.3230  0.1108
   17DOPE   H8S 2117   2.464   6.192  15.886  1.7255  2.7832 -0.3897
   17DOPE   C29 2118   2.291   6.284  15.775 -0.3137 -0.0080 -0.0169
   17DOPE   H9R 2119   2.186   6.251  15.767 -0.3677 -0.0214  0.7189
   17DOPE  C210 2120   2.354   6.316  15.662  0.2503  0.0225  0.4039
   17DOPE  H10R 2121   2.284   6.344  15.582 -0.0128 -1.3444  0.1335
   17DOPE  C211 2122   2.500   6.332  15.636  0.1567 -0.2381 -0.1183
   17DOPE  H11R 2123   2.531   6.241  15.580  0.7399  1.3803 -2.6236
   17DOPE  H11S 2124   2.559   6.323  15.729 -0.3483  0.8226  0.3233
   17DOPE  C212 2125   2.532   6.456  15.548  0.2997 -0.2273 -1.1125
   17DOPE  H12R 2126   2.638   6.445  15.519  0.8617 -1.0968  1.0459
   17DOPE  H12S 2127   2.515   6.547  15.610 -0.4417 -0.1971 -1.3520
   17DOPE  C213 2128   2.455   6.474  15.413 -0.1413  0.3247  0.1552
   17DOPE  H13R 2129   2.499   6.566  15.368  0.4267 -0.7479 -1.5754
   17DOPE  H13S 2130   2.346   6.479  15.432 -0.0806  0.6304  0.4347
   17DOPE  C214 2131   2.475   6.351  15.321 -0.1266  0.4644  0.5237
   17DOPE  H14R 2132   2.413   6.276  15.375 -2.6009  3.0682  1.5367
   17DOPE  H14S 2133   2.581   6.323  15.305 -0.2178 -0.0137  0.7521
   17DOPE  C215 2134   2.404   6.392  15.186 -0.7524 -0.2874 -0.2303
   17DOPE  H15R 2135   2.459   6.484  15.154  0.2853 -0.7430  0.1887
   17DOPE  H15S 2136   2.299   6.410  15.217 -0.7372 -0.0798 -0.2926
   17DOPE  C216 2137   2.405   6.293  15.064  0.5930 -0.4332 -0.2807
   17DOPE  H16R 2138   2.508   6.301  15.022  0.8839 -0.3286  0.4478
   17DOPE  H16S 2139   2.330   6.322  14.987 -1.0784 -0.4601  1.2774
   17DOPE  C217 2140   2.370   6.144  15.093 -0.9131  0.4075  0.6635
   17DOPE  H17R 2141   2.442   6.100  15.165  0.5602 -0.6188 -1.3473
   17DOPE  H17S 2142   2.375   6.084  14.999  1.3656  1.7226 -0.1364
   17DOPE  C218 2143   2.225   6.134  15.140 -0.7230 -0.6458  0.1300
   17DOPE  H18R 2144   2.214   6.181  15.239  2.1061  2.5068 -0.8639
   17DOPE  H18S 2145   2.175   6.034  15.141 -0.3411 -0.8824 -1.2416
   17DOPE  H18T 2146   2.164   6.199  15.073  0.3198 -0.0482 -0.2510
   17DOPE   C33 2147   2.936   6.719  16.229  0.0491  0.3350 -0.0187
   17DOPE   H3X 2148   3.036   6.740  16.272  1.5158  0.8598 -3.4050
   17DOPE   H3Y 2149   2.888   6.818  16.244 -0.2492  0.4915 -1.8091
   17DOPE   C34 2150   2.976   6.720  16.082  0.0556  0.3873  0.2725
   17DOPE   H4X 2151   3.024   6.817  16.058 -1.6826  1.3136  0.3651
   17DOPE   H4Y 2152   3.063   6.651  16.085  2.0461  2.7696  3.1169
   17DOPE   C35 2153   2.862   6.685  15.981 -0.1105 -0.2601  0.1476
   17DOPE   H5X 2154   2.827   6.581  15.995  1.2698 -0.8549 -0.6078
   17DOPE   H5Y 2155   2.893   6.708  15.877  1.4564  0.2397  0.6978
   17DOPE   C36 2156   2.738   6.774  15.999  0.5249  1.2004 -0.1775
   17DOPE   H6X 2157   2.763   6.882  15.995  0.1013  1.4005  1.4794
   17DOPE   H6Y 2158   2.692   6.754  16.099  3.0457 -0.4559  0.7544
   17DOPE   C37 2159   2.642   6.736  15.885 -0.0437  0.2977  0.2649
   17DOPE   H7X 2160   2.701   6.775  15.799 -0.4466  0.8955  0.2470
   17DOPE   H7Y 2161   2.634   6.626  15.869  0.7828 -0.0452  2.0428
   17DOPE   C38 2162   2.506   6.807  15.883 -0.1224 -0.3832 -0.8883
   17DOPE   H8X 2163   2.533   6.915  15.873  0.3867 -0.3080  0.9825
   17DOPE   H8Y 2164   2.461   6.778  15.980  1.2418  0.1934 -0.0456
   17DOPE   C39 2165   2.429   6.750  15.769  0.4593  0.0964  0.3852
   17DOPE   H9X 2166   2.387   6.653  15.801  1.6295 -0.1895  1.0872
   17DOPE  C310 2167   2.431   6.805  15.646 -0.0937 -0.8459 -0.5599
   17DOPE  H10X 2168   2.373   6.764  15.562 -3.4456  0.8723  0.7685
   17DOPE  C311 2169   2.516   6.924  15.603  0.4309 -0.2837  0.3858
   17DOPE  H11X 2170   2.571   6.979  15.683  0.8594  2.0692 -1.4050
   17DOPE  H11Y 2171   2.597   6.884  15.540  0.2444 -1.0563  0.6263
   17DOPE  C312 2172   2.433   7.030  15.525  0.6803  0.4955 -0.1027
   17DOPE  H12X 2173   2.341   7.061  15.578  0.9146 -0.7698  1.1132
   17DOPE  H12Y 2174   2.398   6.977  15.434  0.0549 -1.0061  0.9680
   17DOPE  C313 2175   2.501   7.147  15.474  0.1910  0.7754 -0.4455
   17DOPE  H13X 2176   2.607   7.119  15.457  0.6320  1.9371  0.3018
   17DOPE  H13Y 2177   2.449   7.181  15.382 -0.2431 -1.3887 -1.0619
   17DOPE  C314 2178   2.497   7.263  15.578 -0.9681  0.4076  0.8928
   17DOPE  H14X 2179   2.534   7.219  15.673 -0.1400 -1.3333 -0.1960
   17DOPE  H14Y 2180   2.393   7.288  15.609 -0.3488 -0.0751  3.6310
   17DOPE  C315 2181   2.580   7.377  15.531  0.6237  0.5405  0.1694
   17DOPE  H15X 2182   2.546   7.412  15.431 -1.6306  2.1182  1.3941
   17DOPE  H15Y 2183   2.685   7.343  15.538  0.2903 -0.6333 -0.3420
   17DOPE  C316 2184   2.552   7.495  15.630 -0.0561 -0.7125  0.1957
   17DOPE  H16X 2185   2.624   7.578  15.610 -0.7162  0.2392  1.6155
   17DOPE  H16Y 2186   2.568   7.467  15.736 -2.4848 -1.9333  0.3060
   17DOPE  C317 2187   2.408   7.551  15.622 -0.6216 -0.6009  0.8326
   17DOPE  H17X 2188   2.338   7.469  15.648 -0.5842 -0.5380  1.1344
   17DOPE  H17Y 2189   2.405   7.634  15.696  3.4088  1.5129 -1.0275
   17DOPE  C318 2190   2.370   7.601  15.479 -0.2874  0.7714  0.3870
   17DOPE  H18X 2191   2.269   7.646  15.473 -0.6319 -0.1712 -1.9238
   17DOPE  H18Y 2192   2.451   7.659  15.431 -0.4168  0.3825 -0.3106
   17DOPE  H18Z 2193   2.368   7.507  15.419  1.1306 -0.5635  2.2997
   18DOPE     N 2194   7.218   3.375  16.861  0.1861  0.0018 -0.0256
   18DOPE   HN1 2195   7.120   3.355  16.832  0.7958 -1.4774 -1.1924
   18DOPE   HN2 2196   7.253   3.300  16.924 -1.2534 -0.6530  0.0407
   18DOPE   HN3 2197   7.223   3.468  16.908 -1.8981 -0.4966  1.2975
   18DOPE   C12 2198   7.301   3.373  16.734  0.9238  0.4061 -0.1780
   18DOPE  H12A 2199   7.280   3.459  16.668  1.7579 -0.3072 -1.4113
   18DOPE  H12B 2200   7.276   3.273  16.693  0.4761  0.2835  0.3688
   18DOPE   C11 2201   7.443   3.389  16.774  0.2495 -0.0896 -0.6240
   18DOPE  H11A 2202   7.454   3.491  16.817 -0.9143 -0.7051  1.2627
   18DOPE  H11B 2203   7.497   3.394  16.677  0.2801  1.2251 -0.5632
   18DOPE     P 2204   7.586   3.316  16.984 -0.1487 -0.2014  0.2615
   18DOPE   O13 2205   7.607   3.181  17.056  0.2400 -0.1415  0.0677
   18DOPE   O14 2206   7.517   3.426  17.056 -0.1248 -0.5038  0.2058
   18DOPE   O11 2207   7.729   3.364  16.927 -0.0437  0.3594 -0.0281
   18DOPE   O12 2208   7.496   3.283  16.853 -0.0332 -0.0066 -0.3751
   18DOPE    C1 2209   7.816   3.271  16.861  0.4774  0.3702  0.1145
   18DOPE    HA 2210   7.749   3.194  16.818 -0.2886  1.8929 -1.5633
   18DOPE    HB 2211   7.883   3.219  16.933 -1.4734 -0.4636  1.4172
   18DOPE    C2 2212   7.912   3.320  16.754  0.6299 -0.2933  0.2404
   18DOPE    HS 2213   7.982   3.384  16.812  1.2882  1.0193 -1.8756
   18DOPE   O21 2214   7.841   3.405  16.662  0.0353 -0.3076 -0.0897
   18DOPE   C21 2215   7.918   3.484  16.595  0.1075  0.8371 -0.0139
   18DOPE   O22 2216   8.038   3.505  16.618  0.1252 -0.1995  0.6385
   18DOPE   C22 2217   7.835   3.532  16.476  0.3338  0.3321 -0.4292
   18DOPE   H2R 2218   7.774   3.452  16.429  2.4493 -0.2939 -2.3065
   18DOPE   H2S 2219   7.912   3.568  16.404  2.0030 -1.0961  0.5482
   18DOPE    C3 2220   7.980   3.196  16.675  0.1326 -0.1102 -0.4779
   18DOPE    HX 2221   8.029   3.136  16.754 -0.1620  1.3102  0.8116
   18DOPE    HY 2222   8.052   3.228  16.596  0.5910 -0.2009 -0.0985
   18DOPE   O31 2223   7.870   3.113  16.624 -0.3551 -0.3118 -0.4464
   18DOPE   C31 2224   7.838   3.141  16.498 -0.2332 -0.0440 -0.0471
   18DOPE   O32 2225   7.882   3.224  16.423  0.3745  0.6567 -0.0231
   18DOPE   C32 2226   7.733   3.038  16.464  0.5915 -0.1697  0.2649
   18DOPE   H2X 2227   7.772   2.934  16.469  1.9593  0.0861 -2.8969
   18DOPE   H2Y 2228   7.660   3.041  16.548 -0.0126 -0.1984 -0.2600
   18DOPE   C23 2229   7.739   3.653  16.515 -0.5511  0.1680  0.3876
   18DOPE   H3R 2230   7.805   3.715  16.579  2.0256 -1.2480 -0.7294
   18DOPE   H3S 2231   7.655   3.628  16.583 -1.2604  0.3408 -0.3992
   18DOPE   C24 2232   7.692   3.736  16.397 -0.2970 -0.1524  0.0038
   18DOPE   H4R 2233   7.595   3.787  16.418 -0.4476 -0.3321 -0.2530
   18DOPE   H4S 2234   7.676   3.659  16.319  0.5101  0.6094 -0.9370
   18DOPE   C25 2235   7.794   3.829  16.340 -0.4916  0.2147 -0.4679
   18DOPE   H5R 2236   7.760   3.863  16.240 -2.2298 -0.0357  0.0054
   18DOPE   H5S 2237   7.894   3.783  16.331  0.2241  1.2670  1.4876
   18DOPE   C26 2238   7.836   3.948  16.432  0.6176  0.5117  0.3950
   18DOPE   H6R 2239   7.884   3.916  16.527  0.2148  1.6770  1.0055
   18DOPE   H6S 2240   7.735   3.985  16.460  0.5627  0.0700  0.8060
   18DOPE   C27 2241   7.924   4.047  16.350 -0.3344  0.0549 -0.0282
   18DOPE   H7R 2242   7.906   4.024  16.243 -0.8532 -2.2822  0.5013
   18DOPE   H7S 2243   8.031   4.021  16.366 -0.1498  0.0098 -1.2388
   18DOPE   C28 2244   7.912   4.192  16.388 -0.5102 -0.2680 -0.2150
   18DOPE   H8R 2245   7.977   4.261  16.329 -2.8881  1.9177 -0.4406
   18DOPE   H8S 2246   7.935   4.207  16.495 -2.0114  0.2330  0.0551
   18DOPE   C29 2247   7.768   4.235  16.382 -0.1802  0.1115 -0.7472
   18DOPE   H9R 2248   7.725   4.235  16.483  1.2360 -0.0461 -0.1186
   18DOPE  C210 2249   7.702   4.284  16.276  0.5487  0.0005 -0.0952
   18DOPE  H10R 2250   7.600   4.321  16.294 -0.5976 -2.0928 -1.7835
   18DOPE  C211 2251   7.760   4.309  16.144 -0.3239  0.0035 -0.1468
   18DOPE  H11R 2252   7.858   4.259  16.126 -0.5778 -0.2110 -0.9612
   18DOPE  H11S 2253   7.779   4.418  16.138 -0.9478  0.0292 -2.9633
   18DOPE  C212 2254   7.669   4.285  16.020 -1.1546 -1.1085  0.2618
   18DOPE  H12R 2255   7.717   4.328  15.930 -0.9119  0.7525  1.2352
   18DOPE  H12S 2256   7.575   4.344  16.033 -0.6038  0.0734 -0.8749
   18DOPE  C213 2257   7.632   4.140  16.007  0.3127 -0.0076  0.2786
   18DOPE  H13R 2258   7.579   4.102  16.098  0.8272 -1.0905  0.1452
   18DOPE  H13S 2259   7.720   4.072  16.001 -0.5268 -1.0463 -0.9225
   18DOPE  C214 2260   7.551   4.111  15.883 -0.3829  0.2041  0.3372
   18DOPE  H14R 2261   7.615   4.133  15.794  0.3734 -3.3772 -0.1410
   18DOPE  H14S 2262   7.458   4.171  15.884  0.6183  1.8185 -0.0400
   18DOPE  C215 2263   7.522   3.957  15.859 -0.1977  0.0317  0.2341
   18DOPE  H15R 2264   7.453   3.929  15.941  1.0618  1.1126  1.7120
   18DOPE  H15S 2265   7.619   3.902  15.861 -1.1763 -1.7331  0.9979
   18DOPE  C216 2266   7.457   3.923  15.732 -0.4221  0.9055  0.4997
   18DOPE  H16R 2267   7.524   3.964  15.653 -1.7055  1.0472 -0.5413
   18DOPE  H16S 2268   7.366   3.985  15.728  0.8274  2.7483 -1.7777
   18DOPE  C217 2269   7.440   3.772  15.723  0.2545  0.0174  0.4782
   18DOPE  H17R 2270   7.382   3.736  15.810 -1.3794 -1.7885 -1.2511
   18DOPE  H17S 2271   7.538   3.719  15.729 -0.6627 -1.6649  1.1078
   18DOPE  C218 2272   7.364   3.723  15.597 -0.4253  0.0898  0.0005
   18DOPE  H18R 2273   7.406   3.775  15.509 -0.8193 -1.2416 -1.0122
   18DOPE  H18S 2274   7.260   3.754  15.622 -0.2472  0.3712  0.4100
   18DOPE  H18T 2275   7.368   3.612  15.591 -3.3864 -0.2359  1.7250
   18DOPE   C33 2276   7.657   3.053  16.330 -0.3103 -0.5041 -0.5367
   18DOPE   H3X 2277   7.621   2.954  16.296  1.5083 -0.9003 -1.4941
   18DOPE   H3Y 2278   7.735   3.095  16.262  1.3164 -1.6615  0.5221
   18DOPE   C34 2279   7.538   3.146  16.365  0.5577  0.4202  0.4449
   18DOPE   H4X 2280   7.476   3.091  16.440  0.1338  2.2921  1.5294
   18DOPE   H4Y 2281   7.561   3.249  16.400  0.0350  0.3720  0.9520
   18DOPE   C35 2282   7.458   3.162  16.234  0.1699  0.4501  0.1158
   18DOPE   H5X 2283   7.427   3.061  16.199  0.7318  0.2949  0.0475
   18DOPE   H5Y 2284   7.521   3.199  16.150  0.1613 -0.6076 -0.3804
   18DOPE   C36 2285   7.331   3.242  16.255 -0.0737 -0.0040 -1.2931
   18DOPE   H6X 2286   7.284   3.216  16.352  3.3925  1.8939  1.0788
   18DOPE   H6Y 2287   7.254   3.218  16.178 -0.0817 -0.1119 -1.2501
   18DOPE   C37 2288   7.358   3.395  16.254  0.4146  0.7458 -0.0486
   18DOPE   H7X 2289   7.286   3.447  16.321  1.3789  2.9427 -0.6411
   18DOPE   H7Y 2290   7.457   3.412  16.300  0.7991  0.8059 -0.8852
   18DOPE   C38 2291   7.339   3.451  16.115 -0.1868 -0.4116 -0.3523
   18DOPE   H8X 2292   7.238   3.419  16.081 -0.0716 -0.7510 -0.3825
   18DOPE   H8Y 2293   7.406   3.412  16.036  2.9531  2.4880  0.6470
   18DOPE   C39 2294   7.366   3.597  16.107 -0.4879 -0.0806  0.4539
   18DOPE   H9X 2295   7.472   3.623  16.118 -0.2749 -0.5437 -0.4014
   18DOPE  C310 2296   7.274   3.692  16.098  0.1468  0.1048  0.2097
   18DOPE  H10X 2297   7.305   3.796  16.083 -0.6706  0.7119  2.4028
   18DOPE  C311 2298   7.123   3.671  16.091 -0.4196  0.1338  1.1057
   18DOPE  H11X 2299   7.099   3.565  16.117  0.8506 -0.1737  1.0769
   18DOPE  H11Y 2300   7.067   3.738  16.160 -4.1136 -1.2201 -0.3120
   18DOPE  C312 2301   7.048   3.694  15.952  0.0052 -0.6207  0.5644
   18DOPE  H12X 2302   7.090   3.781  15.898 -1.4433 -0.6095 -0.5998
   18DOPE  H12Y 2303   6.943   3.731  15.964 -0.1646 -1.2017  0.9419
   18DOPE  C313 2304   7.036   3.567  15.866  0.0258  0.3988  0.1944
   18DOPE  H13X 2305   7.136   3.518  15.858 -1.2860 -2.6174  1.0567
   18DOPE  H13Y 2306   6.961   3.511  15.926 -1.5541 -1.0626 -2.9521
   18DOPE  C314 2307   6.993   3.593  15.722  0.0962  0.2801  0.1717
   18DOPE  H14X 2308   7.062   3.654  15.659 -1.0621  0.6892 -0.7471
   18DOPE  H14Y 2309   6.908   3.663  15.733  0.9027  1.0717  1.6568
   18DOPE  C315 2310   6.971   3.461  15.645  0.9398  0.1774  0.4382
   18DOPE  H15X 2311   6.897   3.405  15.706  1.0912  0.4077  0.8328
   18DOPE  H15Y 2312   7.070   3.411  15.645  1.0545  0.3821 -0.5928
   18DOPE  C316 2313   6.924   3.483  15.501 -0.1002  0.5522 -0.8545
   18DOPE  H16X 2314   6.913   3.379  15.464 -0.7844  0.1833  0.3379
   18DOPE  H16Y 2315   7.006   3.530  15.442  0.6898  0.6103  0.2599
   18DOPE  C317 2316   6.799   3.569  15.480  0.6920 -0.3627 -0.2725
   18DOPE  H17X 2317   6.715   3.521  15.533  0.5092 -1.9292 -1.8821
   18DOPE  H17Y 2318   6.818   3.671  15.521  1.0423  0.8232 -3.1456
   18DOPE  C318 2319   6.769   3.581  15.328 -0.4033 -0.4501 -0.0898
   18DOPE  H18X 2320   6.850   3.636  15.275 -0.5221  1.1042  1.2607
   18DOPE  H18Y 2321   6.771   3.485  15.272  0.6704 -0.5005  0.0166
   18DOPE  H18Z 2322   6.669   3.622  15.301  0.2190  0.1544 -1.6190
   19DOPE     N 2323   7.339   5.193  16.880 -0.3572 -0.7574  0.7035
   19DOPE   HN1 2324   7.269   5.214  16.806 -1.4717 -0.9486  1.6632
   19DOPE   HN2 2325   7.422   5.255  16.874 -1.1477  0.2065 -1.2230
   19DOPE   HN3 2326   7.362   5.094  16.861 -1.7840 -0.8454 -0.7596
   19DOPE   C12 2327   7.268   5.191  17.006 -0.2519 -0.4465 -1.1153
   19DOPE  H12A 2328   7.251   5.299  17.028  2.1706  0.0652 -1.4887
   19DOPE  H12B 2329   7.330   5.159  17.093 -3.2644  0.2041  1.4624
   19DOPE   C11 2330   7.137   5.115  17.003  0.1146  0.4852  0.1898
   19DOPE  H11A 2331   7.088   5.122  17.103  0.0567  0.2181  0.1810
   19DOPE  H11B 2332   7.165   5.008  16.995  1.2552  0.8670 -1.4115
   19DOPE     P 2333   6.900   5.152  16.883 -0.4662 -0.1503  0.3581
   19DOPE   O13 2334   6.858   5.294  16.897  0.3289 -0.0581  0.0997
   19DOPE   O14 2335   6.853   5.059  16.987 -0.5547 -0.2805 -0.0202
   19DOPE   O11 2336   6.865   5.107  16.739 -0.0711 -0.3814 -0.1628
   19DOPE   O12 2337   7.060   5.148  16.882 -0.3076 -0.7439 -0.1487
   19DOPE    C1 2338   6.901   4.976  16.690  0.5993  0.1374 -0.0014
   19DOPE    HA 2339   6.835   4.951  16.605  1.3801 -0.0384 -0.5698
   19DOPE    HB 2340   6.884   4.899  16.769 -1.1220  1.1316  0.6413
   19DOPE    C2 2341   7.041   4.963  16.633 -0.1055 -0.0351  0.7709
   19DOPE    HS 2342   7.106   4.971  16.722  0.4392 -1.1870  0.4996
   19DOPE   O21 2343   7.057   5.076  16.540 -0.1602  0.0544 -0.4152
   19DOPE   C21 2344   7.184   5.121  16.537 -0.2227 -0.2175  0.5841
   19DOPE   O22 2345   7.279   5.073  16.596  0.6395 -0.9961 -0.8357
   19DOPE   C22 2346   7.192   5.225  16.423  0.9400 -0.0137  0.2212
   19DOPE   H2R 2347   7.127   5.311  16.451 -0.4008 -0.8064 -0.3390
   19DOPE   H2S 2348   7.140   5.171  16.341 -0.1190  1.1157  0.1237
   19DOPE    C3 2349   7.063   4.824  16.566  0.1735  0.1535  0.5616
   19DOPE    HX 2350   7.059   4.752  16.651 -0.2401 -0.6631 -0.1391
   19DOPE    HY 2351   7.159   4.836  16.511 -1.0323  1.9292 -1.2732
   19DOPE   O31 2352   6.948   4.799  16.477 -0.3424  0.1095 -0.8221
   19DOPE   C31 2353   6.949   4.680  16.426 -0.1748  0.4431  0.2769
   19DOPE   O32 2354   7.029   4.589  16.452 -0.2508 -0.4734  0.0467
   19DOPE   C32 2355   6.831   4.672  16.330 -0.2779  0.6980  0.2731
   19DOPE   H2X 2356   6.743   4.646  16.394 -0.7760  0.8785 -0.3292
   19DOPE   H2Y 2357   6.805   4.770  16.284 -1.8790  0.0389 -0.2969
   19DOPE   C23 2358   7.333   5.269  16.407  0.3132 -0.0157 -0.3182
   19DOPE   H3R 2359   7.385   5.281  16.505  3.2588  1.1691 -1.8862
   19DOPE   H3S 2360   7.327   5.371  16.364 -0.3074  0.6185  1.2124
   19DOPE   C24 2361   7.425   5.183  16.325 -0.1583 -1.0762 -0.4942
   19DOPE   H4R 2362   7.464   5.095  16.380 -1.2782 -0.8425  0.7167
   19DOPE   H4S 2363   7.515   5.239  16.292  1.0992 -1.4537  2.0365
   19DOPE   C25 2364   7.361   5.130  16.195  0.3787  0.3828 -0.0828
   19DOPE   H5R 2365   7.310   5.212  16.139  1.0609  2.7462  2.5049
   19DOPE   H5S 2366   7.283   5.052  16.207  1.7472 -0.9461  0.5722
   19DOPE   C26 2367   7.469   5.062  16.102  0.2637 -0.0370  0.0686
   19DOPE   H6R 2368   7.505   4.972  16.157 -0.0404  0.5801  1.3162
   19DOPE   H6S 2369   7.547   5.133  16.068  0.1902 -0.4468 -0.9763
   19DOPE   C27 2370   7.409   5.013  15.968  0.3431  0.4637  0.1650
   19DOPE   H7R 2371   7.371   5.102  15.915  0.5335  1.0898  1.0640
   19DOPE   H7S 2372   7.323   4.943  15.981  0.4690  0.3472  0.3627
   19DOPE   C28 2373   7.519   4.955  15.869  0.9465  0.3369 -0.2817
   19DOPE   H8R 2374   7.584   4.878  15.915  0.9424  1.0267  0.9185
   19DOPE   H8S 2375   7.589   5.038  15.847 -0.2185  1.0728 -1.3990
   19DOPE   C29 2376   7.447   4.900  15.747 -0.1915 -0.7479  0.2093
   19DOPE   H9R 2377   7.387   4.977  15.697  1.4295 -0.0880 -0.8002
   19DOPE  C210 2378   7.450   4.775  15.707 -0.1448 -0.0056  0.5721
   19DOPE  H10R 2379   7.383   4.745  15.625  0.4238  1.6409 -0.5676
   19DOPE  C211 2380   7.521   4.658  15.775  0.1661  0.4441  0.3395
   19DOPE  H11R 2381   7.501   4.669  15.884  1.4592  2.4791  0.4157
   19DOPE  H11S 2382   7.628   4.669  15.747  0.4155  0.5216  1.2859
   19DOPE  C212 2383   7.474   4.511  15.725 -0.5209 -0.1155 -0.5469
   19DOPE  H12R 2384   7.369   4.504  15.761 -0.9602  2.0853 -1.2494
   19DOPE  H12S 2385   7.530   4.433  15.781  2.2742  1.5194 -0.8785
   19DOPE  C213 2386   7.482   4.481  15.577 -0.2324  0.5142  0.1246
   19DOPE  H13R 2387   7.575   4.505  15.522 -0.7138  1.5138 -0.2675
   19DOPE  H13S 2388   7.401   4.541  15.530  1.6832  2.9546 -0.2439
   19DOPE  C214 2389   7.468   4.325  15.562 -0.1120 -0.6683 -0.3230
   19DOPE  H14R 2390   7.382   4.297  15.626  0.6193  1.6830  1.8817
   19DOPE  H14S 2391   7.558   4.268  15.596  1.2994  3.3887  3.8172
   19DOPE  C215 2392   7.425   4.280  15.425 -0.3358  0.6320  0.2829
   19DOPE  H15R 2393   7.502   4.296  15.346 -0.2656 -1.9252 -0.2284
   19DOPE  H15S 2394   7.335   4.342  15.403 -0.7180  0.7000  1.9266
   19DOPE  C216 2395   7.385   4.133  15.427 -0.6325  0.2487 -0.4591
   19DOPE  H16R 2396   7.308   4.116  15.504  1.1778 -0.2962  1.3109
   19DOPE  H16S 2397   7.482   4.091  15.463 -1.9627 -2.4296  0.2383
   19DOPE  C217 2398   7.334   4.072  15.292 -0.2823  0.1719 -0.3087
   19DOPE  H17R 2399   7.413   4.102  15.220  1.7990 -1.3781  1.2127
   19DOPE  H17S 2400   7.246   4.133  15.262  0.9145  2.5427  0.6565
   19DOPE  C218 2401   7.304   3.926  15.297  0.2971 -0.2435  0.0963
   19DOPE  H18R 2402   7.269   3.884  15.200  1.3591  2.9850 -1.8158
   19DOPE  H18S 2403   7.228   3.900  15.374  0.2801 -1.0591 -0.1799
   19DOPE  H18T 2404   7.396   3.874  15.333  0.5762  2.1024  3.1535
   19DOPE   C33 2405   6.854   4.562  16.212  0.2430 -0.4257  0.6548
   19DOPE   H3X 2406   6.855   4.460  16.254 -0.5452 -0.0476  1.6167
   19DOPE   H3Y 2407   6.958   4.574  16.172  1.0580 -1.5339  2.3537
   19DOPE   C34 2408   6.752   4.580  16.098 -0.5387 -0.2104  0.6104
   19DOPE   H4X 2409   6.646   4.561  16.125 -1.4010  1.8802 -1.0216
   19DOPE   H4Y 2410   6.748   4.685  16.062 -0.9714 -0.2982  0.4025
   19DOPE   C35 2411   6.793   4.497  15.975 -0.3493 -0.0321  0.3422
   19DOPE   H5X 2412   6.713   4.501  15.897 -2.1215  1.5238  2.1512
   19DOPE   H5Y 2413   6.824   4.398  16.014  2.4383  1.7822  3.1264
   19DOPE   C36 2414   6.914   4.565  15.899  0.1996  0.1218 -0.5216
   19DOPE   H6X 2415   7.008   4.559  15.958  0.2313 -1.9893 -0.6933
   19DOPE   H6Y 2416   6.886   4.671  15.879 -2.2563 -0.4605 -0.4843
   19DOPE   C37 2417   6.935   4.503  15.762  0.5990 -0.7331 -1.1567
   19DOPE   H7X 2418   6.957   4.396  15.782 -0.5966 -1.5776 -3.8713
   19DOPE   H7Y 2419   6.841   4.514  15.704 -0.3200  0.5513  0.4796
   19DOPE   C38 2420   7.068   4.559  15.689 -0.4471  0.1740  0.0813
   19DOPE   H8X 2421   7.151   4.557  15.764  0.5988  0.1270 -1.0486
   19DOPE   H8Y 2422   7.059   4.665  15.656 -0.4562 -0.0369 -0.5966
   19DOPE   C39 2423   7.099   4.470  15.566  0.2378  0.0224  0.4029
   19DOPE   H9X 2424   7.108   4.366  15.601  1.8725 -0.6517 -1.8388
   19DOPE  C310 2425   7.098   4.501  15.432  0.4119  0.4689 -0.3733
   19DOPE  H10X 2426   7.112   4.420  15.359  0.4286 -1.1703  1.3699
   19DOPE  C311 2427   7.062   4.633  15.375 -0.7140 -0.2059 -0.3856
   19DOPE  H11X 2428   6.994   4.627  15.287 -0.7088 -1.2228 -0.3253
   19DOPE  H11Y 2429   7.005   4.693  15.449 -0.6075 -1.3207  0.6114
   19DOPE  C312 2430   7.196   4.698  15.328 -0.5943  0.0209 -0.0444
   19DOPE  H12X 2431   7.257   4.728  15.416 -1.5725  2.1180  0.0009
   19DOPE  H12Y 2432   7.170   4.796  15.282  1.7806 -0.3964 -2.4922
   19DOPE  C313 2433   7.285   4.618  15.228  0.5278  0.3843  0.3249
   19DOPE  H13X 2434   7.374   4.677  15.199 -0.1834  0.5897 -1.6229
   19DOPE  H13Y 2435   7.312   4.527  15.286 -0.2419 -0.5965 -0.7968
   19DOPE  C314 2436   7.216   4.567  15.101  1.1018 -0.3101 -0.4699
   19DOPE  H14X 2437   7.191   4.664  15.052 -1.5665 -0.7571 -0.1072
   19DOPE  H14Y 2438   7.117   4.520  15.121  1.4306 -0.5438  0.6739
   19DOPE  C315 2439   7.310   4.474  15.024  0.5280  1.0291 -0.2310
   19DOPE  H15X 2440   7.303   4.372  15.066  1.5892  1.5201  1.2016
   19DOPE  H15Y 2441   7.415   4.505  15.041  0.6115  0.9148 -0.5263
   19DOPE  C316 2442   7.273   4.460  14.874 -0.0378  0.2514 -0.3717
   19DOPE  H16X 2443   7.335   4.390  14.814  0.8279 -0.7924  1.6020
   19DOPE  H16Y 2444   7.300   4.560  14.833  0.2082  0.2468 -0.2293
   19DOPE  C317 2445   7.124   4.428  14.852 -0.4211 -0.4478  0.3671
   19DOPE  H17X 2446   7.101   4.335  14.908 -3.0936  0.7027  1.3455
   19DOPE  H17Y 2447   7.072   4.518  14.892  1.7095  0.2199  1.8456
   19DOPE  C318 2448   7.097   4.401  14.707  0.1680 -0.0083 -0.0951
   19DOPE  H18X 2449   7.148   4.311  14.665 -0.7223 -0.3156 -0.5452
   19DOPE  H18Y 2450   6.988   4.383  14.692  0.2687 -0.7484  0.0368
   19DOPE  H18Z 2451   7.137   4.489  14.653  2.7153  0.9288  3.0060
   20DOPE     N 2452   5.708   7.288  17.067  0.0655  0.1618 -0.4794
   20DOPE   HN1 2453   5.677   7.189  17.072 -2.0044  0.8507  1.6230
   20DOPE   HN2 2454   5.810   7.294  17.046  0.2343  2.5782  0.6856
   20DOPE   HN3 2455   5.685   7.337  17.155 -2.3845  1.1077 -1.5641
   20DOPE   C12 2456   5.624   7.347  16.954  0.2944 -0.3534 -0.7032
   20DOPE  H12A 2457   5.671   7.437  16.909 -0.8451  0.8259  0.3646
   20DOPE  H12B 2458   5.531   7.384  17.002 -0.2928 -1.3396 -1.0649
   20DOPE   C11 2459   5.596   7.249  16.841 -0.2250  0.4635  0.2191
   20DOPE  H11A 2460   5.564   7.313  16.755  1.9241 -0.9313 -1.7598
   20DOPE  H11B 2461   5.512   7.182  16.869  0.6188 -1.8376 -2.2850
   20DOPE     P 2462   5.738   7.021  16.831 -0.3588 -0.0418  0.2118
   20DOPE   O13 2463   5.772   6.990  16.972 -0.0791 -0.1627 -0.1213
   20DOPE   O14 2464   5.841   6.977  16.732  0.3954 -0.3514 -0.0986
   20DOPE   O11 2465   5.596   6.953  16.813 -0.6509  0.3510  0.0357
   20DOPE   O12 2466   5.705   7.174  16.805 -0.0726 -0.1737 -0.6705
   20DOPE    C1 2467   5.582   6.839  16.721 -0.3120  0.3286 -0.0823
   20DOPE    HA 2468   5.479   6.802  16.744 -0.7218  2.1469  1.3032
   20DOPE    HB 2469   5.646   6.750  16.731 -3.3247 -2.3685 -2.6958
   20DOPE    C2 2470   5.590   6.886  16.570 -0.1874 -0.2000  0.4894
   20DOPE    HS 2471   5.695   6.918  16.552 -1.0275  3.1890  0.8685
   20DOPE   O21 2472   5.503   7.003  16.556 -0.0787  0.2614 -0.4129
   20DOPE   C21 2473   5.535   7.087  16.459 -0.4365  0.2434 -0.1166
   20DOPE   O22 2474   5.631   7.066  16.387 -0.2316 -0.3832  0.2137
   20DOPE   C22 2475   5.458   7.212  16.458 -0.7478  0.1473  0.7218
   20DOPE   H2R 2476   5.533   7.285  16.495  2.2658 -2.3637 -0.0065
   20DOPE   H2S 2477   5.371   7.213  16.527  0.2360  2.8307  2.0567
   20DOPE    C3 2478   5.557   6.777  16.468  0.1415 -0.5533  0.0168
   20DOPE    HX 2479   5.448   6.786  16.449  0.4859  0.7802 -1.4644
   20DOPE    HY 2480   5.573   6.679  16.518 -1.1577  0.5095  2.7242
   20DOPE   O31 2481   5.638   6.792  16.347 -0.4318  0.1921  0.3815
   20DOPE   C31 2482   5.576   6.840  16.240 -0.4673  0.2912 -0.4950
   20DOPE   O32 2483   5.458   6.872  16.237 -0.4587 -0.7155  0.3463
   20DOPE   C32 2484   5.673   6.844  16.119  0.2105  0.4240  0.0328
   20DOPE   H2X 2485   5.772   6.877  16.159  0.5350 -0.3522 -0.1179
   20DOPE   H2Y 2486   5.678   6.742  16.076 -2.1204 -0.3522  1.4439
   20DOPE   C23 2487   5.418   7.257  16.312 -0.1954 -0.1310 -0.2987
   20DOPE   H3R 2488   5.494   7.266  16.231  2.2480 -0.8018  1.7924
   20DOPE   H3S 2489   5.389   7.364  16.320  1.9256  0.4898 -0.4290
   20DOPE   C24 2490   5.289   7.188  16.265 -0.1998  0.0502  0.6802
   20DOPE   H4R 2491   5.212   7.211  16.341  0.0183 -0.3033  1.0152
   20DOPE   H4S 2492   5.302   7.078  16.255  1.1577  0.3977 -2.8252
   20DOPE   C25 2493   5.247   7.247  16.128  0.5535  0.9080 -0.3909
   20DOPE   H5R 2494   5.338   7.270  16.069  0.4201  0.0857 -0.9207
   20DOPE   H5S 2495   5.201   7.341  16.165 -1.0313 -0.1560  0.4481
   20DOPE   C26 2496   5.150   7.172  16.041 -0.3235  0.1796  0.0798
   20DOPE   H6R 2497   5.202   7.075  16.025 -0.5910  0.2681 -1.5480
   20DOPE   H6S 2498   5.134   7.235  15.951  0.4433  2.6108  1.5420
   20DOPE   C27 2499   5.019   7.129  16.109  0.2076 -0.3869 -0.0245
   20DOPE   H7R 2500   4.973   7.213  16.165  1.0393 -0.1762  0.3588
   20DOPE   H7S 2501   5.046   7.051  16.184 -2.8084 -0.0383  1.5600
   20DOPE   C28 2502   4.919   7.074  16.014 -0.0947  0.2266  0.4324
   20DOPE   H8R 2503   4.967   7.000  15.946 -0.9266  1.5141 -1.6628
   20DOPE   H8S 2504   4.889   7.161  15.950  0.6641 -1.0747 -1.8239
   20DOPE   C29 2505   4.793   7.018  16.076 -0.6747  0.2113  0.6185
   20DOPE   H9R 2506   4.742   7.084  16.148  0.4535  1.5369  0.2362
   20DOPE  C210 2507   4.735   6.905  16.049  0.6791  0.0812 -0.3698
   20DOPE  H10R 2508   4.644   6.875  16.104  0.3405 -1.4756 -1.6983
   20DOPE  C211 2509   4.782   6.806  15.944  0.3574  0.2428 -0.3584
   20DOPE  H11R 2510   4.763   6.701  15.976  0.6648  0.6645  1.2999
   20DOPE  H11S 2511   4.889   6.812  15.917  0.5802 -0.3184  0.3859
   20DOPE  C212 2512   4.706   6.846  15.823  0.1810 -0.6345  0.2717
   20DOPE  H12R 2513   4.717   6.953  15.799  3.9830 -1.3046 -1.6865
   20DOPE  H12S 2514   4.596   6.827  15.817  0.1019  0.2798 -2.8046
   20DOPE  C213 2515   4.757   6.765  15.704  0.0394 -0.2436  0.5024
   20DOPE  H13R 2516   4.744   6.654  15.704  0.9010 -0.4649 -3.1420
   20DOPE  H13S 2517   4.865   6.789  15.693  0.3647 -1.7082  0.1620
   20DOPE  C214 2518   4.681   6.811  15.580 -0.0189  1.2418  0.7292
   20DOPE  H14R 2519   4.679   6.921  15.565 -0.7645  1.2917  1.1592
   20DOPE  H14S 2520   4.575   6.784  15.601 -0.0952  0.6670 -0.3108
   20DOPE  C215 2521   4.738   6.735  15.453  0.1831 -0.1554 -0.1903
   20DOPE  H15R 2522   4.723   6.626  15.468  2.1930 -0.7155 -1.8602
   20DOPE  H15S 2523   4.848   6.749  15.453  0.1188  0.7581 -2.5532
   20DOPE  C216 2524   4.671   6.772  15.321 -0.6811 -0.6279 -0.0199
   20DOPE  H16R 2525   4.663   6.882  15.306 -1.2276 -0.4180  1.6890
   20DOPE  H16S 2526   4.571   6.724  15.325 -0.9599 -0.2172 -1.3870
   20DOPE  C217 2527   4.747   6.717  15.201 -0.6184  0.4581 -0.6158
   20DOPE  H17R 2528   4.830   6.782  15.165 -0.6227  0.7883 -0.0314
   20DOPE  H17S 2529   4.674   6.722  15.117 -2.5052  1.0521  1.0074
   20DOPE  C218 2530   4.799   6.574  15.211 -0.2989  0.0496  0.3413
   20DOPE  H18R 2531   4.836   6.532  15.115 -0.8489 -0.7406  0.4635
   20DOPE  H18S 2532   4.719   6.499  15.227 -2.0749  0.8104 -3.7816
   20DOPE  H18T 2533   4.872   6.572  15.295  0.1521  4.1028  0.2369
   20DOPE   C33 2534   5.649   6.959  16.013 -0.0975 -1.0392 -0.1604
   20DOPE   H3X 2535   5.668   7.057  16.061 -1.2474 -1.2785  0.8387
   20DOPE   H3Y 2536   5.542   6.958  15.981  0.5315  1.1382 -2.7001
   20DOPE   C34 2537   5.747   6.951  15.894  0.6923 -0.2243  0.0664
   20DOPE   H4X 2538   5.840   6.905  15.934 -0.4985 -0.1746  3.1622
   20DOPE   H4Y 2539   5.694   6.881  15.825 -0.5898 -0.8603  1.6419
   20DOPE   C35 2540   5.769   7.090  15.824  0.0840 -0.1815  0.3835
   20DOPE   H5X 2541   5.826   7.157  15.892  2.7644 -0.3906 -1.4927
   20DOPE   H5Y 2542   5.669   7.133  15.805  0.2858  0.1563  0.0806
   20DOPE   C36 2543   5.856   7.079  15.696 -0.0324  0.0674 -0.7291
   20DOPE   H6X 2544   5.886   7.182  15.668  3.0659 -0.8574 -1.1938
   20DOPE   H6Y 2545   5.795   7.022  15.622  1.8842 -1.8450 -0.9409
   20DOPE   C37 2546   5.993   7.013  15.710  1.2095 -0.4289  0.2866
   20DOPE   H7X 2547   6.053   7.084  15.772  0.4046 -1.0037  1.7613
   20DOPE   H7Y 2548   5.990   6.916  15.764  2.1688  0.1724  1.4619
   20DOPE   C38 2549   6.071   6.992  15.576  0.4629 -0.4950 -0.4515
   20DOPE   H8X 2550   6.071   7.089  15.522  2.0808 -0.3931 -0.3165
   20DOPE   H8Y 2551   6.013   6.932  15.502  2.1138 -0.9215 -1.4621
   20DOPE   C39 2552   6.210   6.949  15.595  0.4150 -0.0978 -0.4741
   20DOPE   H9X 2553   6.224   6.869  15.669 -0.5323 -0.0062 -0.1846
   20DOPE  C310 2554   6.320   7.007  15.539  0.8143  0.4139  0.0313
   20DOPE  H10X 2555   6.420   6.965  15.556 -0.5704 -2.6015  1.5721
   20DOPE  C311 2556   6.325   7.121  15.447  0.3484 -0.1490  0.1074
   20DOPE  H11X 2557   6.231   7.176  15.423 -0.9045 -0.9244  2.8417
   20DOPE  H11Y 2558   6.386   7.193  15.506  1.5146 -2.2666  1.5945
   20DOPE  C312 2559   6.404   7.087  15.319 -0.5196  0.2020  0.0112
   20DOPE  H12X 2560   6.506   7.046  15.337 -0.3430  0.9713  0.8157
   20DOPE  H12Y 2561   6.428   7.181  15.265 -1.0902  0.2120 -0.2328
   20DOPE  C313 2562   6.327   7.004  15.218 -0.3849  0.0168  0.2972
   20DOPE  H13X 2563   6.402   6.978  15.140 -0.1940 -0.4220  0.6198
   20DOPE  H13Y 2564   6.306   6.908  15.270 -1.7468  0.2368  0.1866
   20DOPE  C314 2565   6.188   7.063  15.182 -0.3746 -0.3865 -0.2702
   20DOPE  H14X 2566   6.206   7.169  15.154 -0.1950 -0.4614 -0.4401
   20DOPE  H14Y 2567   6.124   7.057  15.272 -0.4127 -0.5063 -0.3048
   20DOPE  C315 2568   6.112   6.993  15.065 -0.1259  0.3352  0.0663
   20DOPE  H15X 2569   6.119   6.882  15.065 -2.3086  0.1344 -1.6051
   20DOPE  H15Y 2570   6.147   7.026  14.965 -1.2643 -0.3783 -0.5848
   20DOPE  C316 2571   5.953   7.022  15.075 -0.8472 -0.8377  0.1263
   20DOPE  H16X 2572   5.902   7.010  14.977 -0.5948 -1.1780  0.0309
   20DOPE  H16Y 2573   5.939   7.128  15.106  1.7079 -0.8337  1.6119
   20DOPE  C317 2574   5.886   6.918  15.175 -0.0060 -0.4660  0.5635
   20DOPE  H17X 2575   5.899   6.818  15.128 -0.2350 -0.8226  1.2461
   20DOPE  H17Y 2576   5.955   6.917  15.263  2.3280  2.0380 -1.0840
   20DOPE  C318 2577   5.738   6.944  15.216 -0.3902  0.9987  0.7916
   20DOPE  H18X 2578   5.683   6.847  15.217  0.1742  0.6722  0.4575
   20DOPE  H18Y 2579   5.726   6.981  15.321 -2.1734  3.4278 -0.1721
   20DOPE  H18Z 2580   5.679   7.014  15.153 -0.6396 -1.3106 -1.6909
   21DOPE     N 2581   3.444   7.568  17.106  0.0783 -0.3025 -0.1296
   21DOPE   HN1 2582   3.359   7.625  17.084 -0.7135 -1.8901 -1.3630
   21DOPE   HN2 2583   3.426   7.505  17.186 -0.2543  0.2491  0.2386
   21DOPE   HN3 2584   3.520   7.632  17.137 -0.0489  0.1342 -0.6969
   21DOPE   C12 2585   3.488   7.489  16.982 -0.0408  0.1787  0.8732
   21DOPE  H12A 2586   3.593   7.463  17.008  0.4706  0.8107 -0.4504
   21DOPE  H12B 2587   3.477   7.561  16.897  5.4635 -0.1910 -0.5526
   21DOPE   C11 2588   3.385   7.372  16.968 -1.0708 -0.2257  0.6947
   21DOPE  H11A 2589   3.414   7.295  17.043 -1.5222 -0.1829  0.9183
   21DOPE  H11B 2590   3.398   7.318  16.872 -1.1188  0.4997  0.2767
   21DOPE     P 2591   3.140   7.326  16.955 -0.0684 -0.0269 -0.1245
   21DOPE   O13 2592   3.020   7.378  17.025  0.2757 -0.3554  0.3991
   21DOPE   O14 2593   3.174   7.184  16.979 -0.4738  0.1151  0.2774
   21DOPE   O11 2594   3.118   7.353  16.795 -0.5414  0.0596 -0.4420
   21DOPE   O12 2595   3.258   7.422  16.996 -0.2074 -1.0687 -0.1361
   21DOPE    C1 2596   3.153   7.473  16.740 -0.5881  0.5619  0.1923
   21DOPE    HA 2597   3.262   7.495  16.736 -1.1144  3.3872 -1.1751
   21DOPE    HB 2598   3.130   7.552  16.815 -0.8294  0.1688  0.5331
   21DOPE    C2 2599   3.095   7.511  16.605  0.4534 -0.0544 -0.5800
   21DOPE    HS 2600   2.988   7.528  16.625  0.9050  1.1275  1.0187
   21DOPE   O21 2601   3.143   7.420  16.494  0.4167 -0.6560 -0.1629
   21DOPE   C21 2602   3.066   7.318  16.479  0.6254 -0.6207 -0.7667
   21DOPE   O22 2603   2.968   7.293  16.543  0.3554 -0.2524 -0.2802
   21DOPE   C22 2604   3.120   7.238  16.359 -0.4878 -0.6680 -0.8387
   21DOPE   H2R 2605   3.058   7.147  16.351 -1.9241 -0.0660  2.1500
   21DOPE   H2S 2606   3.220   7.197  16.384 -0.6674 -0.1269  0.8901
   21DOPE    C3 2607   3.143   7.659  16.566  0.5012 -0.0745 -0.3003
   21DOPE    HX 2608   3.250   7.655  16.536  0.8092  1.2451  0.5327
   21DOPE    HY 2609   3.141   7.728  16.653  3.8637 -1.3024  0.8964
   21DOPE   O31 2610   3.064   7.708  16.455 -0.6610 -0.4551 -0.0758
   21DOPE   C31 2611   3.104   7.834  16.412 -0.0348 -0.1621  0.0122
   21DOPE   O32 2612   3.196   7.903  16.459 -0.6916  0.2336 -0.1828
   21DOPE   C32 2613   3.019   7.871  16.288 -0.0260  0.0833 -0.0751
   21DOPE   H2X 2614   2.930   7.806  16.303  0.3994 -0.1699  1.6083
   21DOPE   H2Y 2615   2.983   7.975  16.304 -0.4178  0.0933 -0.9817
   21DOPE   C23 2616   3.115   7.314  16.219 -0.5223  0.4919 -0.2676
   21DOPE   H3R 2617   3.146   7.241  16.142 -1.9594 -1.0396  0.5473
   21DOPE   H3S 2618   3.181   7.403  16.216  0.9571 -0.5009  1.1906
   21DOPE   C24 2619   2.970   7.361  16.184 -0.0755  0.4874  0.4048
   21DOPE   H4R 2620   2.980   7.415  16.087  1.0916 -0.8117 -0.2425
   21DOPE   H4S 2621   2.935   7.444  16.249 -1.6129  1.7769 -1.9304
   21DOPE   C25 2622   2.863   7.253  16.165  0.0641 -0.8844  0.4658
   21DOPE   H5R 2623   2.764   7.301  16.155  1.1865  1.8408  1.4190
   21DOPE   H5S 2624   2.867   7.191  16.256  0.4755  1.1670  1.9217
   21DOPE   C26 2625   2.875   7.150  16.048  0.1566  0.6472 -0.5061
   21DOPE   H6R 2626   2.801   7.077  16.085  1.5227 -0.1067  0.8751
   21DOPE   H6S 2627   2.971   7.093  16.052 -0.8474 -1.0483  0.3124
   21DOPE   C27 2628   2.859   7.212  15.907  0.1079  0.1686 -0.1239
   21DOPE   H7R 2629   2.957   7.255  15.878  1.5169 -2.7963 -0.2250
   21DOPE   H7S 2630   2.776   7.285  15.912 -1.2948 -1.4052  1.1833
   21DOPE   C28 2631   2.825   7.102  15.803  0.0550 -0.3722 -0.4257
   21DOPE   H8R 2632   2.800   7.159  15.711 -2.1783 -0.6215 -0.0302
   21DOPE   H8S 2633   2.727   7.060  15.835  0.3941  0.5839  2.1499
   21DOPE   C29 2634   2.927   6.993  15.777  0.9426 -0.0240  0.8389
   21DOPE   H9R 2635   2.965   6.929  15.859  0.3365 -0.5925  0.6801
   21DOPE  C210 2636   2.970   6.962  15.652 -0.4200 -0.1766 -0.0027
   21DOPE  H10R 2637   3.041   6.880  15.636  0.4997  0.0323  2.6011
   21DOPE  C211 2638   2.935   7.030  15.517  0.1580 -0.1524 -0.0536
   21DOPE  H11R 2639   2.965   7.137  15.524 -0.1035 -0.0142 -0.9949
   21DOPE  H11S 2640   2.824   7.029  15.504 -0.1310  1.5791  1.7302
   21DOPE  C212 2641   2.997   6.968  15.398 -0.1783  0.1638 -0.0955
   21DOPE  H12R 2642   2.967   6.861  15.385 -1.8496  0.6127 -0.1972
   21DOPE  H12S 2643   3.107   6.972  15.413 -0.4397  2.2442  1.6933
   21DOPE  C213 2644   2.958   7.040  15.266 -0.1128 -0.3494  0.4356
   21DOPE  H13R 2645   2.849   7.061  15.260  0.3062  2.0154  0.3025
   21DOPE  H13S 2646   2.985   6.977  15.179 -0.6083  0.2906 -0.1896
   21DOPE  C214 2647   3.026   7.176  15.254 -0.0433  0.7794 -0.4291
   21DOPE  H14R 2648   3.132   7.163  15.284 -0.1761  0.8318  0.0719
   21DOPE  H14S 2649   2.988   7.250  15.327  2.1149 -0.0275  1.6311
   21DOPE  C215 2650   3.010   7.247  15.114 -0.4804 -0.7922 -0.0856
   21DOPE  H15R 2651   2.908   7.271  15.078  0.5350  1.1428 -1.8608
   21DOPE  H15S 2652   3.043   7.168  15.043 -0.4968 -1.3162  0.4806
   21DOPE  C216 2653   3.098   7.373  15.112 -1.0931 -0.0057  0.1391
   21DOPE  H16R 2654   3.207   7.354  15.122 -1.1912  0.0935  1.7065
   21DOPE  H16S 2655   3.071   7.437  15.199  0.4301 -2.9612  2.9977
   21DOPE  C217 2656   3.074   7.453  14.970 -0.5233  0.2901 -0.7690
   21DOPE  H17R 2657   2.963   7.462  14.971 -0.4839  0.7196 -0.2842
   21DOPE  H17S 2658   3.106   7.393  14.882  3.2833  1.2827 -0.2427
   21DOPE  C218 2659   3.148   7.583  14.952  0.6429  0.4037  0.0680
   21DOPE  H18R 2660   3.256   7.558  14.959  0.4156 -0.9743 -0.8203
   21DOPE  H18S 2661   3.125   7.651  15.037  2.2171 -2.0512  2.6435
   21DOPE  H18T 2662   3.129   7.623  14.850 -0.8870  1.0990  0.5997
   21DOPE   C33 2663   3.085   7.853  16.155 -0.3651 -0.4883 -0.3012
   21DOPE   H3X 2664   3.159   7.931  16.129 -1.5514  0.3133 -1.4187
   21DOPE   H3Y 2665   3.006   7.870  16.078  0.6356  1.4468 -0.9619
   21DOPE   C34 2666   3.140   7.709  16.125  0.0331 -0.0438  0.6127
   21DOPE   H4X 2667   3.100   7.639  16.201 -2.0912 -0.2758 -0.6495
   21DOPE   H4Y 2668   3.098   7.674  16.028  0.2913  0.8264  0.1722
   21DOPE   C35 2669   3.285   7.712  16.103  0.5035  0.6266  0.0033
   21DOPE   H5X 2670   3.338   7.706  16.201  0.2709  1.6531  0.2047
   21DOPE   H5Y 2671   3.324   7.808  16.063 -2.5115  2.4135  0.9557
   21DOPE   C36 2672   3.340   7.589  16.026 -0.3874 -0.1878 -0.1625
   21DOPE   H6X 2673   3.289   7.556  15.934 -0.3681 -2.8230  0.6818
   21DOPE   H6Y 2674   3.335   7.508  16.103 -1.8359  0.0474  0.0158
   21DOPE   C37 2675   3.492   7.611  16.008  0.3860  0.0335 -0.6133
   21DOPE   H7X 2676   3.503   7.715  15.970 -2.3554  1.5622  2.2507
   21DOPE   H7Y 2677   3.529   7.616  16.113  0.5082 -1.8704 -0.5441
   21DOPE   C38 2678   3.569   7.513  15.915  0.4394  0.6928 -0.3867
   21DOPE   H8X 2679   3.539   7.547  15.814  0.0005 -0.1803 -0.5615
   21DOPE   H8Y 2680   3.526   7.411  15.929 -0.8916  1.1739 -0.8391
   21DOPE   C39 2681   3.716   7.508  15.937 -0.2781  0.0414 -0.5087
   21DOPE   H9X 2682   3.758   7.581  16.007 -0.7703  0.0711 -0.2343
   21DOPE  C310 2683   3.793   7.409  15.880  0.5176 -0.3730 -0.1231
   21DOPE  H10X 2684   3.899   7.395  15.903  0.7935  1.0606 -0.4295
   21DOPE  C311 2685   3.728   7.306  15.786 -0.4068  0.5046  0.0043
   21DOPE  H11X 2686   3.661   7.237  15.841 -1.1030 -0.4219 -1.9347
   21DOPE  H11Y 2687   3.660   7.367  15.723 -1.7238 -1.7994 -0.9318
   21DOPE  C312 2688   3.823   7.224  15.706  0.0609  0.0555 -0.9786
   21DOPE  H12X 2689   3.866   7.155  15.782  0.5067  1.5941  0.2117
   21DOPE  H12Y 2690   3.907   7.288  15.670  1.0529  0.0598  1.1959
   21DOPE  C313 2691   3.763   7.144  15.593  0.7425  0.3313  0.4485
   21DOPE  H13X 2692   3.839   7.079  15.545  1.8431  3.4966 -2.5353
   21DOPE  H13Y 2693   3.682   7.078  15.632  0.5474  0.7747  0.8112
   21DOPE  C314 2694   3.712   7.230  15.478  0.1320 -0.4435  0.7923
   21DOPE  H14X 2695   3.788   7.306  15.451 -0.2955  0.0734  1.0182
   21DOPE  H14Y 2696   3.616   7.280  15.505 -0.0251 -0.5074  0.3731
   21DOPE  C315 2697   3.673   7.148  15.352 -0.3332  0.5030  0.4227
   21DOPE  H15X 2698   3.610   7.205  15.280 -2.1020 -2.9364 -0.9459
   21DOPE  H15Y 2699   3.616   7.058  15.383  0.9772 -0.4103  0.2692
   21DOPE  C316 2700   3.789   7.087  15.265 -0.5518  0.1541 -0.0243
   21DOPE  H16X 2701   3.753   7.003  15.202 -0.3293 -0.7485  1.0274
   21DOPE  H16Y 2702   3.870   7.053  15.333  0.4626  0.6621 -0.9411
   21DOPE  C317 2703   3.859   7.196  15.178  0.4141 -0.1925  0.6357
   21DOPE  H17X 2704   3.897   7.281  15.239  2.4810 -0.8651  0.3577
   21DOPE  H17Y 2705   3.940   7.152  15.117  0.9329  0.7960  0.6005
   21DOPE  C318 2706   3.754   7.253  15.074 -0.5632 -0.2002 -0.8870
   21DOPE  H18X 2707   3.673   7.308  15.126 -0.2551  1.7409 -2.3309
   21DOPE  H18Y 2708   3.811   7.319  15.004 -0.5425  0.5774 -0.1540
   21DOPE  H18Z 2709   3.714   7.170  15.012 -0.1254 -1.5548  0.5944
   22DOPE     N 2710   0.063   4.985  17.292 -0.2472  0.5740  0.9453
   22DOPE   HN1 2711   0.059   4.986  17.396  0.7693 -0.2624  1.0066
   22DOPE   HN2 2712   0.156   5.023  17.265  0.1126 -0.6159  0.4366
   22DOPE   HN3 2713  -0.022   5.037  17.263 -0.9764  0.5101  2.8217
   22DOPE   C12 2714   0.061   4.841  17.235  0.4381 -0.6406 -0.6805
   22DOPE  H12A 2715  -0.034   4.789  17.262  1.0877 -1.7145 -0.4250
   22DOPE  H12B 2716   0.146   4.787  17.282 -0.3087  0.6932  2.4579
   22DOPE   C11 2717   0.074   4.835  17.081  0.1110  0.2897  0.1009
   22DOPE  H11A 2718   0.179   4.866  17.060  0.3267  0.0107  0.7306
   22DOPE  H11B 2719   0.008   4.911  17.034  0.5901  0.2264 -0.6818
   22DOPE     P 2720  -0.084   4.653  16.958  0.0953 -0.0079 -0.3142
   22DOPE   O13 2721  -0.208   4.669  17.041  0.4071 -0.5428  0.1306
   22DOPE   O14 2722  -0.046   4.519  16.906 -0.0637 -0.5080  0.3480
   22DOPE   O11 2723  -0.091   4.749  16.826 -0.5049  0.2217  0.1092
   22DOPE   O12 2724   0.041   4.700  17.038 -0.7045  0.0766 -0.4448
   22DOPE    C1 2725   0.008   4.725  16.720  1.5682 -0.3567 -0.3845
   22DOPE    HA 2726  -0.034   4.762  16.624  1.7580  0.9471  0.0171
   22DOPE    HB 2727   0.019   4.617  16.697  0.9732 -0.0673 -2.1366
   22DOPE    C2 2728   0.136   4.805  16.742 -0.0132 -0.2993  0.2450
   22DOPE    HS 2729   0.195   4.772  16.831  2.1467  0.4015 -0.8410
   22DOPE   O21 2730   0.098   4.943  16.774 -0.3982  0.2172  0.1335
   22DOPE   C21 2731   0.194   5.032  16.791  0.1988 -0.2030  0.0535
   22DOPE   O22 2732   0.311   5.015  16.801 -0.5038 -0.0158 -0.2625
   22DOPE   C22 2733   0.130   5.170  16.791 -0.3266  0.2650 -0.2093
   22DOPE   H2R 2734   0.179   5.218  16.878  1.6210 -0.7754 -0.6813
   22DOPE   H2S 2735   0.020   5.164  16.804 -0.4926  2.0700 -0.4916
   22DOPE    C3 2736   0.235   4.787  16.621 -0.0038 -0.7363 -0.5103
   22DOPE    HX 2737   0.271   4.682  16.627  0.0256 -0.7974 -1.5075
   22DOPE    HY 2738   0.329   4.839  16.648 -0.0436 -1.7387  1.7828
   22DOPE   O31 2739   0.189   4.833  16.492  0.3297  0.0091  0.0627
   22DOPE   C31 2740   0.231   4.765  16.390  1.3894  0.2096 -0.4262
   22DOPE   O32 2741   0.313   4.672  16.379  0.0222  0.3125 -0.8795
   22DOPE   C32 2742   0.156   4.815  16.265 -0.0418 -0.0481 -0.9470
   22DOPE   H2X 2743   0.058   4.764  16.263 -0.4792  0.8007 -1.6319
   22DOPE   H2Y 2744   0.121   4.918  16.286 -1.4424 -0.1924 -2.3531
   22DOPE   C23 2745   0.174   5.246  16.665 -0.2348 -0.0430  0.0331
   22DOPE   H3R 2746   0.276   5.211  16.638 -1.1980 -1.7109 -1.7645
   22DOPE   H3S 2747   0.174   5.356  16.677  1.9283 -0.1403  1.6173
   22DOPE   C24 2748   0.084   5.205  16.542  0.0074  0.0641 -0.2095
   22DOPE   H4R 2749  -0.022   5.218  16.574 -0.0622  1.3624 -0.9175
   22DOPE   H4S 2750   0.099   5.099  16.513  0.0772 -0.6671  2.2871
   22DOPE   C25 2751   0.094   5.303  16.427 -0.3925  0.2173  0.0651
   22DOPE   H5R 2752   0.061   5.403  16.463  0.5951  1.5303 -2.4396
   22DOPE   H5S 2753   0.028   5.268  16.345 -0.4368  0.7403 -0.1213
   22DOPE   C26 2754   0.237   5.324  16.383  0.2058  0.1183 -0.4499
   22DOPE   H6R 2755   0.303   5.350  16.468  0.2085 -0.0540 -0.3982
   22DOPE   H6S 2756   0.245   5.412  16.316 -0.5805  0.6353  0.1081
   22DOPE   C27 2757   0.313   5.196  16.331  0.0823 -0.0208  0.1059
   22DOPE   H7R 2758   0.272   5.173  16.230  0.8748 -2.1624  0.2115
   22DOPE   H7S 2759   0.299   5.109  16.399  2.1400  0.0940  0.7377
   22DOPE   C28 2760   0.463   5.204  16.319 -0.6598 -0.2676 -0.5226
   22DOPE   H8R 2761   0.494   5.115  16.260 -1.0765 -0.6869 -0.1187
   22DOPE   H8S 2762   0.513   5.202  16.418  0.1647 -0.4227 -0.9385
   22DOPE   C29 2763   0.514   5.328  16.242 -0.3582 -0.0056 -0.5550
   22DOPE   H9R 2764   0.523   5.414  16.310  1.2601 -2.1000  2.1289
   22DOPE  C210 2765   0.551   5.337  16.117 -0.4163 -0.1492  0.1264
   22DOPE  H10R 2766   0.583   5.432  16.072 -4.5730  1.3875  0.0356
   22DOPE  C211 2767   0.553   5.222  16.015  0.9674  0.7088 -0.0159
   22DOPE  H11R 2768   0.467   5.153  16.035  1.2582  0.2822 -0.2173
   22DOPE  H11S 2769   0.650   5.170  16.030  0.7847  0.8835  2.1215
   22DOPE  C212 2770   0.538   5.249  15.866  0.0019  0.8207 -0.1132
   22DOPE  H12R 2771   0.439   5.299  15.864 -0.4338  0.1912  2.5761
   22DOPE  H12S 2772   0.530   5.156  15.806 -0.3870  0.7621  0.0296
   22DOPE  C213 2773   0.633   5.348  15.799  0.2313 -0.3839 -1.3121
   22DOPE  H13R 2774   0.737   5.318  15.824  0.0037  0.0441  0.2427
   22DOPE  H13S 2775   0.628   5.447  15.849  0.5313 -0.9386 -0.1437
   22DOPE  C214 2776   0.591   5.347  15.657  0.9578  0.6900  0.2381
   22DOPE  H14R 2777   0.483   5.367  15.643  0.5446 -0.8672  0.9634
   22DOPE  H14S 2778   0.606   5.245  15.615  2.7320  1.1850 -0.4030
   22DOPE  C215 2779   0.676   5.442  15.574  0.5032 -0.9155 -0.1598
   22DOPE  H15R 2780   0.639   5.421  15.471  1.8376 -4.0737 -0.0980
   22DOPE  H15S 2781   0.779   5.400  15.577 -0.3870 -3.1619  0.9032
   22DOPE  C216 2782   0.655   5.594  15.592 -0.0222 -0.8459  0.8876
   22DOPE  H16R 2783   0.709   5.636  15.679 -0.4743  2.8015 -0.4341
   22DOPE  H16S 2784   0.547   5.615  15.611 -0.6519 -2.0082 -1.0562
   22DOPE  C217 2785   0.682   5.699  15.475  0.0690 -0.1482  0.0891
   22DOPE  H17R 2786   0.637   5.645  15.389  0.8879  0.6767 -0.8783
   22DOPE  H17S 2787   0.790   5.700  15.447 -0.4919  0.1771 -2.2530
   22DOPE  C218 2788   0.631   5.842  15.491  0.2059 -0.4280  0.0517
   22DOPE  H18R 2789   0.522   5.836  15.472  0.1723 -0.4345  0.2489
   22DOPE  H18S 2790   0.684   5.907  15.418 -0.8558  0.2271 -0.1548
   22DOPE  H18T 2791   0.659   5.870  15.594  1.0959  1.4702 -0.6648
   22DOPE   C33 2792   0.245   4.807  16.136 -0.3020 -0.9077  0.2076
   22DOPE   H3X 2793   0.281   4.702  16.122 -0.1959 -0.7044 -1.2694
   22DOPE   H3Y 2794   0.336   4.866  16.156 -1.4013  0.2237  2.1215
   22DOPE   C34 2795   0.176   4.861  16.017 -0.3763 -0.8349 -0.2726
   22DOPE   H4X 2796   0.081   4.805  16.001 -1.1708  0.2183  0.5539
   22DOPE   H4Y 2797   0.142   4.963  16.048 -0.4196 -1.1083  0.6060
   22DOPE   C35 2798   0.260   4.885  15.891  0.0165 -0.1452 -0.1711
   22DOPE   H5X 2799   0.300   4.785  15.865 -0.2170 -0.8168  1.8672
   22DOPE   H5Y 2800   0.361   4.928  15.907  1.2591 -3.4020  1.8417
   22DOPE   C36 2801   0.175   4.944  15.780 -0.0210  0.5120  0.7929
   22DOPE   H6X 2802   0.127   5.035  15.820 -0.6669  0.7537 -0.5024
   22DOPE   H6Y 2803   0.103   4.861  15.766  0.3527  0.0770  1.4013
   22DOPE   C37 2804   0.246   4.987  15.650 -0.2513  0.0888 -0.7210
   22DOPE   H7X 2805   0.337   5.043  15.681 -1.3746  0.0498  3.1287
   22DOPE   H7Y 2806   0.263   4.891  15.596 -2.4766 -1.3058  0.8991
   22DOPE   C38 2807   0.159   5.081  15.563  0.1688  0.3550 -0.0376
   22DOPE   H8X 2808   0.164   5.179  15.616  0.2521  0.0288  0.5757
   22DOPE   H8Y 2809   0.054   5.045  15.567 -0.2191  1.4642  0.2199
   22DOPE   C39 2810   0.205   5.080  15.419 -0.2331  0.9908  0.2584
   22DOPE   H9X 2811   0.180   4.988  15.363 -0.8830  1.7895 -0.7917
   22DOPE  C310 2812   0.253   5.188  15.353  0.7612 -0.7378  0.2332
   22DOPE  H10X 2813   0.266   5.174  15.245 -2.4483 -1.8793 -0.1179
   22DOPE  C311 2814   0.276   5.335  15.393  0.3233 -0.3548  0.3595
   22DOPE  H11X 2815   0.184   5.394  15.415  1.0575  0.7854  0.3967
   22DOPE  H11Y 2816   0.342   5.339  15.482 -0.2641 -3.0161  1.0313
   22DOPE  C312 2817   0.335   5.411  15.277 -0.1492  0.2696  0.4427
   22DOPE  H12X 2818   0.257   5.407  15.198 -0.5942  1.8676  0.7557
   22DOPE  H12Y 2819   0.432   5.369  15.244 -0.8788 -0.3383 -1.0108
   22DOPE  C313 2820   0.354   5.569  15.289 -0.2853  0.3625 -0.1662
   22DOPE  H13X 2821   0.252   5.613  15.289 -0.2283  0.5143 -1.1042
   22DOPE  H13Y 2822   0.401   5.586  15.388  2.0337  0.5026 -1.2324
   22DOPE  C314 2823   0.437   5.617  15.173  0.0929 -0.0912  0.1638
   22DOPE  H14X 2824   0.535   5.565  15.174  0.6774  0.8049 -2.0998
   22DOPE  H14Y 2825   0.457   5.725  15.193  0.2554 -0.2341  0.7579
   22DOPE  C315 2826   0.365   5.591  15.041  0.4246 -0.0301  0.1803
   22DOPE  H15X 2827   0.266   5.637  15.060 -0.1210 -1.6690  1.5067
   22DOPE  H15Y 2828   0.356   5.482  15.025  1.9518 -0.1896  0.2380
   22DOPE  C316 2829   0.437   5.644  14.914 -0.3958 -0.0576  0.3466
   22DOPE  H16X 2830   0.531   5.586  14.912 -0.6178 -0.5689  2.4264
   22DOPE  H16Y 2831   0.458   5.753  14.923 -0.6491 -0.0623  0.9826
   22DOPE  C317 2832   0.341   5.632  14.794 -0.5112  0.0586 -0.0835
   22DOPE  H17X 2833   0.395   5.675  14.707  0.6474  0.9652  1.0278
   22DOPE  H17Y 2834   0.334   5.526  14.763  1.1099  0.2539 -1.2904
   22DOPE  C318 2835   0.204   5.696  14.805  0.3196 -0.0251 -0.3584
   22DOPE  H18X 2836   0.216   5.804  14.824 -2.0439  0.3654 -0.7247
   22DOPE  H18Y 2837   0.152   5.679  14.708  1.3288  0.4179 -0.9788
   22DOPE  H18Z 2838   0.146   5.649  14.888  0.1144 -1.2389 -1.1537
   23DOPE     N 2839   4.660   0.317  16.843  0.4087  0.5683 -0.0064
   23DOPE   HN1 2840   4.568   0.297  16.799  0.6745 -1.9419  0.4309
   23DOPE   HN2 2841   4.678   0.419  16.845 -0.4520  0.7223  0.2956
   23DOPE   HN3 2842   4.725   0.282  16.770 -0.8186  0.6703 -1.1956
   23DOPE   C12 2843   4.679   0.225  16.960  0.0080 -0.4059  0.5181
   23DOPE  H12A 2844   4.596   0.246  17.032  0.3842  0.3896  0.7293
   23DOPE  H12B 2845   4.777   0.257  17.002  0.8837  1.2208 -2.5248
   23DOPE   C11 2846   4.683   0.081  16.908  0.0130  0.4600 -0.3746
   23DOPE  H11A 2847   4.686   0.017  16.998 -1.9445 -1.6572 -1.6860
   23DOPE  H11B 2848   4.767   0.056  16.841 -0.2639  0.1747 -0.6178
   23DOPE     P 2849   4.527  -0.093  16.795 -0.1279  0.1083  0.1122
   23DOPE   O13 2850   4.392  -0.106  16.727  0.0386 -0.1534 -0.0432
   23DOPE   O14 2851   4.546  -0.171  16.916  0.0686  0.1111  0.0205
   23DOPE   O11 2852   4.643  -0.116  16.692  0.2775  0.1711  0.1314
   23DOPE   O12 2853   4.559   0.055  16.837  0.0790 -0.4667  0.6877
   23DOPE    C1 2854   4.618  -0.092  16.551  0.4028 -0.0775 -0.4723
   23DOPE    HA 2855   4.514  -0.108  16.517  1.6843 -2.5974 -3.6528
   23DOPE    HB 2856   4.681  -0.170  16.504  1.2311  1.0277 -1.2197
   23DOPE    C2 2857   4.655   0.048  16.497  0.1696  0.6322  0.1930
   23DOPE    HS 2858   4.616   0.119  16.574  1.9701  1.3535  0.4977
   23DOPE   O21 2859   4.596   0.055  16.366 -0.2398  0.3431 -0.0988
   23DOPE   C21 2860   4.552   0.175  16.335  0.1465  0.6281 -0.9599
   23DOPE   O22 2861   4.572   0.273  16.405 -0.2867  0.0666  0.0632
   23DOPE   C22 2862   4.479   0.171  16.200  0.1569 -0.5420  0.0940
   23DOPE   H2R 2863   4.517   0.264  16.152  2.6052 -1.8196 -0.6074
   23DOPE   H2S 2864   4.371   0.171  16.222 -0.0503 -2.0824 -0.7862
   23DOPE    C3 2865   4.809   0.054  16.487  0.2003 -0.2328  0.1746
   23DOPE    HX 2866   4.858  -0.031  16.436 -0.7263 -0.4540 -0.3640
   23DOPE    HY 2867   4.844   0.039  16.592  0.2117  0.6620  0.3050
   23DOPE   O31 2868   4.854   0.175  16.425 -0.1855  0.2117 -0.2851
   23DOPE   C31 2869   4.861   0.275  16.510  0.2712 -0.2514 -0.3044
   23DOPE   O32 2870   4.839   0.270  16.633  0.2669  0.1902  0.0621
   23DOPE   C32 2871   4.903   0.399  16.433 -0.1187  0.5302  0.4586
   23DOPE   H2X 2872   4.814   0.465  16.444 -0.6252  0.2839 -1.7171
   23DOPE   H2Y 2873   4.997   0.438  16.477  1.7274 -1.3048 -1.6497
   23DOPE   C23 2874   4.508   0.056  16.099  0.3386  0.3669 -0.7219
   23DOPE   H3R 2875   4.480  -0.043  16.141  0.5101  0.3882 -0.5563
   23DOPE   H3S 2876   4.615   0.049  16.067  0.1988 -0.8562 -0.9773
   23DOPE   C24 2877   4.424   0.056  15.970 -0.0846  0.4147 -0.1524
   23DOPE   H4R 2878   4.421   0.152  15.914 -1.5917  0.3964 -0.1585
   23DOPE   H4S 2879   4.317   0.037  15.996  0.1553 -0.0177  0.5418
   23DOPE   C25 2880   4.470  -0.057  15.875  0.4099  0.1243  0.1412
   23DOPE   H5R 2881   4.456  -0.156  15.923 -1.7799 -0.5806 -1.7185
   23DOPE   H5S 2882   4.577  -0.041  15.848  0.4273  1.5659  0.9656
   23DOPE   C26 2883   4.400  -0.046  15.741  0.1638  0.9582  0.8042
   23DOPE   H6R 2884   4.462  -0.105  15.669 -0.5781 -0.4196  1.2567
   23DOPE   H6S 2885   4.389   0.060  15.709 -4.0927  0.6629  0.6693
   23DOPE   C27 2886   4.252  -0.097  15.759 -0.2179 -0.1421 -0.2720
   23DOPE   H7R 2887   4.200  -0.050  15.845 -0.7329 -0.3411 -0.4689
   23DOPE   H7S 2888   4.252  -0.202  15.796  2.2461  0.0755  0.5420
   23DOPE   C28 2889   4.177  -0.081  15.626  0.4195 -0.5340 -0.4853
   23DOPE   H8R 2890   4.202   0.023  15.595  2.7798 -0.7429  0.5476
   23DOPE   H8S 2891   4.069  -0.104  15.632  0.6752 -1.7124 -0.1062
   23DOPE   C29 2892   4.219  -0.180  15.522 -0.0472  0.0644 -0.0745
   23DOPE   H9R 2893   4.207  -0.286  15.548 -0.6862  0.0815 -0.2816
   23DOPE  C210 2894   4.284  -0.157  15.406 -0.5059 -0.4854 -0.0613
   23DOPE  H10R 2895   4.302  -0.243  15.340 -0.4408 -1.9267  1.7332
   23DOPE  C211 2896   4.319  -0.022  15.359 -0.1698  0.0401  0.7540
   23DOPE  H11R 2897   4.422   0.002  15.395  1.1787  1.0025 -3.2036
   23DOPE  H11S 2898   4.250   0.056  15.396 -1.8449 -1.5769  1.1414
   23DOPE  C212 2899   4.328  -0.012  15.204 -0.1771  0.8222  0.2593
   23DOPE  H12R 2900   4.409  -0.077  15.165  1.1299  2.1558  0.6349
   23DOPE  H12S 2901   4.357   0.093  15.180 -0.7712  1.0535  0.5210
   23DOPE  C213 2902   4.188  -0.029  15.146  0.4533  0.8833  0.1859
   23DOPE  H13R 2903   4.124   0.060  15.167 -1.9998  0.1708 -3.3478
   23DOPE  H13S 2904   4.149  -0.124  15.188  2.9090 -1.3557 -2.2013
   23DOPE  C214 2905   4.187  -0.043  14.988 -0.1985  0.1499 -0.2163
   23DOPE  H14R 2906   4.080  -0.060  14.963  0.5040 -0.0417 -3.5021
   23DOPE  H14S 2907   4.236  -0.136  14.953  0.5224  0.1206  0.8401
   23DOPE  C215 2908   4.239   0.068  14.899  0.0498 -0.2633 -0.4076
   23DOPE  H15R 2909   4.233   0.045  14.791  1.0408 -0.6960 -0.3761
   23DOPE  H15S 2910   4.346   0.086  14.922  0.0963  0.8649 -1.4082
   23DOPE  C216 2911   4.168   0.201  14.925  0.2594 -0.1383  0.0197
   23DOPE  H16R 2912   4.237   0.283  14.897 -0.3742  0.7540  0.9712
   23DOPE  H16S 2913   4.164   0.230  15.032  0.8155  2.2981 -0.5657
   23DOPE  C217 2914   4.030   0.207  14.864  0.1118 -0.0844 -0.1647
   23DOPE  H17R 2915   3.977   0.115  14.898 -0.5715 -1.0429 -3.3818
   23DOPE  H17S 2916   4.035   0.193  14.753 -2.3651 -1.4076 -0.1853
   23DOPE  C218 2917   3.949   0.337  14.891 -0.8518 -0.4105  0.5767
   23DOPE  H18R 2918   3.959   0.359  15.000 -0.8960 -1.2317  0.7585
   23DOPE  H18S 2919   3.840   0.322  14.874 -0.8507 -0.0538  0.2466
   23DOPE  H18T 2920   3.983   0.425  14.833  1.4031 -0.4995  1.6599
   23DOPE   C33 2921   4.929   0.385  16.277 -0.0121  0.2728  0.0539
   23DOPE   H3X 2922   5.012   0.317  16.251 -1.2620 -0.7794 -1.3477
   23DOPE   H3Y 2923   4.962   0.487  16.246 -0.0135  0.3404  0.2739
   23DOPE   C34 2924   4.816   0.340  16.184  0.0218  0.5347 -0.5254
   23DOPE   H4X 2925   4.811   0.230  16.195  1.0316  0.5087 -0.3185
   23DOPE   H4Y 2926   4.721   0.387  16.220 -0.3732  1.7822 -2.9818
   23DOPE   C35 2927   4.837   0.378  16.032  0.1896 -0.6691 -0.3022
   23DOPE   H5X 2928   4.941   0.386  15.995 -0.1500  3.2197 -0.8695
   23DOPE   H5Y 2929   4.807   0.485  16.027  2.1156  0.0634  1.9240
   23DOPE   C36 2930   4.750   0.310  15.929 -0.0584 -0.1238 -0.4223
   23DOPE   H6X 2931   4.642   0.325  15.953  0.5112  2.2998  0.8315
   23DOPE   H6Y 2932   4.770   0.201  15.940 -0.2310 -0.1791 -0.6317
   23DOPE   C37 2933   4.782   0.378  15.786  0.1881 -0.6361 -0.2020
   23DOPE   H7X 2934   4.806   0.486  15.796 -0.4935 -0.3857 -1.0758
   23DOPE   H7Y 2935   4.873   0.330  15.745  0.0709 -0.4038 -0.7377
   23DOPE   C38 2936   4.666   0.354  15.682 -0.3224 -0.0705  0.3872
   23DOPE   H8X 2937   4.692   0.403  15.586 -0.1900  0.5085  0.7152
   23DOPE   H8Y 2938   4.576   0.409  15.715  0.8825  2.2274  0.0288
   23DOPE   C39 2939   4.637   0.207  15.657 -0.6040  0.3191 -0.7538
   23DOPE   H9X 2940   4.592   0.158  15.745  1.1918  0.5593  0.3466
   23DOPE  C310 2941   4.659   0.143  15.541  0.4976 -0.1454  0.0713
   23DOPE  H10X 2942   4.655   0.034  15.550  0.9928 -0.1486  0.2881
   23DOPE  C311 2943   4.709   0.194  15.415 -0.7065 -0.3354  0.0716
   23DOPE  H11X 2944   4.797   0.259  15.435 -2.2684  1.5868  1.0080
   23DOPE  H11Y 2945   4.739   0.116  15.341 -1.1504  1.4664 -2.1106
   23DOPE  C312 2946   4.602   0.273  15.328  0.9305 -0.6324  0.3110
   23DOPE  H12X 2947   4.559   0.352  15.393 -0.3774  0.7546 -2.1155
   23DOPE  H12Y 2948   4.511   0.217  15.297 -1.4711  2.3956  1.3460
   23DOPE  C313 2949   4.656   0.347  15.205  0.0985 -0.0694 -0.0489
   23DOPE  H13X 2950   4.729   0.417  15.250 -0.5087  0.8685 -0.4934
   23DOPE  H13Y 2951   4.707   0.270  15.143  2.2627 -1.2638  2.9771
   23DOPE  C314 2952   4.537   0.409  15.133  0.1054  0.0009 -0.1658
   23DOPE  H14X 2953   4.470   0.451  15.210  0.4979 -1.3747  0.9743
   23DOPE  H14Y 2954   4.474   0.328  15.090 -0.8747  0.7023 -0.0749
   23DOPE  C315 2955   4.584   0.507  15.032  0.0406  0.7024 -0.1304
   23DOPE  H15X 2956   4.633   0.456  14.946  0.8396  2.4213 -0.7289
   23DOPE  H15Y 2957   4.656   0.573  15.085  0.1139 -1.0417  2.0900
   23DOPE  C316 2958   4.467   0.582  14.964 -0.1541  0.1081  0.2036
   23DOPE  H16X 2959   4.505   0.637  14.874 -2.5867 -0.2876 -1.1421
   23DOPE  H16Y 2960   4.426   0.661  15.030 -1.4263 -1.0644  0.8603
   23DOPE  C317 2961   4.333   0.513  14.932 -0.7279 -1.4392  0.1603
   23DOPE  H17X 2962   4.349   0.444  14.846 -1.1836  0.1044 -1.2126
   23DOPE  H17Y 2963   4.304   0.450  15.019 -0.7818 -0.3547  0.9352
   23DOPE  C318 2964   4.219   0.607  14.894 -0.0114 -0.2983 -0.4831
   23DOPE  H18X 2965   4.134   0.539  14.873  1.2830 -1.5602 -1.8955
   23DOPE  H18Y 2966   4.195   0.679  14.975 -1.2653 -0.1333 -0.9845
   23DOPE  H18Z 2967   4.242   0.656  14.797  0.0470 -0.4756 -0.5605
   24DOPE     N 2968   6.109   7.037  16.747  0.1703  0.0902  0.9973
   24DOPE   HN1 2969   6.012   7.001  16.736 -0.8401  3.1388 -2.0400
   24DOPE   HN2 2970   6.165   6.974  16.807  0.3248 -0.7765 -0.0253
   24DOPE   HN3 2971   6.107   7.136  16.778 -0.5227  0.5704 -0.4735
   24DOPE   C12 2972   6.180   7.023  16.613 -0.1554  0.3311  0.0162
   24DOPE  H12A 2973   6.119   7.068  16.531 -0.4177  0.5093  0.3052
   24DOPE  H12B 2974   6.195   6.914  16.605  0.6796  0.5225 -1.6305
   24DOPE   C11 2975   6.326   7.065  16.633 -0.7884 -0.6341  0.2144
   24DOPE  H11A 2976   6.346   7.171  16.662  1.9281 -1.7067  2.8005
   24DOPE  H11B 2977   6.371   7.043  16.533 -0.1838 -0.8219  0.5197
   24DOPE     P 2978   6.548   7.003  16.760 -0.0381 -0.0844  0.0450
   24DOPE   O13 2979   6.597   6.932  16.877 -0.5501 -0.1752 -0.3355
   24DOPE   O14 2980   6.581   7.148  16.757  0.2842 -0.0107  0.4872
   24DOPE   O11 2981   6.614   6.944  16.635 -0.2101  0.2733  0.3567
   24DOPE   O12 2982   6.389   6.988  16.736  0.2586 -0.2355 -0.7405
   24DOPE    C1 2983   6.594   6.805  16.607  0.3571 -0.6074 -0.1902
   24DOPE    HA 2984   6.486   6.779  16.601  0.3470 -0.2852 -1.8415
   24DOPE    HB 2985   6.622   6.739  16.692 -0.7134 -0.5792  0.2081
   24DOPE    C2 2986   6.654   6.768  16.468  0.4949  0.1709 -0.5294
   24DOPE    HS 2987   6.644   6.657  16.462  1.5173 -0.3728  3.9876
   24DOPE   O21 2988   6.788   6.809  16.456  0.3918 -0.1113 -0.1771
   24DOPE   C21 2989   6.875   6.743  16.529  0.4847  0.3279 -0.0322
   24DOPE   O22 2990   6.851   6.652  16.605  0.0778  0.6008 -0.2395
   24DOPE   C22 2991   7.016   6.784  16.484  0.4323 -0.6024  0.1329
   24DOPE   H2R 2992   7.076   6.830  16.566 -0.8892  0.8711  0.3174
   24DOPE   H2S 2993   7.016   6.867  16.410 -0.4084  0.0755  0.8725
   24DOPE    C3 2994   6.567   6.830  16.363  0.4950 -0.1079 -0.5417
   24DOPE    HX 2995   6.578   6.939  16.381 -0.1417 -0.5577  3.8617
   24DOPE    HY 2996   6.457   6.818  16.378  0.5369  1.0985  1.0038
   24DOPE   O31 2997   6.596   6.782  16.233 -0.0458  0.9298  0.1162
   24DOPE   C31 2998   6.572   6.867  16.136  0.4233  0.3273  1.0166
   24DOPE   O32 2999   6.507   6.972  16.141 -0.6500 -0.2025 -0.1989
   24DOPE   C32 3000   6.654   6.802  16.015  0.0107  0.1619  0.3689
   24DOPE   H2X 3001   6.753   6.851  16.001  1.0051 -1.3652  1.6765
   24DOPE   H2Y 3002   6.664   6.691  16.022 -1.4544 -0.4071 -3.7122
   24DOPE   C23 3003   7.090   6.660  16.445 -0.9344 -0.7693 -0.4049
   24DOPE   H3R 3004   7.093   6.586  16.528 -0.2696 -0.8743 -0.5135
   24DOPE   H3S 3005   7.194   6.676  16.410 -1.3541 -0.1794 -1.4425
   24DOPE   C24 3006   7.037   6.590  16.316 -0.4977  0.3827 -0.4177
   24DOPE   H4R 3007   6.933   6.553  16.331 -0.3723  0.3424  0.4178
   24DOPE   H4S 3008   7.086   6.497  16.283  1.9349  2.3428 -2.8104
   24DOPE   C25 3009   7.035   6.668  16.187  0.3203  0.0623  0.5725
   24DOPE   H5R 3010   7.138   6.702  16.164 -0.9968  1.8404 -3.4815
   24DOPE   H5S 3011   6.976   6.761  16.204  0.3458 -0.0936  1.5977
   24DOPE   C26 3012   6.983   6.589  16.069  0.8060  0.3329 -0.1785
   24DOPE   H6R 3013   6.877   6.571  16.095  0.7876  1.2654  0.4374
   24DOPE   H6S 3014   7.023   6.485  16.072  1.1586  0.4866  2.5144
   24DOPE   C27 3015   7.001   6.656  15.938  0.6788  0.1580 -0.7296
   24DOPE   H7R 3016   7.109   6.679  15.925  0.6824  0.3558 -0.3478
   24DOPE   H7S 3017   6.949   6.754  15.946  2.0030  0.7502  1.2626
   24DOPE   C28 3018   6.941   6.579  15.822  0.4325 -0.4115  0.4850
   24DOPE   H8R 3019   6.944   6.646  15.734 -0.3722  0.0109  0.7735
   24DOPE   H8S 3020   6.834   6.557  15.841 -0.9892  1.3101 -4.1955
   24DOPE   C29 3021   7.017   6.456  15.791 -0.1788 -0.3778  0.3239
   24DOPE   H9R 3022   7.057   6.408  15.882  0.9906 -0.2805 -0.1289
   24DOPE  C210 3023   7.040   6.398  15.671 -0.1613  0.3390  0.1946
   24DOPE  H10R 3024   7.103   6.307  15.668  0.6556  0.9161 -0.8674
   24DOPE  C211 3025   6.995   6.441  15.534 -0.1269  0.7083 -0.4651
   24DOPE  H11R 3026   7.073   6.428  15.456  1.1833  1.8672  0.6044
   24DOPE  H11S 3027   6.979   6.551  15.531  0.4678  0.9485  2.4028
   24DOPE  C212 3028   6.886   6.358  15.478 -0.1119 -0.5397  0.1240
   24DOPE  H12R 3029   6.912   6.253  15.455  0.7516 -0.1442 -0.7583
   24DOPE  H12S 3030   6.858   6.403  15.380  0.2870 -2.9519 -1.1807
   24DOPE  C213 3031   6.761   6.355  15.567  0.1384  0.7853 -0.4962
   24DOPE  H13R 3032   6.768   6.452  15.620  0.3203  0.3341  0.3349
   24DOPE  H13S 3033   6.756   6.284  15.653 -0.9255 -0.3651 -1.4641
   24DOPE  C214 3034   6.631   6.373  15.481  0.3579  0.2242  0.1155
   24DOPE  H14R 3035   6.586   6.272  15.472 -1.4110  0.9944 -0.1344
   24DOPE  H14S 3036   6.648   6.414  15.379 -0.3849 -0.3791 -0.2598
   24DOPE  C215 3037   6.522   6.471  15.533  0.3817 -0.3621 -0.2936
   24DOPE  H15R 3038   6.574   6.570  15.537 -1.3656  0.6516 -1.2344
   24DOPE  H15S 3039   6.490   6.446  15.636  2.1814 -2.0685 -0.0768
   24DOPE  C216 3040   6.390   6.478  15.452  0.4229  0.0381  0.1745
   24DOPE  H16R 3041   6.324   6.394  15.480  0.7259 -0.3503 -0.2604
   24DOPE  H16S 3042   6.407   6.461  15.343  0.2145 -4.4527  0.6421
   24DOPE  C217 3043   6.318   6.605  15.489 -0.1125 -0.1412 -0.1596
   24DOPE  H17R 3044   6.383   6.694  15.479  1.1808 -1.2426 -2.3690
   24DOPE  H17S 3045   6.303   6.591  15.598 -1.8010  0.4757 -0.2847
   24DOPE  C218 3046   6.195   6.630  15.405 -0.1458  0.7609 -1.0030
   24DOPE  H18R 3047   6.119   6.555  15.437  1.1928  0.1537  0.9165
   24DOPE  H18S 3048   6.224   6.600  15.302 -1.3858 -1.9498 -0.6654
   24DOPE  H18T 3049   6.177   6.739  15.414 -0.1234  0.6372  0.9494
   24DOPE   C33 3050   6.581   6.829  15.884  0.3747  0.6423  0.4777
   24DOPE   H3X 3051   6.650   6.805  15.801  1.4534  1.8964  0.9849
   24DOPE   H3Y 3052   6.542   6.932  15.874  0.3239  0.5328 -0.5508
   24DOPE   C34 3053   6.457   6.731  15.856 -0.6882 -0.6001  0.9215
   24DOPE   H4X 3054   6.434   6.736  15.747 -0.6298 -0.9504  0.8937
   24DOPE   H4Y 3055   6.469   6.622  15.873 -2.2236 -1.0557 -0.6805
   24DOPE   C35 3056   6.326   6.767  15.925  0.0742 -0.0850  0.6830
   24DOPE   H5X 3057   6.246   6.737  15.854  2.2677 -0.6663 -1.7142
   24DOPE   H5Y 3058   6.313   6.876  15.944 -0.5305 -0.2335  1.1492
   24DOPE   C36 3059   6.306   6.673  16.050  0.6014 -0.1134  0.0013
   24DOPE   H6X 3060   6.394   6.682  16.118  0.9500  0.7176 -0.5506
   24DOPE   H6Y 3061   6.292   6.568  16.016  2.0341 -1.8494  4.0478
   24DOPE   C37 3062   6.187   6.699  16.142 -0.4812 -0.2743 -0.3443
   24DOPE   H7X 3063   6.186   6.625  16.225  0.3075  0.7473  0.6077
   24DOPE   H7Y 3064   6.208   6.799  16.187  4.0584 -0.6730 -1.0665
   24DOPE   C38 3065   6.049   6.693  16.068  0.1272  0.0569 -0.5818
   24DOPE   H8X 3066   6.055   6.760  15.980  0.6671  0.6627 -0.0903
   24DOPE   H8Y 3067   5.971   6.732  16.136  1.3952 -0.0635  1.0060
   24DOPE   C39 3068   6.004   6.557  16.018  0.5010 -0.0666  0.3359
   24DOPE   H9X 3069   5.986   6.478  16.093  0.7918  1.3635  1.9794
   24DOPE  C310 3070   5.984   6.515  15.890 -0.3508 -0.1839 -0.2367
   24DOPE  H10X 3071   5.958   6.410  15.870  1.2627 -0.5790 -0.4176
   24DOPE  C311 3072   6.008   6.599  15.764  0.1236 -0.8994 -0.8150
   24DOPE  H11X 3073   6.039   6.704  15.785 -2.3459 -0.4784  1.0935
   24DOPE  H11Y 3074   6.081   6.554  15.693  0.5853  1.9602 -2.3084
   24DOPE  C312 3075   5.892   6.614  15.668  0.4596  0.3891 -0.1737
   24DOPE  H12X 3076   5.937   6.684  15.595  2.2730 -0.5218  0.0255
   24DOPE  H12Y 3077   5.806   6.668  15.714  0.6191  1.7277 -1.4016
   24DOPE  C313 3078   5.845   6.487  15.600 -0.1991  0.8306  0.0494
   24DOPE  H13X 3079   5.929   6.428  15.559 -0.9370 -1.0362  1.0764
   24DOPE  H13Y 3080   5.795   6.422  15.675 -0.7097  1.0806 -0.0658
   24DOPE  C314 3081   5.745   6.512  15.490  0.1264 -0.4449 -0.1235
   24DOPE  H14X 3082   5.783   6.578  15.410  1.5362 -0.6467  0.3386
   24DOPE  H14Y 3083   5.670   6.577  15.538  0.0076 -1.9145  1.8502
   24DOPE  C315 3084   5.676   6.381  15.438  0.7134 -0.1514  0.4592
   24DOPE  H15X 3085   5.622   6.340  15.526 -0.2829  1.7018  0.7583
   24DOPE  H15Y 3086   5.749   6.306  15.401  0.0602 -0.4276 -0.2927
   24DOPE  C316 3087   5.580   6.403  15.329  0.6196  0.6420  0.4769
   24DOPE  H16X 3088   5.526   6.497  15.355  1.8572  1.2870  0.7486
   24DOPE  H16Y 3089   5.503   6.323  15.338  0.3957  0.9109  1.0191
   24DOPE  C317 3090   5.630   6.414  15.188 -0.2328 -0.7683 -0.5445
   24DOPE  H17X 3091   5.702   6.499  15.184 -2.1745  0.8805 -2.4869
   24DOPE  H17Y 3092   5.685   6.325  15.151  1.6343  0.7549 -1.6323
   24DOPE  C318 3093   5.521   6.436  15.086  0.3882  0.0024 -0.0266
   24DOPE  H18X 3094   5.567   6.455  14.987 -0.5129 -0.2570 -0.5048
   24DOPE  H18Y 3095   5.456   6.346  15.081  3.5608 -2.4528 -0.2567
   24DOPE  H18Z 3096   5.458   6.526  15.106  0.2892 -0.2261  0.6990
   25DOPE     N 3097   7.235   5.635  17.407 -0.0515 -0.2940  0.5699
   25DOPE   HN1 3098   7.205   5.732  17.430  0.0445 -0.5719  1.9237
   25DOPE   HN2 3099   7.159   5.598  17.348  0.3485  1.4029 -1.1107
   25DOPE   HN3 3100   7.246   5.592  17.501 -1.9406  0.3512  1.1294
   25DOPE   C12 3101   7.373   5.653  17.342 -0.0960 -0.5211 -0.6339
   25DOPE  H12A 3102   7.422   5.554  17.327 -0.3330 -0.8693  0.7525
   25DOPE  H12B 3103   7.425   5.697  17.430 -1.3119  0.6779 -0.4792
   25DOPE   C11 3104   7.375   5.751  17.226  0.1759  0.2678 -0.1821
   25DOPE  H11A 3105   7.477   5.780  17.192  0.2061  1.5358  0.9215
   25DOPE  H11B 3106   7.338   5.852  17.251  0.6347  0.9906 -2.2252
   25DOPE     P 3107   7.377   5.601  17.021 -1.0032  0.4137 -0.1870
   25DOPE   O13 3108   7.286   5.506  16.953  0.2892 -0.6964  0.0081
   25DOPE   O14 3109   7.495   5.539  17.088  0.2306  0.2543 -0.1344
   25DOPE   O11 3110   7.427   5.701  16.911  0.3239 -0.4885  0.5472
   25DOPE   O12 3111   7.294   5.688  17.124  0.3185  0.1053 -0.1532
   25DOPE    C1 3112   7.334   5.817  16.883  0.3806  0.3823 -0.1565
   25DOPE    HA 3113   7.338   5.892  16.965  3.0053 -0.0152  0.1732
   25DOPE    HB 3114   7.228   5.785  16.884  1.1383 -2.4269 -0.9024
   25DOPE    C2 3115   7.362   5.892  16.755 -0.8403  0.0524  0.3640
   25DOPE    HS 3116   7.281   5.966  16.736 -0.3547  0.9221  1.5651
   25DOPE   O21 3117   7.384   5.808  16.641 -0.6643  0.4757 -0.0793
   25DOPE   C21 3118   7.278   5.746  16.586 -0.4773 -0.6095 -0.4554
   25DOPE   O22 3119   7.165   5.780  16.612  0.5516  0.5479  0.0422
   25DOPE   C22 3120   7.314   5.623  16.505  0.2788  0.2853 -1.0561
   25DOPE   H2R 3121   7.265   5.536  16.554 -0.9219  0.4800 -1.8458
   25DOPE   H2S 3122   7.425   5.619  16.502  0.5614  3.9581 -0.3000
   25DOPE    C3 3123   7.493   5.974  16.758  0.5242 -0.0921 -0.3094
   25DOPE    HX 3124   7.562   5.906  16.813 -1.3343 -1.2053  0.7482
   25DOPE    HY 3125   7.469   6.059  16.826 -0.3977  0.5854 -1.4512
   25DOPE   O31 3126   7.540   6.017  16.628 -0.1904  0.0481 -0.4210
   25DOPE   C31 3127   7.640   5.946  16.575 -0.6035  0.0580  0.0133
   25DOPE   O32 3128   7.684   5.840  16.617 -0.4066  0.4435  0.4642
   25DOPE   C32 3129   7.676   6.010  16.438  0.1663  0.3985 -0.3643
   25DOPE   H2X 3130   7.673   5.923  16.368 -0.7724 -2.4305  2.9232
   25DOPE   H2Y 3131   7.611   6.098  16.420  0.2183  0.2248 -1.4903
   25DOPE   C23 3132   7.241   5.636  16.368  0.7386  0.5877  0.0873
   25DOPE   H3R 3133   7.134   5.659  16.384  0.4961 -0.0125 -0.6612
   25DOPE   H3S 3134   7.238   5.537  16.318  0.7203 -0.1090  1.4101
   25DOPE   C24 3135   7.309   5.729  16.271 -0.0936  0.8725  0.3654
   25DOPE   H4R 3136   7.306   5.834  16.308 -0.8239  1.5783 -1.5817
   25DOPE   H4S 3137   7.264   5.719  16.170  1.5413  1.3589 -0.4484
   25DOPE   C25 3138   7.467   5.706  16.255  0.5869 -0.7303 -0.2946
   25DOPE   H5R 3139   7.519   5.721  16.351 -2.0984  1.3009  0.9775
   25DOPE   H5S 3140   7.504   5.777  16.178  1.4099 -0.3287  0.4546
   25DOPE   C26 3141   7.509   5.567  16.204  0.0789  1.0295  0.4116
   25DOPE   H6R 3142   7.440   5.529  16.125 -0.0347  0.8477  0.5969
   25DOPE   H6S 3143   7.500   5.490  16.284  0.6807 -1.2523 -1.6057
   25DOPE   C27 3144   7.651   5.556  16.155 -0.0608 -0.1244  0.1138
   25DOPE   H7R 3145   7.718   5.556  16.244  0.3926 -1.7490 -0.1801
   25DOPE   H7S 3146   7.680   5.648  16.100  0.6869  0.5288  1.5457
   25DOPE   C28 3147   7.675   5.439  16.069 -0.4998  0.0162 -0.6349
   25DOPE   H8R 3148   7.613   5.433  15.977  1.4630  0.1480 -2.0249
   25DOPE   H8S 3149   7.647   5.353  16.133 -2.0689  0.3905 -0.7699
   25DOPE   C29 3150   7.820   5.429  16.030  0.6161  0.2321 -0.0989
   25DOPE   H9R 3151   7.881   5.419  16.121 -1.3376 -0.2903  1.2179
   25DOPE  C210 3152   7.880   5.458  15.910  0.2880 -0.3886 -0.5471
   25DOPE  H10R 3153   7.988   5.439  15.912  0.2757 -0.5350  1.8359
   25DOPE  C211 3154   7.814   5.507  15.782 -1.0437  0.2236  0.0445
   25DOPE  H11R 3155   7.705   5.483  15.785 -0.9109 -0.2691  1.3333
   25DOPE  H11S 3156   7.861   5.452  15.697  2.8426 -0.6892  2.5083
   25DOPE  C212 3157   7.839   5.657  15.754 -0.1349  0.0057  0.4943
   25DOPE  H12R 3158   7.950   5.666  15.751 -0.1617  0.3513  0.5059
   25DOPE  H12S 3159   7.802   5.735  15.823  1.5187 -0.3437  1.8344
   25DOPE  C213 3160   7.776   5.693  15.617  0.1400 -0.5988 -0.3849
   25DOPE  H13R 3161   7.820   5.617  15.549  1.7133  0.3652 -0.4920
   25DOPE  H13S 3162   7.808   5.791  15.576 -1.3096 -0.7121 -1.9110
   25DOPE  C214 3163   7.621   5.705  15.620 -0.0779 -0.1276  0.3531
   25DOPE  H14R 3164   7.570   5.616  15.663  0.6338 -0.9705 -0.5140
   25DOPE  H14S 3165   7.587   5.711  15.514 -0.4287 -1.0032  0.4104
   25DOPE  C215 3166   7.574   5.825  15.697  0.1972 -0.0378 -0.5933
   25DOPE  H15R 3167   7.493   5.878  15.642 -0.6631 -0.7228 -0.0069
   25DOPE  H15S 3168   7.662   5.891  15.709  0.1365 -0.2988  1.6951
   25DOPE  C216 3169   7.510   5.785  15.834 -0.4255  0.6849  0.5595
   25DOPE  H16R 3170   7.580   5.746  15.911 -0.9545  0.2079  0.8008
   25DOPE  H16S 3171   7.435   5.705  15.815 -1.3361  1.8388 -0.9299
   25DOPE  C217 3172   7.441   5.905  15.904 -0.4547  0.5224  0.3005
   25DOPE  H17R 3173   7.388   5.863  15.992  0.8285 -0.2016  0.7515
   25DOPE  H17S 3174   7.366   5.948  15.834 -2.6997  1.2919  2.9740
   25DOPE  C218 3175   7.541   6.011  15.949  0.3525 -0.9733  0.0185
   25DOPE  H18R 3176   7.497   6.095  16.008 -1.6274 -1.3878 -0.7631
   25DOPE  H18S 3177   7.583   6.054  15.856  1.0859 -0.3821  0.6115
   25DOPE  H18T 3178   7.630   5.962  15.993  1.5732  0.3675 -0.8845
   25DOPE   C33 3179   7.816   6.075  16.440  0.1378  0.8263  0.8908
   25DOPE   H3X 3180   7.857   6.090  16.337  1.7827  0.0719  1.4041
   25DOPE   H3Y 3181   7.891   6.004  16.480  1.3729  2.7635  2.1650
   25DOPE   C34 3182   7.817   6.215  16.510  0.5359  0.9616  0.6124
   25DOPE   H4X 3183   7.747   6.278  16.451 -0.0376 -0.3767 -0.1922
   25DOPE   H4Y 3184   7.780   6.186  16.611  1.3812  0.4472  0.7846
   25DOPE   C35 3185   7.952   6.280  16.510  0.4207 -0.3886 -0.0697
   25DOPE   H5X 3186   8.019   6.229  16.583 -1.8132 -1.6822  1.1883
   25DOPE   H5Y 3187   7.927   6.373  16.564  0.4650 -0.1089 -0.5257
   25DOPE   C36 3188   8.020   6.310  16.376 -0.8161 -0.2342  0.5535
   25DOPE   H6X 3189   8.076   6.225  16.333  1.9231  2.1035 -0.9068
   25DOPE   H6Y 3190   8.096   6.389  16.396 -0.0877 -0.7537 -0.1512
   25DOPE   C37 3191   7.929   6.374  16.260 -0.4831  0.6485 -0.9203
   25DOPE   H7X 3192   7.863   6.295  16.220  0.6415 -0.0843 -1.3552
   25DOPE   H7Y 3193   7.861   6.445  16.313 -2.3382 -0.4986 -1.6595
   25DOPE   C38 3194   8.009   6.444  16.152 -0.1119 -0.1578 -0.0280
   25DOPE   H8X 3195   8.093   6.380  16.119  1.4492  2.7382 -2.2402
   25DOPE   H8Y 3196   8.064   6.527  16.203  0.1093 -0.3747  0.0870
   25DOPE   C39 3197   7.931   6.484  16.029  0.0712 -0.0380 -0.4521
   25DOPE   H9X 3198   7.874   6.578  16.037  0.0769 -0.0747  0.0508
   25DOPE  C310 3199   7.915   6.419  15.913 -0.3401 -0.4286  0.0872
   25DOPE  H10X 3200   7.846   6.458  15.836 -0.8138 -0.8421  0.3007
   25DOPE  C311 3201   7.975   6.284  15.880 -0.5317 -0.5312 -0.1669
   25DOPE  H11X 3202   8.005   6.275  15.774 -1.0176  0.1109 -0.3686
   25DOPE  H11Y 3203   8.078   6.274  15.922 -0.2751  0.4156 -0.5451
   25DOPE  C312 3204   7.874   6.177  15.918 -0.0221  0.0926  0.6616
   25DOPE  H12X 3205   7.782   6.199  15.860 -1.0405 -1.2696  1.7025
   25DOPE  H12Y 3206   7.846   6.182  16.026  0.2053  1.7089  0.6708
   25DOPE  C313 3207   7.919   6.034  15.874 -0.1408 -0.4246  0.2957
   25DOPE  H13X 3208   7.835   5.965  15.896  0.1470 -0.2225  2.2722
   25DOPE  H13Y 3209   7.952   6.043  15.768 -0.0970  3.4913  0.4695
   25DOPE  C314 3210   8.040   5.972  15.946  0.4036  0.5959  0.1137
   25DOPE  H14X 3211   8.134   6.030  15.935  0.4233  1.4094  3.4479
   25DOPE  H14Y 3212   8.069   5.871  15.910 -0.0935  0.8888 -1.1558
   25DOPE  C315 3213   8.007   5.955  16.096 -0.1638  0.3725 -0.0215
   25DOPE  H15X 3214   7.908   5.908  16.116 -0.1909  0.3968 -0.1011
   25DOPE  H15Y 3215   8.009   6.054  16.146  0.1525  0.6460 -0.5742
   25DOPE  C316 3216   8.129   5.869  16.147 -1.0474  0.0239 -1.0059
   25DOPE  H16X 3217   8.228   5.905  16.113 -1.0433 -0.3282 -1.3796
   25DOPE  H16Y 3218   8.123   5.769  16.099 -2.6038 -0.3877 -0.0446
   25DOPE  C317 3219   8.136   5.871  16.297 -0.5089  0.1047 -0.2744
   25DOPE  H17X 3220   8.235   5.840  16.338 -1.0838  0.0950  1.1997
   25DOPE  H17Y 3221   8.122   5.973  16.337  2.5079  0.1764  0.8631
   25DOPE  C318 3222   8.035   5.780  16.362  0.1976 -0.2598 -0.9126
   25DOPE  H18X 3223   8.065   5.675  16.343 -0.5906 -0.4190 -1.3500
   25DOPE  H18Y 3224   8.025   5.795  16.472 -0.3967 -0.9277 -0.8657
   25DOPE  H18Z 3225   7.933   5.790  16.317 -0.8095  0.5107  1.3790
   26DOPE     N 3226   0.488   6.266  17.134  0.7675  0.3155  0.7271
   26DOPE   HN1 3227   0.505   6.319  17.222  0.7347 -1.0171  1.5696
   26DOPE   HN2 3228   0.397   6.297  17.094  0.0350 -0.9512  1.3469
   26DOPE   HN3 3229   0.474   6.164  17.154  1.2087 -0.6292 -3.0921
   26DOPE   C12 3230   0.598   6.270  17.027 -0.4355  0.7339  1.2091
   26DOPE  H12A 3231   0.554   6.272  16.925  2.4985  1.8186 -0.1537
   26DOPE  H12B 3232   0.663   6.182  17.041 -0.5142  0.6163  0.8301
   26DOPE   C11 3233   0.676   6.403  17.024 -0.1665 -1.0074 -0.3474
   26DOPE  H11A 3234   0.745   6.379  16.940 -0.1858  0.1419 -0.7005
   26DOPE  H11B 3235   0.735   6.415  17.118  0.5357  2.5665 -1.0988
   26DOPE     P 3236   0.660   6.655  16.964  0.0479  0.0102  0.3423
   26DOPE   O13 3237   0.777   6.636  16.877 -0.2069 -0.0297  0.0906
   26DOPE   O14 3238   0.673   6.749  17.076  0.4263  0.0365  0.5639
   26DOPE   O11 3239   0.547   6.715  16.872  0.6780  0.1759  0.0448
   26DOPE   O12 3240   0.590   6.517  17.003  0.0740 -0.5643 -0.2051
   26DOPE    C1 3241   0.512   6.661  16.745  0.9243  0.6060 -0.5704
   26DOPE    HA 3242   0.420   6.603  16.766  1.9497 -0.3219  1.7804
   26DOPE    HB 3243   0.585   6.588  16.705  0.1937 -0.3894 -0.1131
   26DOPE    C2 3244   0.474   6.778  16.652  0.0237 -0.4855  0.2033
   26DOPE    HS 3245   0.420   6.853  16.713 -0.0459  0.1018 -0.5558
   26DOPE   O21 3246   0.387   6.730  16.550  0.2777 -0.3394  0.5287
   26DOPE   C21 3247   0.334   6.835  16.478 -0.4422  0.1847 -0.4061
   26DOPE   O22 3248   0.345   6.952  16.505 -0.3041  0.1362 -0.2611
   26DOPE   C22 3249   0.260   6.785  16.358  0.5688  0.1994 -0.8599
   26DOPE   H2R 3250   0.157   6.753  16.387  0.3699  1.6988  0.1744
   26DOPE   H2S 3251   0.311   6.695  16.318  0.3395  0.8276 -2.6337
   26DOPE    C3 3252   0.608   6.850  16.601 -0.4901  0.1523  0.0654
   26DOPE    HX 3253   0.674   6.849  16.690  0.7388  0.8893 -0.8088
   26DOPE    HY 3254   0.598   6.958  16.575 -1.2460 -0.0952 -0.7355
   26DOPE   O31 3255   0.660   6.779  16.481  0.0867 -0.3434 -0.0830
   26DOPE   C31 3256   0.784   6.787  16.452  0.5051  0.5678  0.4611
   26DOPE   O32 3257   0.870   6.846  16.509 -0.0324  0.1836 -0.0600
   26DOPE   C32 3258   0.806   6.704  16.334  0.4659 -0.0539  0.5503
   26DOPE   H2X 3259   0.808   6.596  16.360  1.2218 -0.3156 -0.5117
   26DOPE   H2Y 3260   0.717   6.718  16.269 -0.1179 -0.7372  1.1881
   26DOPE   C23 3261   0.263   6.890  16.256 -0.2140  0.2873  0.3740
   26DOPE   H3R 3262   0.215   6.982  16.295 -2.7197 -1.1784  0.9380
   26DOPE   H3S 3263   0.204   6.851  16.171 -0.2191  1.1911 -0.0519
   26DOPE   C24 3264   0.406   6.910  16.201 -0.3134 -0.5877  0.6510
   26DOPE   H4R 3265   0.472   6.954  16.279  3.2635 -0.7811 -2.0065
   26DOPE   H4S 3266   0.406   6.980  16.115  5.4392  0.0054  0.7103
   26DOPE   C25 3267   0.451   6.774  16.132 -1.0124  0.7987 -0.2149
   26DOPE   H5R 3268   0.369   6.714  16.088 -0.1781  0.2010 -0.9981
   26DOPE   H5S 3269   0.490   6.710  16.215  0.6164  3.9480  1.6445
   26DOPE   C26 3270   0.564   6.802  16.038 -0.3311  0.4547 -0.0714
   26DOPE   H6R 3271   0.643   6.865  16.084 -1.4487  0.8173  1.3971
   26DOPE   H6S 3272   0.521   6.860  15.954 -1.1395  0.1188  0.1093
   26DOPE   C27 3273   0.624   6.668  15.981  0.0394  0.2238  0.8437
   26DOPE   H7R 3274   0.543   6.603  15.942  0.7878 -1.1255  1.4714
   26DOPE   H7S 3275   0.659   6.610  16.069 -0.0966 -0.1589  0.6505
   26DOPE   C28 3276   0.740   6.684  15.878 -0.1678 -0.3325  0.2899
   26DOPE   H8R 3277   0.783   6.584  15.855 -1.9693 -0.8620 -1.0103
   26DOPE   H8S 3278   0.828   6.743  15.910 -0.4396  0.5813 -0.6127
   26DOPE   C29 3279   0.689   6.732  15.747 -0.1643  0.4408 -0.2815
   26DOPE   H9R 3280   0.594   6.786  15.761 -0.6059 -0.9783  3.3779
   26DOPE  C210 3281   0.750   6.735  15.623  0.5358 -0.3868 -0.1409
   26DOPE  H10R 3282   0.682   6.758  15.539  0.1925 -0.1123  0.2097
   26DOPE  C211 3283   0.891   6.688  15.591  0.2473 -0.6947  0.1515
   26DOPE  H11R 3284   0.958   6.686  15.680 -1.3311 -0.7311  1.3783
   26DOPE  H11S 3285   0.941   6.752  15.515  3.0301 -1.5413  1.1513
   26DOPE  C212 3286   0.886   6.547  15.531 -0.3429 -0.5638 -0.1249
   26DOPE  H12R 3287   0.848   6.472  15.604  0.6001 -2.2548 -1.3063
   26DOPE  H12S 3288   0.990   6.524  15.498 -0.6607 -0.1726 -1.4222
   26DOPE  C213 3289   0.797   6.546  15.407  0.7890  0.2870  0.1743
   26DOPE  H13R 3290   0.689   6.562  15.430  0.4377 -0.0946 -1.1189
   26DOPE  H13S 3291   0.801   6.439  15.374  0.7555  0.7565 -1.4341
   26DOPE  C214 3292   0.839   6.645  15.305  0.0338 -0.7378 -0.0919
   26DOPE  H14R 3293   0.950   6.651  15.301  0.3645 -3.0738  2.5800
   26DOPE  H14S 3294   0.798   6.740  15.347 -0.7307 -0.4121 -1.5080
   26DOPE  C215 3295   0.782   6.617  15.163 -0.1209 -0.0362 -0.8324
   26DOPE  H15R 3296   0.674   6.640  15.178 -0.0028  0.4060 -0.6675
   26DOPE  H15S 3297   0.801   6.514  15.127 -1.0424 -0.4805 -0.1083
   26DOPE  C216 3298   0.841   6.718  15.058  0.0949 -0.7448 -0.1731
   26DOPE  H16R 3299   0.930   6.671  15.012  0.5696 -1.2409  1.2089
   26DOPE  H16S 3300   0.861   6.818  15.103 -1.2642 -0.2391 -0.6174
   26DOPE  C217 3301   0.739   6.750  14.947 -0.1442  0.8553 -0.0528
   26DOPE  H17R 3302   0.670   6.830  14.982  0.0290  0.0015  2.4385
   26DOPE  H17S 3303   0.690   6.651  14.932 -0.0173  0.3665  2.3000
   26DOPE  C218 3304   0.791   6.818  14.829 -0.1800  0.6155 -0.0423
   26DOPE  H18R 3305   0.714   6.829  14.750 -2.3326 -0.5603  1.7462
   26DOPE  H18S 3306   0.877   6.762  14.786 -0.5932  0.6093 -0.8760
   26DOPE  H18T 3307   0.837   6.911  14.868  2.2428 -1.4781  2.5046
   26DOPE   C33 3308   0.936   6.741  16.254  0.1447 -1.1960  0.0828
   26DOPE   H3X 3309   1.022   6.747  16.324  0.3780 -2.1522 -0.1015
   26DOPE   H3Y 3310   0.927   6.841  16.207  1.4272 -0.8312  0.5600
   26DOPE   C34 3311   0.973   6.638  16.155  0.1728  0.3190  0.4263
   26DOPE   H4X 3312   0.999   6.540  16.202  0.8509  0.7055  0.8801
   26DOPE   H4Y 3313   0.884   6.607  16.097  2.3166 -2.6023 -1.6412
   26DOPE   C35 3314   1.091   6.683  16.061  0.2907  0.1613  0.3516
   26DOPE   H5X 3315   1.185   6.682  16.121  1.2550 -0.0523 -1.1198
   26DOPE   H5Y 3316   1.064   6.785  16.026 -0.2257 -0.1173 -0.0749
   26DOPE   C36 3317   1.105   6.595  15.933  0.4788  0.6912 -0.0375
   26DOPE   H6X 3318   1.008   6.555  15.897  0.3243  1.4006 -0.4214
   26DOPE   H6Y 3319   1.162   6.502  15.956 -0.6911  0.1545  0.8225
   26DOPE   C37 3320   1.175   6.670  15.820  0.1616 -0.0855 -0.2112
   26DOPE   H7X 3321   1.176   6.604  15.731  0.0458 -0.5398  0.1190
   26DOPE   H7Y 3322   1.116   6.761  15.795  0.3166  1.3966  3.9309
   26DOPE   C38 3323   1.309   6.723  15.870  0.0653 -0.5878  0.2187
   26DOPE   H8X 3324   1.310   6.772  15.969  1.9215 -0.5565  0.2145
   26DOPE   H8Y 3325   1.334   6.802  15.796  1.2397 -0.9370  0.2247
   26DOPE   C39 3326   1.416   6.621  15.860 -0.1749 -0.6586 -0.5660
   26DOPE   H9X 3327   1.417   6.550  15.945  1.5596 -1.0772 -0.8955
   26DOPE  C310 3328   1.518   6.605  15.768  0.3855 -0.3384 -0.3085
   26DOPE  H10X 3329   1.592   6.525  15.784 -1.3655 -1.5948  2.1598
   26DOPE  C311 3330   1.539   6.690  15.648  0.0514 -0.1536 -0.6444
   26DOPE  H11X 3331   1.469   6.776  15.645  1.7164  1.2735 -0.6655
   26DOPE  H11Y 3332   1.635   6.745  15.660  0.0819 -0.7653  2.8280
   26DOPE  C312 3333   1.540   6.631  15.508 -0.0980  0.2104  1.1033
   26DOPE  H12X 3334   1.612   6.548  15.495 -2.2194 -1.3750 -1.5190
   26DOPE  H12Y 3335   1.576   6.715  15.444 -1.7073  1.6978  2.0560
   26DOPE  C313 3336   1.407   6.575  15.466  0.3333 -0.0042 -0.0312
   26DOPE  H13X 3337   1.371   6.481  15.514  2.0750 -0.4448  0.5138
   26DOPE  H13Y 3338   1.333   6.653  15.494 -0.2137 -0.5042 -0.0570
   26DOPE  C314 3339   1.391   6.555  15.316  0.5203  0.3412  1.1477
   26DOPE  H14X 3340   1.453   6.465  15.299 -0.9367 -0.6399  0.8091
   26DOPE  H14Y 3341   1.423   6.630  15.240  1.7786 -1.4338 -0.1386
   26DOPE  C315 3342   1.244   6.525  15.283  0.7589 -0.2741  0.6464
   26DOPE  H15X 3343   1.176   6.603  15.322  0.9397  0.6651 -0.8129
   26DOPE  H15Y 3344   1.221   6.430  15.336 -1.2126 -0.1122  0.1561
   26DOPE  C316 3345   1.236   6.493  15.136  0.1201  0.7194  0.3059
   26DOPE  H16X 3346   1.272   6.573  15.068 -0.7515 -1.3665 -2.8530
   26DOPE  H16Y 3347   1.128   6.481  15.111  0.4733  0.4581 -1.1997
   26DOPE  C317 3348   1.287   6.351  15.090 -0.3359 -0.5219  0.3568
   26DOPE  H17X 3349   1.398   6.342  15.088 -0.1444  1.1907  0.9459
   26DOPE  H17Y 3350   1.260   6.273  15.164 -2.1686 -1.3978 -1.1727
   26DOPE  C318 3351   1.229   6.306  14.957  0.0487 -0.3868  0.0327
   26DOPE  H18X 3352   1.231   6.379  14.873 -0.9657  0.5322  0.7908
   26DOPE  H18Y 3353   1.288   6.216  14.928  2.6333  1.5532 -1.2401
   26DOPE  H18Z 3354   1.122   6.279  14.967  0.0106  0.4111  2.4866
   27DOPE     N 3355   6.444   7.465  17.017  0.0663  0.0024 -0.5536
   27DOPE   HN1 3356   6.382   7.431  17.093  1.1414  2.0280  1.3537
   27DOPE   HN2 3357   6.535   7.419  17.037  0.3956  0.5519 -0.7526
   27DOPE   HN3 3358   6.459   7.568  17.029  3.0472 -0.2822 -1.0405
   27DOPE   C12 3359   6.405   7.410  16.883 -0.5245  0.9908  0.3088
   27DOPE  H12A 3360   6.382   7.301  16.889 -0.7846  1.0331  0.1053
   27DOPE  H12B 3361   6.484   7.443  16.812 -1.7002  1.3086 -0.9043
   27DOPE   C11 3362   6.276   7.482  16.845 -0.3075 -0.0363  0.8687
   27DOPE  H11A 3363   6.253   7.437  16.747  1.6637  0.5461  0.0858
   27DOPE  H11B 3364   6.295   7.590  16.829  0.4447 -0.3985 -0.8762
   27DOPE     P 3365   6.074   7.341  16.935  0.3742  0.0735  0.2211
   27DOPE   O13 3366   5.959   7.363  17.029  0.2353 -0.1124  0.2723
   27DOPE   O14 3367   6.147   7.211  16.959  0.1366 -0.3956  0.0860
   27DOPE   O11 3368   6.027   7.343  16.776 -0.4324  0.5821 -0.3258
   27DOPE   O12 3369   6.171   7.462  16.948 -0.3556 -0.0891 -0.1428
   27DOPE    C1 3370   5.955   7.459  16.743  0.1487 -0.4631 -0.2013
   27DOPE    HA 3371   6.015   7.548  16.773 -1.5720  0.0646  1.9382
   27DOPE    HB 3372   5.860   7.472  16.800  0.7580  2.2386  0.3419
   27DOPE    C2 3373   5.936   7.470  16.595  0.8001  0.4728  0.5156
   27DOPE    HS 3374   6.029   7.470  16.535  0.4002 -0.7498 -0.1537
   27DOPE   O21 3375   5.858   7.587  16.566  0.2446 -0.0160  0.5075
   27DOPE   C21 3376   5.931   7.691  16.544  0.3718  0.3280 -0.5047
   27DOPE   O22 3377   6.051   7.705  16.561  0.1476 -0.1237  0.3281
   27DOPE   C22 3378   5.830   7.804  16.513 -0.1844  0.2229 -0.6351
   27DOPE   H2R 3379   5.769   7.816  16.605  2.2080  1.1204  0.9179
   27DOPE   H2S 3380   5.764   7.758  16.436  0.3352 -0.5129 -0.6521
   27DOPE    C3 3381   5.860   7.344  16.543  0.0810  0.4861 -0.3353
   27DOPE    HX 3382   5.794   7.320  16.630 -0.1271  3.8808  0.5765
   27DOPE    HY 3383   5.929   7.260  16.524 -0.6410  0.2552 -2.1022
   27DOPE   O31 3384   5.767   7.362  16.430  0.1768  0.1872  0.0691
   27DOPE   C31 3385   5.829   7.369  16.314 -0.2706 -0.0124 -0.0783
   27DOPE   O32 3386   5.950   7.370  16.304  0.7226 -0.3273  0.1052
   27DOPE   C32 3387   5.735   7.393  16.199 -0.1131 -0.1880 -0.5144
   27DOPE   H2X 3388   5.703   7.298  16.149 -1.9380  0.4741 -0.6862
   27DOPE   H2Y 3389   5.644   7.440  16.241  0.1015 -0.7404  0.5876
   27DOPE   C23 3390   5.896   7.935  16.476 -0.0420 -0.3585  0.0261
   27DOPE   H3R 3391   5.990   7.957  16.530  0.4900 -1.1521 -0.5564
   27DOPE   H3S 3392   5.829   8.021  16.500 -0.1578 -0.7598  1.2179
   27DOPE   C24 3393   5.933   7.944  16.330 -0.2748  0.0701  0.1134
   27DOPE   H4R 3394   5.994   7.863  16.284 -1.1659 -0.0007 -0.9960
   27DOPE   H4S 3395   5.988   8.040  16.321 -2.1071  2.0629  5.7283
   27DOPE   C25 3396   5.804   7.952  16.239 -0.9363 -0.6747 -0.1599
   27DOPE   H5R 3397   5.735   8.030  16.279 -0.9500  0.3132 -1.9676
   27DOPE   H5S 3398   5.745   7.858  16.241 -2.3497  0.1864  1.1458
   27DOPE   C26 3399   5.818   7.993  16.093 -0.0622 -0.9616  0.0221
   27DOPE   H6R 3400   5.884   8.083  16.098  0.2485 -1.1605 -0.4406
   27DOPE   H6S 3401   5.723   8.032  16.051  1.0081  0.6554 -1.0474
   27DOPE   C27 3402   5.864   7.886  16.003 -0.0399 -0.2685  0.3061
   27DOPE   H7R 3403   5.784   7.813  15.977  0.9394 -0.2507 -3.1746
   27DOPE   H7S 3404   5.937   7.827  16.061  0.6731  0.4653  0.1742
   27DOPE   C28 3405   5.916   7.929  15.869 -0.2859 -0.1977 -0.6629
   27DOPE   H8R 3406   5.972   7.855  15.808 -1.8721 -1.2261 -0.9193
   27DOPE   H8S 3407   5.988   8.010  15.891 -1.0090  0.4828 -0.7462
   27DOPE   C29 3408   5.818   7.974  15.765 -0.3121 -0.0471 -0.3890
   27DOPE   H9R 3409   5.748   7.892  15.744  1.1702 -1.1663 -1.2570
   27DOPE  C210 3410   5.806   8.080  15.694  0.3694  0.7313 -0.1740
   27DOPE  H10R 3411   5.716   8.091  15.633 -0.2484 -1.9493  0.1287
   27DOPE  C211 3412   5.897   8.203  15.696 -0.5808  0.5652 -0.2851
   27DOPE  H11R 3413   5.938   8.204  15.593 -2.9567 -1.3631 -1.3432
   27DOPE  H11S 3414   5.989   8.190  15.757 -1.2386  2.1948  1.1351
   27DOPE  C212 3415   5.836   8.335  15.735  0.4480  0.2011 -0.2636
   27DOPE  H12R 3416   5.913   8.413  15.754 -1.8995  2.6893 -0.3413
   27DOPE  H12S 3417   5.770   8.316  15.822  0.5847 -0.8860 -0.3904
   27DOPE  C213 3418   5.747   8.395  15.631  0.7471  0.4040 -0.8511
   27DOPE  H13R 3419   5.674   8.323  15.587  0.3894 -0.2466  0.7135
   27DOPE  H13S 3420   5.801   8.444  15.547  0.6766 -0.3114 -1.3236
   27DOPE  C214 3421   5.672   8.506  15.700 -0.3962 -0.0371  0.5536
   27DOPE  H14R 3422   5.747   8.581  15.733 -0.8534  1.5816 -1.8505
   27DOPE  H14S 3423   5.624   8.460  15.789  0.7242 -1.2369  0.5704
   27DOPE  C215 3424   5.568   8.574  15.605 -0.2386  0.0038  0.3258
   27DOPE  H15R 3425   5.632   8.602  15.518  0.4432 -0.4000  0.6882
   27DOPE  H15S 3426   5.535   8.673  15.643  0.4228  0.6515 -0.7154
   27DOPE  C216 3427   5.449   8.485  15.570  0.7073 -0.0930  0.6988
   27DOPE  H16R 3428   5.393   8.470  15.665  1.6452 -0.7139  1.1768
   27DOPE  H16S 3429   5.479   8.383  15.537  2.6879  0.8606 -0.6827
   27DOPE  C217 3430   5.350   8.555  15.472  0.3868  0.5398 -0.2965
   27DOPE  H17R 3431   5.415   8.550  15.382  0.1857 -1.5777 -0.3872
   27DOPE  H17S 3432   5.332   8.660  15.502 -1.0170  0.2292 -0.0009
   27DOPE  C218 3433   5.221   8.477  15.447  0.1882  0.5831  0.0743
   27DOPE  H18R 3434   5.158   8.522  15.368 -1.4104  0.2024  1.0874
   27DOPE  H18S 3435   5.160   8.473  15.540 -0.0876 -0.7110 -0.1427
   27DOPE  H18T 3436   5.255   8.375  15.419  1.0297  0.4997  1.2830
   27DOPE   C33 3437   5.794   7.479  16.087  1.0720  0.7068  0.1411
   27DOPE   H3X 3438   5.896   7.441  16.063 -0.3189 -3.7914  0.4692
   27DOPE   H3Y 3439   5.789   7.588  16.107 -1.8550  1.2899 -2.8886
   27DOPE   C34 3440   5.718   7.472  15.952 -0.2207 -0.1001  0.4979
   27DOPE   H4X 3441   5.696   7.365  15.928 -1.7547  0.3347 -0.1418
   27DOPE   H4Y 3442   5.616   7.516  15.952 -0.6217 -1.0026  0.7750
   27DOPE   C35 3443   5.805   7.516  15.834 -0.1920  0.2060 -0.9113
   27DOPE   H5X 3444   5.896   7.451  15.832 -0.0567  0.1486  2.1574
   27DOPE   H5Y 3445   5.829   7.623  15.853 -0.6405  0.0644  0.5586
   27DOPE   C36 3446   5.731   7.505  15.695 -0.6652  0.6012 -0.1125
   27DOPE   H6X 3447   5.628   7.542  15.716 -1.2346  0.0712 -1.8124
   27DOPE   H6Y 3448   5.729   7.398  15.666  2.2568  1.2891 -3.4735
   27DOPE   C37 3449   5.801   7.577  15.579  0.1740 -0.6659 -0.0588
   27DOPE   H7X 3450   5.730   7.575  15.493  1.3955  1.8346 -1.2344
   27DOPE   H7Y 3451   5.802   7.684  15.610  0.3768 -0.9514  0.9558
   27DOPE   C38 3452   5.940   7.532  15.537 -0.3712 -0.9690 -0.0415
   27DOPE   H8X 3453   6.007   7.540  15.626  2.3047  2.1292 -2.0897
   27DOPE   H8Y 3454   5.980   7.605  15.463 -0.2280 -1.1981 -0.1899
   27DOPE   C39 3455   5.954   7.396  15.478 -0.1998 -0.1972  0.1456
   27DOPE   H9X 3456   5.986   7.313  15.542 -1.7839 -2.5953 -1.9714
   27DOPE  C310 3457   5.950   7.367  15.344  0.7459 -0.2628 -0.5438
   27DOPE  H10X 3458   5.949   7.263  15.309 -0.7322 -0.0832 -1.1371
   27DOPE  C311 3459   5.931   7.463  15.232 -0.3247 -0.2087 -0.2082
   27DOPE  H11X 3460   5.918   7.570  15.260 -1.4709  0.3601 -2.5772
   27DOPE  H11Y 3461   6.021   7.458  15.166 -0.3716  0.8474 -0.3772
   27DOPE  C312 3462   5.791   7.436  15.164 -0.7360 -0.2672  0.2527
   27DOPE  H12X 3463   5.706   7.425  15.235 -1.4617  1.2988 -0.3037
   27DOPE  H12Y 3464   5.781   7.349  15.096 -0.3741  0.6459 -0.9990
   27DOPE  C313 3465   5.747   7.568  15.087  0.4461  0.0860  0.0456
   27DOPE  H13X 3466   5.641   7.540  15.064  0.0858  0.9936  0.5582
   27DOPE  H13Y 3467   5.745   7.659  15.149 -1.2991 -0.3543  0.7100
   27DOPE  C314 3468   5.811   7.588  14.952  0.5982 -0.0279  0.0961
   27DOPE  H14X 3469   5.837   7.489  14.908 -2.2347 -0.9431  0.2932
   27DOPE  H14Y 3470   5.908   7.640  14.970  1.6344 -1.7737 -0.1841
   27DOPE  C315 3471   5.728   7.677  14.855 -0.0290 -0.0467  0.1976
   27DOPE  H15X 3472   5.690   7.762  14.915  0.6357 -0.4256  1.1768
   27DOPE  H15Y 3473   5.639   7.616  14.827 -1.2675  2.2729 -1.2151
   27DOPE  C316 3474   5.805   7.724  14.736 -0.3365 -1.0310  0.8248
   27DOPE  H16X 3475   5.846   7.626  14.703  1.3970  0.1798 -0.7801
   27DOPE  H16Y 3476   5.886   7.796  14.760 -0.8563 -0.1214 -0.0686
   27DOPE  C317 3477   5.721   7.789  14.623  0.3502  0.1251 -0.0211
   27DOPE  H17X 3478   5.648   7.711  14.593  0.6878 -0.9052  1.6989
   27DOPE  H17Y 3479   5.664   7.874  14.667  1.0522  0.0323  1.1049
   27DOPE  C318 3480   5.803   7.833  14.496 -0.3359 -0.1285  0.1611
   27DOPE  H18X 3481   5.880   7.759  14.467 -0.4450  0.3496 -1.4569
   27DOPE  H18Y 3482   5.740   7.834  14.404  0.6799  0.9845 -0.5484
   27DOPE  H18Z 3483   5.843   7.934  14.521 -1.3375 -0.2516  2.5568
   28DOPE     N 3484   6.803   7.338  16.716 -0.7796  0.1945 -0.0670
   28DOPE   HN1 3485   6.828   7.367  16.812 -1.3998  0.6023 -0.0188
   28DOPE   HN2 3486   6.732   7.411  16.692 -0.5809  0.4235  0.0364
   28DOPE   HN3 3487   6.755   7.246  16.716 -2.4805  1.0272 -0.3429
   28DOPE   C12 3488   6.921   7.340  16.622 -0.3009 -0.0667  0.6178
   28DOPE  H12A 3489   6.879   7.373  16.524  2.0986 -0.8401 -0.7556
   28DOPE  H12B 3490   6.952   7.233  16.624 -3.3670 -1.0606  2.0511
   28DOPE   C11 3491   7.040   7.432  16.672  0.1458  0.2668  0.4287
   28DOPE  H11A 3492   7.017   7.541  16.675 -0.0552  0.2733 -0.8601
   28DOPE  H11B 3493   7.114   7.422  16.590 -1.1959 -1.3422 -0.6621
   28DOPE     P 3494   7.214   7.326  16.840 -0.1001  0.1656 -0.0510
   28DOPE   O13 3495   7.168   7.208  16.916  0.3421 -0.6600  0.0230
   28DOPE   O14 3496   7.310   7.419  16.901  0.1690 -0.1437 -0.1768
   28DOPE   O11 3497   7.274   7.292  16.697  0.1348 -0.4575  0.5409
   28DOPE   O12 3498   7.085   7.393  16.806  0.1983  0.4941 -0.0522
   28DOPE    C1 3499   7.273   7.152  16.653 -0.4430 -0.0392 -0.4645
   28DOPE    HA 3500   7.290   7.148  16.543 -1.6335  1.5701 -0.7484
   28DOPE    HB 3501   7.180   7.094  16.667 -1.6519  1.5130 -1.6275
   28DOPE    C2 3502   7.383   7.081  16.724  0.5576 -0.6666  1.2221
   28DOPE    HS 3503   7.387   7.096  16.834  3.9852  0.5024  1.0627
   28DOPE   O21 3504   7.498   7.143  16.670 -0.3983 -0.3059 -0.4264
   28DOPE   C21 3505   7.608   7.123  16.733  0.1053  0.6823  0.2900
   28DOPE   O22 3506   7.626   7.068  16.845 -0.6254  0.1543 -0.2631
   28DOPE   C22 3507   7.723   7.172  16.638  0.4424 -0.0106  0.3147
   28DOPE   H2R 3508   7.712   7.112  16.546 -1.0218 -1.0740  1.1351
   28DOPE   H2S 3509   7.825   7.153  16.678  0.0334 -0.9983  0.9394
   28DOPE    C3 3510   7.393   6.933  16.705  0.0381  0.0379  0.3500
   28DOPE    HX 3511   7.309   6.883  16.758 -0.1061 -0.6861 -0.5541
   28DOPE    HY 3512   7.486   6.899  16.755 -0.9141 -2.4194  0.5585
   28DOPE   O31 3513   7.381   6.899  16.571  0.0435  0.7369 -0.2375
   28DOPE   C31 3514   7.491   6.860  16.514 -0.6130 -0.3517  1.1895
   28DOPE   O32 3515   7.599   6.834  16.568 -0.0073  0.1792  0.1527
   28DOPE   C32 3516   7.472   6.849  16.357 -0.3296 -0.4887 -0.4869
   28DOPE   H2X 3517   7.540   6.771  16.315 -2.9115 -1.7385 -2.7036
   28DOPE   H2Y 3518   7.365   6.824  16.337  0.0179 -3.1066  0.4440
   28DOPE   C23 3519   7.707   7.316  16.601  0.2303  0.0414 -0.3319
   28DOPE   H3R 3520   7.734   7.374  16.693 -0.2192  1.2167 -0.9120
   28DOPE   H3S 3521   7.601   7.348  16.587  0.6709  2.4324  1.1514
   28DOPE   C24 3522   7.799   7.360  16.491 -0.0066 -0.4212  0.0585
   28DOPE   H4R 3523   7.906   7.351  16.519 -0.2609  3.9977  3.6754
   28DOPE   H4S 3524   7.771   7.466  16.473  0.2023 -0.4912 -0.7241
   28DOPE   C25 3525   7.775   7.296  16.354  0.3044 -0.9303 -0.5686
   28DOPE   H5R 3526   7.665   7.300  16.337  0.3093 -0.5707 -0.5187
   28DOPE   H5S 3527   7.803   7.188  16.352 -1.1935 -1.4134  1.2039
   28DOPE   C26 3528   7.849   7.354  16.240 -0.7703 -0.4777 -0.2769
   28DOPE   H6R 3529   7.958   7.351  16.263 -0.5123 -1.0307 -1.5117
   28DOPE   H6S 3530   7.814   7.459  16.230  0.2295 -0.0588  0.4204
   28DOPE   C27 3531   7.819   7.283  16.107  0.6217  0.0548  0.2607
   28DOPE   H7R 3532   7.709   7.291  16.090  0.8639  1.0600 -0.9937
   28DOPE   H7S 3533   7.867   7.183  16.109  2.0143  0.6826 -0.2116
   28DOPE   C28 3534   7.889   7.356  15.990  0.0716 -0.8535 -0.6687
   28DOPE   H8R 3535   7.996   7.325  15.991  0.4875  0.4967 -0.4064
   28DOPE   H8S 3536   7.891   7.467  15.997 -0.9939 -0.8969  1.1538
   28DOPE   C29 3537   7.824   7.315  15.853  0.1666  0.0676  0.3732
   28DOPE   H9R 3538   7.756   7.385  15.802  1.1770 -0.2212 -1.4273
   28DOPE  C210 3539   7.864   7.199  15.792 -0.0766  0.2844 -0.1223
   28DOPE  H10R 3540   7.795   7.154  15.719  0.0973 -0.9577  0.4494
   28DOPE  C211 3541   7.964   7.097  15.844  0.1839 -0.4243 -0.5453
   28DOPE  H11R 3542   7.909   7.024  15.906  0.1481 -0.0105 -0.0813
   28DOPE  H11S 3543   8.036   7.155  15.906 -0.3085  0.5132 -0.8369
   28DOPE  C212 3544   8.037   7.028  15.731  0.3712  0.0287  0.1386
   28DOPE  H12R 3545   8.127   6.971  15.764  1.4838 -0.2220 -2.9403
   28DOPE  H12S 3546   8.098   7.096  15.668  0.6019 -0.4746 -0.1950
   28DOPE  C213 3547   7.954   6.939  15.647  0.5293 -0.0549 -0.1150
   28DOPE  H13R 3548   8.021   6.894  15.570  0.3038 -0.4774 -0.0639
   28DOPE  H13S 3549   7.876   6.997  15.593 -0.3443  1.1900  2.3269
   28DOPE  C214 3550   7.888   6.817  15.723 -0.1987 -0.5382 -0.2082
   28DOPE  H14R 3551   7.836   6.852  15.814  1.5981 -0.0852  0.6955
   28DOPE  H14S 3552   7.966   6.744  15.755 -0.9916 -1.9562 -1.3491
   28DOPE  C215 3553   7.784   6.748  15.634 -0.4967 -0.4952 -0.2059
   28DOPE  H15R 3554   7.704   6.825  15.624  0.5352  0.6460  0.1381
   28DOPE  H15S 3555   7.750   6.656  15.687  0.2660 -1.0888 -0.7473
   28DOPE  C216 3556   7.820   6.714  15.490  0.5573 -0.6246 -0.1509
   28DOPE  H16R 3557   7.836   6.804  15.428  0.6562  0.3322  1.2318
   28DOPE  H16S 3558   7.744   6.656  15.434 -1.1521  0.7361  0.6722
   28DOPE  C217 3559   7.947   6.626  15.487  0.2855 -0.0214 -0.1326
   28DOPE  H17R 3560   7.914   6.540  15.549 -0.1232 -0.5461 -1.0537
   28DOPE  H17S 3561   8.034   6.680  15.529  0.1610 -0.1971  0.3557
   28DOPE  C218 3562   7.985   6.579  15.350  0.6181  0.0898 -0.1806
   28DOPE  H18R 3563   8.079   6.521  15.348  1.7176  1.8313 -0.8227
   28DOPE  H18S 3564   8.014   6.665  15.286  2.6336 -0.4225 -0.0075
   28DOPE  H18T 3565   7.900   6.529  15.298 -0.0934  1.2509 -0.1729
   28DOPE   C33 3566   7.492   6.994  16.297  0.2929  1.0950  0.1076
   28DOPE   H3X 3567   7.597   7.006  16.265  0.2696 -2.5228 -1.9162
   28DOPE   H3Y 3568   7.469   7.065  16.378 -0.6382  2.7432 -1.5338
   28DOPE   C34 3569   7.403   7.010  16.173  0.3520  0.1092 -0.4659
   28DOPE   H4X 3570   7.300   7.038  16.204  0.3492  0.1870 -0.5426
   28DOPE   H4Y 3571   7.455   7.100  16.135  0.7281  0.2384  0.3268
   28DOPE   C35 3572   7.395   6.907  16.061 -0.1217 -0.1777  0.0096
   28DOPE   H5X 3573   7.352   6.811  16.095  3.4825 -1.5162  1.2940
   28DOPE   H5Y 3574   7.504   6.893  16.041 -0.1590  0.4394 -0.7142
   28DOPE   C36 3575   7.340   6.954  15.927 -0.1335 -0.2304  0.4967
   28DOPE   H6X 3576   7.383   6.898  15.841 -0.4997  0.6373 -0.2724
   28DOPE   H6Y 3577   7.372   7.059  15.907  0.4106 -0.2814  1.0704
   28DOPE   C37 3578   7.188   6.963  15.920  0.3319  0.1739 -0.2657
   28DOPE   H7X 3579   7.136   6.903  15.997  0.4816 -1.6969 -1.5473
   28DOPE   H7Y 3580   7.144   7.064  15.933  0.2138  0.5546 -3.0821
   28DOPE   C38 3581   7.131   6.921  15.782 -0.0535 -0.4784  0.0421
   28DOPE   H8X 3582   7.024   6.949  15.785  0.5594  1.9963  0.9804
   28DOPE   H8Y 3583   7.158   6.814  15.770 -1.5593 -0.7861 -0.9523
   28DOPE   C39 3584   7.191   7.005  15.670  0.3830  0.3277 -0.7118
   28DOPE   H9X 3585   7.221   7.107  15.698  0.7274  0.2057 -0.6276
   28DOPE  C310 3586   7.195   6.965  15.538 -0.4551 -0.2195  0.1197
   28DOPE  H10X 3587   7.248   7.027  15.465 -1.7919 -0.8256 -1.4207
   28DOPE  C311 3588   7.154   6.839  15.473 -0.5747  0.4555  0.5146
   28DOPE  H11X 3589   7.107   6.768  15.544  0.3610 -0.5255  0.1761
   28DOPE  H11Y 3590   7.074   6.853  15.397  0.4787  2.4481 -0.3050
   28DOPE  C312 3591   7.263   6.752  15.404 -0.6724  0.3405 -0.0629
   28DOPE  H12X 3592   7.222   6.649  15.395  2.5426 -1.0477 -0.2975
   28DOPE  H12Y 3593   7.357   6.750  15.464  0.5351 -3.5403 -1.7714
   28DOPE  C313 3594   7.304   6.785  15.260  0.4473  0.3768  0.0407
   28DOPE  H13X 3595   7.214   6.794  15.195  0.1478  0.0229  0.3993
   28DOPE  H13Y 3596   7.364   6.878  15.263  0.1435  0.5550  1.6563
   28DOPE  C314 3597   7.375   6.679  15.180  0.8454 -0.2458 -0.1663
   28DOPE  H14X 3598   7.375   6.699  15.071 -1.1070  0.3360 -0.0967
   28DOPE  H14Y 3599   7.304   6.593  15.179  0.8852 -0.2809 -0.0172
   28DOPE  C315 3600   7.515   6.644  15.236  0.1725  0.1074 -0.3221
   28DOPE  H15X 3601   7.511   6.637  15.346 -0.8413 -0.4360 -0.3835
   28DOPE  H15Y 3602   7.585   6.726  15.209  0.7613 -0.0368  0.7247
   28DOPE  C316 3603   7.573   6.507  15.194 -0.8652 -0.4850 -0.6267
   28DOPE  H16X 3604   7.496   6.431  15.216 -1.2283  0.2347  0.7069
   28DOPE  H16Y 3605   7.657   6.482  15.262 -0.2691  0.5863 -0.9428
   28DOPE  C317 3606   7.624   6.508  15.043  0.8514 -0.3143 -0.6303
   28DOPE  H17X 3607   7.544   6.550  14.979  1.0655  2.9960  1.0703
   28DOPE  H17Y 3608   7.703   6.586  15.047  1.2855 -0.7326 -0.8666
   28DOPE  C318 3609   7.673   6.367  15.002  0.3318  0.0911 -0.3997
   28DOPE  H18X 3610   7.771   6.346  15.051  0.8131 -0.9439 -1.7544
   28DOPE  H18Y 3611   7.600   6.289  15.031 -0.1767 -0.0219 -1.8856
   28DOPE  H18Z 3612   7.690   6.362  14.893 -0.5595  0.0150 -0.5418
   29DOPE     N 3613   1.000   0.796  16.633  0.2450  0.1952  0.3990
   29DOPE   HN1 3614   1.096   0.771  16.664  0.2049  1.4957  1.6649
   29DOPE   HN2 3615   1.018   0.842  16.541  0.9680 -1.4496 -0.3274
   29DOPE   HN3 3616   0.966   0.859  16.708 -2.2922 -2.1638  1.4260
   29DOPE   C12 3617   0.912   0.676  16.612  0.1710 -0.1769 -0.5028
   29DOPE  H12A 3618   0.922   0.628  16.511  0.0399 -1.0669 -0.1043
   29DOPE  H12B 3619   0.808   0.713  16.612  0.1581 -0.1049 -2.2287
   29DOPE   C11 3620   0.921   0.580  16.730 -0.0058 -0.4523 -0.5306
   29DOPE  H11A 3621   1.022   0.538  16.748  0.6730  0.6671 -1.5906
   29DOPE  H11B 3622   0.851   0.505  16.688  1.0455  0.0764 -3.5034
   29DOPE     P 3623   0.799   0.571  16.966  0.2808 -0.4467 -0.0089
   29DOPE   O13 3624   0.832   0.629  17.101 -1.3679 -0.3151  0.4653
   29DOPE   O14 3625   0.834   0.430  16.948 -0.2194 -0.5583 -0.2414
   29DOPE   O11 3626   0.641   0.591  16.933  0.3890 -0.3716  0.2235
   29DOPE   O12 3627   0.878   0.654  16.850 -0.4259 -0.1544  0.3703
   29DOPE    C1 3628   0.548   0.487  16.910 -0.4898 -0.8221  0.1021
   29DOPE    HA 3629   0.450   0.513  16.956 -1.8318 -0.0815 -2.9463
   29DOPE    HB 3630   0.572   0.392  16.962 -1.6677 -1.3691 -0.3461
   29DOPE    C2 3631   0.526   0.466  16.757 -0.7527 -0.4745 -0.9591
   29DOPE    HS 3632   0.624   0.437  16.713  0.8919  2.0573  0.7119
   29DOPE   O21 3633   0.468   0.587  16.702  0.4198  0.6018 -0.3419
   29DOPE   C21 3634   0.509   0.623  16.587  0.2696  0.2694 -0.0713
   29DOPE   O22 3635   0.595   0.568  16.518  0.3518  0.0114  0.6704
   29DOPE   C22 3636   0.427   0.751  16.554  0.2488  0.0921 -0.2887
   29DOPE   H2R 3637   0.456   0.820  16.636 -2.0252 -0.0213  0.6881
   29DOPE   H2S 3638   0.320   0.725  16.568  0.5239 -0.5219  0.7747
   29DOPE    C3 3639   0.424   0.340  16.741 -0.3267 -0.3136 -0.2303
   29DOPE    HX 3640   0.323   0.370  16.776 -0.8055 -0.7534 -1.2025
   29DOPE    HY 3641   0.482   0.259  16.791  1.5630  0.8246 -0.4555
   29DOPE   O31 3642   0.405   0.311  16.604  0.0111 -0.3276 -0.0966
   29DOPE   C31 3643   0.355   0.187  16.577  0.0340 -0.4008  0.3577
   29DOPE   O32 3644   0.298   0.125  16.664 -0.4172 -0.1884 -0.0206
   29DOPE   C32 3645   0.354   0.169  16.426 -0.3468  0.3148  0.1205
   29DOPE   H2X 3646   0.246   0.183  16.406 -1.0079 -1.2391  2.2026
   29DOPE   H2Y 3647   0.423   0.243  16.380  2.8434 -0.4275  3.2361
   29DOPE   C23 3648   0.469   0.824  16.425  0.4240 -0.6121  0.2596
   29DOPE   H3R 3649   0.579   0.812  16.410  0.4752 -2.0513  1.4806
   29DOPE   H3S 3650   0.450   0.932  16.441  0.0976 -0.6383  0.0602
   29DOPE   C24 3651   0.403   0.774  16.296  0.0447  0.2834  0.4022
   29DOPE   H4R 3652   0.425   0.840  16.209 -1.1811  0.8908  0.5344
   29DOPE   H4S 3653   0.293   0.788  16.307 -0.2132  0.3024 -1.7170
   29DOPE   C25 3654   0.429   0.629  16.266  0.0006 -0.6463 -0.9819
   29DOPE   H5R 3655   0.397   0.564  16.351  1.4593  0.1440  0.2200
   29DOPE   H5S 3656   0.537   0.605  16.256  0.5612  1.1986  0.2023
   29DOPE   C26 3657   0.361   0.581  16.136 -0.5995  0.5048  0.6382
   29DOPE   H6R 3658   0.421   0.631  16.057 -1.4735 -0.9050 -0.9848
   29DOPE   H6S 3659   0.253   0.604  16.126 -0.8852 -1.1140 -0.3767
   29DOPE   C27 3660   0.370   0.427  16.105 -0.1778 -0.8683 -0.3960
   29DOPE   H7R 3661   0.289   0.378  16.164  0.1400 -0.4297  0.4224
   29DOPE   H7S 3662   0.460   0.381  16.151 -0.5439  0.8218  2.2408
   29DOPE   C28 3663   0.355   0.386  15.961 -0.3905 -0.2716 -0.3018
   29DOPE   H8R 3664   0.265   0.440  15.927  0.2987  2.5788  2.0339
   29DOPE   H8S 3665   0.339   0.276  15.962  0.6607 -0.4388  1.0591
   29DOPE   C29 3666   0.471   0.423  15.868  0.0868 -0.3329  0.2225
   29DOPE   H9R 3667   0.568   0.371  15.875  0.9309  0.3421 -3.7153
   29DOPE  C210 3668   0.474   0.507  15.762 -0.5432 -0.1915  1.4680
   29DOPE  H10R 3669   0.565   0.510  15.700 -2.9006 -2.2871 -2.4914
   29DOPE  C211 3670   0.370   0.597  15.697 -0.5741 -0.0536 -0.2339
   29DOPE  H11R 3671   0.269   0.561  15.725 -0.9903  1.3972  0.2298
   29DOPE  H11S 3672   0.369   0.584  15.587 -1.8864  0.4052 -0.3006
   29DOPE  C212 3673   0.404   0.745  15.732 -0.5015 -0.1912 -0.7145
   29DOPE  H12R 3674   0.395   0.755  15.842  1.1734  0.1900 -0.5950
   29DOPE  H12S 3675   0.334   0.810  15.674  1.3019  2.2162 -0.3436
   29DOPE  C213 3676   0.549   0.785  15.687  0.5240  0.7036  0.6275
   29DOPE  H13R 3677   0.632   0.721  15.724  0.4406 -0.0531 -0.4690
   29DOPE  H13S 3678   0.560   0.889  15.725 -3.0865  2.4202 -2.4016
   29DOPE  C214 3679   0.585   0.779  15.537 -0.2649 -0.7025  0.0808
   29DOPE  H14R 3680   0.593   0.676  15.496  1.5419  0.3780 -2.5244
   29DOPE  H14S 3681   0.688   0.820  15.539 -1.2743  2.1009 -0.2148
   29DOPE  C215 3682   0.499   0.872  15.447  0.6572 -0.4248 -0.2172
   29DOPE  H15R 3683   0.566   0.898  15.363 -0.0403 -0.6413 -0.8589
   29DOPE  H15S 3684   0.478   0.967  15.500 -1.8410 -1.7393  1.3382
   29DOPE  C216 3685   0.372   0.804  15.380 -0.4149  0.5028  0.2606
   29DOPE  H16R 3686   0.279   0.808  15.441 -0.0180  0.1792  0.9048
   29DOPE  H16S 3687   0.399   0.698  15.357 -0.7834  0.3178  0.6597
   29DOPE  C217 3688   0.334   0.871  15.242 -0.1145  0.0510 -0.4664
   29DOPE  H17R 3689   0.418   0.852  15.172  0.6968 -0.8325  0.7036
   29DOPE  H17S 3690   0.328   0.979  15.266 -2.3357 -0.0385 -0.4962
   29DOPE  C218 3691   0.204   0.814  15.173 -0.7078  0.5295 -0.7836
   29DOPE  H18R 3692   0.208   0.703  15.177 -2.0678  0.4994  0.8787
   29DOPE  H18S 3693   0.213   0.844  15.066  0.5339 -1.2509 -1.2328
   29DOPE  H18T 3694   0.108   0.849  15.216 -1.1009 -1.9266  0.5515
   29DOPE   C33 3695   0.405   0.032  16.372  0.5619 -0.2338  0.1084
   29DOPE   H3X 3696   0.363  -0.047  16.438  1.5196 -0.8314  0.0152
   29DOPE   H3Y 3697   0.516   0.024  16.375  0.5968  0.0938 -0.2522
   29DOPE   C34 3698   0.351   0.010  16.223  0.4690  0.4412 -0.1033
   29DOPE   H4X 3699   0.245  -0.021  16.231  0.0387  1.3781 -1.6537
   29DOPE   H4Y 3700   0.360   0.099  16.158  1.2339 -0.6468 -1.5711
   29DOPE   C35 3701   0.428  -0.095  16.141 -0.2547  0.4582 -0.0267
   29DOPE   H5X 3702   0.386  -0.121  16.042  1.0094 -1.3590 -0.1447
   29DOPE   H5Y 3703   0.438  -0.191  16.197  1.4176 -0.9626 -2.5495
   29DOPE   C36 3704   0.574  -0.049  16.107 -0.6165  0.0885  0.3620
   29DOPE   H6X 3705   0.629  -0.141  16.078 -0.3325 -0.0802  1.3883
   29DOPE   H6Y 3706   0.637  -0.029  16.196 -0.2640  1.7262 -0.2262
   29DOPE   C37 3707   0.587   0.065  16.015 -0.2626 -0.0014  0.0395
   29DOPE   H7X 3708   0.534   0.157  16.048  2.5779  1.3611  1.1739
   29DOPE   H7Y 3709   0.691   0.099  16.033 -1.0969  2.4918  0.5929
   29DOPE   C38 3710   0.541   0.044  15.870  0.2880  0.2323 -0.1090
   29DOPE   H8X 3711   0.519   0.146  15.832  0.3955 -0.3744 -1.8969
   29DOPE   H8Y 3712   0.448  -0.017  15.865 -0.7917  1.8935 -1.2338
   29DOPE   C39 3713   0.648  -0.019  15.779  0.0552 -0.1696 -0.3196
   29DOPE   H9X 3714   0.749   0.021  15.793 -0.2729  1.6676 -2.5691
   29DOPE  C310 3715   0.621  -0.109  15.681  0.6491 -0.3616 -0.4697
   29DOPE  H10X 3716   0.711  -0.151  15.633  0.6996 -1.4788  0.5689
   29DOPE  C311 3717   0.485  -0.168  15.650 -0.2503  0.1700 -0.1385
   29DOPE  H11X 3718   0.480  -0.256  15.718  0.8357 -0.8880 -1.3698
   29DOPE  H11Y 3719   0.400  -0.103  15.680 -2.2567 -1.7033 -1.4305
   29DOPE  C312 3720   0.480  -0.209  15.506 -0.3709 -0.0313  0.0316
   29DOPE  H12X 3721   0.564  -0.279  15.487  0.7491  0.5859  2.3295
   29DOPE  H12Y 3722   0.495  -0.120  15.442  1.6899 -0.2145  0.1967
   29DOPE  C313 3723   0.356  -0.289  15.470 -0.7437  0.2027  0.4879
   29DOPE  H13X 3724   0.362  -0.331  15.368 -1.3387  1.2734 -0.0002
   29DOPE  H13Y 3725   0.361  -0.372  15.544  1.5956 -1.4553 -1.4039
   29DOPE  C314 3726   0.218  -0.209  15.464 -0.1065 -0.3737  0.2510
   29DOPE  H14X 3727   0.224  -0.121  15.396  0.0758  0.0750  0.8390
   29DOPE  H14Y 3728   0.192  -0.172  15.565 -1.4827  0.0002 -0.2212
   29DOPE  C315 3729   0.086  -0.288  15.432  0.7636 -0.3124 -0.0063
   29DOPE  H15X 3730  -0.004  -0.233  15.464 -0.1314 -2.9256  2.3546
   29DOPE  H15Y 3731   0.096  -0.380  15.493  0.1566  0.0788  0.7037
   29DOPE  C316 3732   0.075  -0.338  15.287  0.0716 -0.0289 -0.4513
   29DOPE  H16X 3733  -0.018  -0.398  15.280 -1.2374  1.6414  1.4020
   29DOPE  H16Y 3734   0.165  -0.399  15.263 -0.3298 -0.9269  0.2535
   29DOPE  C317 3735   0.070  -0.216  15.197  0.3353  0.9109 -0.1729
   29DOPE  H17X 3736   0.003  -0.137  15.238  0.9771  1.0064  0.7234
   29DOPE  H17Y 3737   0.168  -0.165  15.204  1.0290 -0.4177  0.1757
   29DOPE  C318 3738   0.025  -0.267  15.055 -0.4360 -0.1208  0.3065
   29DOPE  H18X 3739  -0.081  -0.303  15.053 -1.1224  1.7434 -2.2234
   29DOPE  H18Y 3740   0.025  -0.175  14.993  0.0455 -0.5228 -0.3117
   29DOPE  H18Z 3741   0.104  -0.331  15.011 -1.5190 -0.5611 -1.0959
   30DOPE     N 3742   0.957   6.799  16.776  0.2129  0.1111 -0.5799
   30DOPE   HN1 3743   0.943   6.841  16.682  0.9421 -0.8283 -1.1361
   30DOPE   HN2 3744   1.032   6.726  16.767  0.0129 -0.0490 -0.9730
   30DOPE   HN3 3745   0.872   6.751  16.810 -0.2783  0.2316 -1.6057
   30DOPE   C12 3746   1.009   6.914  16.865 -0.3343 -0.6448  0.1311
   30DOPE  H12A 3747   1.119   6.916  16.850 -0.6478 -0.1771 -2.4524
   30DOPE  H12B 3748   0.986   6.883  16.969  0.6513  0.1704  0.6063
   30DOPE   C11 3749   0.948   7.050  16.813 -0.0407  0.2219 -0.5910
   30DOPE  H11A 3750   0.968   7.068  16.706  0.5704  0.4513 -0.4449
   30DOPE  H11B 3751   1.000   7.134  16.864 -1.4685  1.1545 -0.6153
   30DOPE     P 3752   0.757   7.148  16.962 -0.0196  0.0128  0.3808
   30DOPE   O13 3753   0.855   7.136  17.071  0.6803 -0.8107 -0.1993
   30DOPE   O14 3754   0.617   7.139  17.003  0.3907 -0.5217  0.3548
   30DOPE   O11 3755   0.790   7.285  16.893  0.1546  0.1524  0.4991
   30DOPE   O12 3756   0.805   7.047  16.843  0.1403  0.4808  0.0874
   30DOPE    C1 3757   0.680   7.343  16.822  0.2019 -0.2264 -1.0244
   30DOPE    HA 3758   0.632   7.407  16.898  2.2429 -1.6356  1.6327
   30DOPE    HB 3759   0.603   7.270  16.787 -1.3796  0.9306 -0.0889
   30DOPE    C2 3760   0.711   7.437  16.696 -0.6023  0.1758  0.0532
   30DOPE    HS 3761   0.615   7.461  16.644 -0.3959 -1.0393 -0.9418
   30DOPE   O21 3762   0.794   7.363  16.611  0.0117  0.2531  0.3097
   30DOPE   C21 3763   0.730   7.282  16.519 -0.5500  0.9200  0.3072
   30DOPE   O22 3764   0.614   7.282  16.503  0.2626  0.6781  0.1356
   30DOPE   C22 3765   0.837   7.197  16.447  0.3987 -0.0951  0.7890
   30DOPE   H2R 3766   0.829   7.087  16.461 -0.4184 -0.2297 -0.5415
   30DOPE   H2S 3767   0.934   7.237  16.482  0.2491  0.6237  0.4088
   30DOPE    C3 3768   0.782   7.567  16.749 -0.2422  0.3851 -0.0631
   30DOPE    HX 3769   0.858   7.524  16.817 -1.5418 -0.1071  1.1177
   30DOPE    HY 3770   0.707   7.618  16.812 -1.7574  0.7745 -2.0717
   30DOPE   O31 3771   0.846   7.646  16.644  0.6220 -0.2432  0.6765
   30DOPE   C31 3772   0.760   7.729  16.591 -0.3002  0.5709  0.3172
   30DOPE   O32 3773   0.642   7.741  16.622  0.7517  0.2443  0.3282
   30DOPE   C32 3774   0.840   7.818  16.492  0.4750  0.2697  0.0072
   30DOPE   H2X 3775   0.923   7.866  16.548  1.0035  0.9714 -1.3232
   30DOPE   H2Y 3776   0.892   7.758  16.415 -0.2436  0.2950 -0.5112
   30DOPE   C23 3777   0.834   7.230  16.294  1.2725 -0.2495  0.3009
   30DOPE   H3R 3778   0.935   7.197  16.260  1.2201  0.2628 -0.3691
   30DOPE   H3S 3779   0.833   7.339  16.272 -1.4909 -0.4806 -1.0804
   30DOPE   C24 3780   0.704   7.172  16.219  0.5059  0.2719 -1.0015
   30DOPE   H4R 3781   0.617   7.211  16.278  1.1421  1.6144 -0.9122
   30DOPE   H4S 3782   0.686   7.063  16.232  1.0702  0.3991  1.5281
   30DOPE   C25 3783   0.695   7.215  16.076  0.5763  0.1728  0.3573
   30DOPE   H5R 3784   0.722   7.322  16.064  1.0447  0.2480  1.8046
   30DOPE   H5S 3785   0.589   7.227  16.045  0.2320  3.1913  2.2213
   30DOPE   C26 3786   0.770   7.133  15.977 -0.3604 -0.0844  0.7086
   30DOPE   H6R 3787   0.721   7.034  15.962  0.0794 -0.0153 -1.6037
   30DOPE   H6S 3788   0.876   7.125  16.009 -0.1454 -0.3090 -0.0304
   30DOPE   C27 3789   0.758   7.207  15.836  0.0706 -0.0517 -0.6522
   30DOPE   H7R 3790   0.804   7.308  15.844  0.4123 -0.2575  0.0735
   30DOPE   H7S 3791   0.649   7.224  15.824 -0.3275 -0.0352  2.3845
   30DOPE   C28 3792   0.814   7.133  15.712 -0.8961  0.1239 -0.0459
   30DOPE   H8R 3793   0.752   7.043  15.692 -0.4715 -0.3019  0.5211
   30DOPE   H8S 3794   0.919   7.105  15.735  0.3260  3.3635 -1.0928
   30DOPE   C29 3795   0.812   7.239  15.601 -0.1278  0.2443  0.4256
   30DOPE   H9R 3796   0.807   7.344  15.634  2.3780 -0.3893  3.3077
   30DOPE  C210 3797   0.794   7.223  15.471 -0.1895  0.9938  0.0156
   30DOPE  H10R 3798   0.789   7.312  15.408  1.3714  0.2740 -1.2165
   30DOPE  C211 3799   0.763   7.087  15.408  0.6219 -0.2722  1.2133
   30DOPE  H11R 3800   0.818   7.003  15.455  0.2564  0.7167  3.5534
   30DOPE  H11S 3801   0.797   7.090  15.303  1.4872  0.8694  1.4965
   30DOPE  C212 3802   0.610   7.051  15.395  0.3839 -0.5188 -0.5741
   30DOPE  H12R 3803   0.552   7.146  15.384 -1.3641 -1.4806 -0.0307
   30DOPE  H12S 3804   0.583   6.998  15.489 -0.3164  0.2620 -0.3228
   30DOPE  C213 3805   0.576   6.960  15.272 -0.7836  0.2794 -0.4142
   30DOPE  H13R 3806   0.607   6.856  15.296 -0.0863  0.0457 -2.1527
   30DOPE  H13S 3807   0.627   6.999  15.181 -0.8975  3.4134  0.7416
   30DOPE  C214 3808   0.431   6.960  15.242  0.3582  0.5628 -0.2001
   30DOPE  H14R 3809   0.371   6.971  15.335 -0.6113  2.3860 -0.9829
   30DOPE  H14S 3810   0.401   6.866  15.192 -0.2530  1.1151 -0.9095
   30DOPE  C215 3811   0.390   7.056  15.130 -0.0878  0.5508 -0.3593
   30DOPE  H15R 3812   0.452   7.046  15.038 -2.1923  1.2825 -1.9326
   30DOPE  H15S 3813   0.398   7.160  15.170  1.3720  0.7040 -0.9578
   30DOPE  C216 3814   0.234   7.048  15.094 -0.3367  0.6191  0.3464
   30DOPE  H16R 3815   0.223   7.135  15.026  1.9303  1.5230  1.0512
   30DOPE  H16S 3816   0.156   7.051  15.174 -0.7425 -1.3541  0.0887
   30DOPE  C217 3817   0.193   6.928  15.004 -0.1885  0.3307 -0.8476
   30DOPE  H17R 3818   0.205   6.833  15.061  0.6619  0.9528  0.0438
   30DOPE  H17S 3819   0.267   6.916  14.922  1.3288 -1.7873  0.7334
   30DOPE  C218 3820   0.053   6.933  14.936  0.2214 -0.5026 -0.3101
   30DOPE  H18R 3821   0.028   6.833  14.895 -0.4948  0.1760 -1.6002
   30DOPE  H18S 3822   0.057   7.016  14.862  1.8796  0.5208  0.8745
   30DOPE  H18T 3823  -0.020   6.954  15.017 -0.3161 -2.6150 -0.1837
   30DOPE   C33 3824   0.747   7.916  16.424 -0.2737 -0.6003 -0.0727
   30DOPE   H3X 3825   0.671   7.954  16.496  0.6708  0.4793  0.3736
   30DOPE   H3Y 3826   0.693   7.872  16.336  0.0535 -1.4499  0.1379
   30DOPE   C34 3827   0.817   8.036  16.374 -0.0148 -0.5993  0.1431
   30DOPE   H4X 3828   0.741   8.111  16.343 -1.4395 -1.2997  1.7652
   30DOPE   H4Y 3829   0.887   8.088  16.443  0.9027 -0.4581 -0.8560
   30DOPE   C35 3830   0.913   7.997  16.254 -0.3822 -0.5018  0.4541
   30DOPE   H5X 3831   0.952   7.894  16.266  0.1855 -0.3379  0.0117
   30DOPE   H5Y 3832   1.000   8.065  16.263 -0.1931 -0.8898  1.8339
   30DOPE   C36 3833   0.843   8.010  16.126  0.3521  0.2262  0.3509
   30DOPE   H6X 3834   0.797   8.111  16.123 -1.8366 -0.7398 -0.5530
   30DOPE   H6Y 3835   0.756   7.941  16.135  0.9587 -0.4773  0.9794
   30DOPE   C37 3836   0.936   7.988  16.011 -0.1885  0.1852 -0.7036
   30DOPE   H7X 3837   1.012   8.069  16.008 -1.9636  1.9160 -2.3904
   30DOPE   H7Y 3838   0.990   7.892  16.022  0.2465  0.2209 -2.2941
   30DOPE   C38 3839   0.870   7.983  15.874  0.0873  0.6810 -0.5155
   30DOPE   H8X 3840   0.782   7.915  15.868 -0.0303  0.5127  1.9493
   30DOPE   H8Y 3841   0.947   7.933  15.812  0.2691  1.1737 -0.6950
   30DOPE   C39 3842   0.834   8.118  15.825 -0.0704 -0.3652  0.6406
   30DOPE   H9X 3843   0.778   8.179  15.897 -0.2517  1.2470 -0.7855
   30DOPE  C310 3844   0.841   8.168  15.696  0.3924 -0.0492 -0.6400
   30DOPE  H10X 3845   0.812   8.272  15.672  3.2503  0.4505 -2.5360
   30DOPE  C311 3846   0.878   8.085  15.582  0.0505  0.2622 -0.1103
   30DOPE  H11X 3847   0.911   8.148  15.496  0.2436  0.1390 -0.1251
   30DOPE  H11Y 3848   0.959   8.015  15.608 -1.0628 -1.8631 -1.9524
   30DOPE  C312 3849   0.768   7.992  15.535  1.0341  0.1696  0.2919
   30DOPE  H12X 3850   0.678   8.055  15.519 -0.0651 -1.1649  0.9677
   30DOPE  H12Y 3851   0.723   7.934  15.619 -0.5402 -1.2325 -1.4399
   30DOPE  C313 3852   0.795   7.909  15.406  0.3074  0.4065 -0.1909
   30DOPE  H13X 3853   0.850   7.983  15.343  0.0859  1.2355  0.5791
   30DOPE  H13Y 3854   0.863   7.824  15.428  0.3619  0.6712  0.6701
   30DOPE  C314 3855   0.669   7.865  15.339  0.1881  0.3399  0.3755
   30DOPE  H14X 3856   0.613   7.958  15.317 -1.4836  0.1822  3.3995
   30DOPE  H14Y 3857   0.617   7.812  15.421  1.0420  0.7189  1.1790
   30DOPE  C315 3858   0.686   7.775  15.213  0.2772  0.5427  0.2986
   30DOPE  H15X 3859   0.755   7.691  15.232  1.4184  1.5732  0.8567
   30DOPE  H15Y 3860   0.736   7.829  15.130 -0.2219  0.7647  0.1412
   30DOPE  C316 3861   0.550   7.724  15.159 -0.4163  0.3553  0.3492
   30DOPE  H16X 3862   0.488   7.801  15.109 -2.5932 -0.2583  1.9460
   30DOPE  H16Y 3863   0.479   7.688  15.237  0.6146  1.0025  1.6237
   30DOPE  C317 3864   0.569   7.621  15.049  0.1961 -0.1699  0.0604
   30DOPE  H17X 3865   0.472   7.612  14.995  0.1033 -0.2293  0.2358
   30DOPE  H17Y 3866   0.638   7.656  14.969  0.1447 -3.6185 -1.7034
   30DOPE  C318 3867   0.613   7.484  15.092  0.4449  0.5121  0.1611
   30DOPE  H18X 3868   0.557   7.439  15.177  2.4998 -2.0138  0.2942
   30DOPE  H18Y 3869   0.613   7.414  15.005 -3.6499  1.3387 -0.7115
   30DOPE  H18Z 3870   0.712   7.489  15.141  0.0965  0.0472  0.9412
   31DOPE     N 3871   1.824   3.658  13.177 -0.4386 -0.2044  0.2592
   31DOPE   HN1 3872   1.734   3.704  13.201 -1.1028 -0.6998 -1.2275
   31DOPE   HN2 3873   1.831   3.644  13.074 -2.0999 -0.4018  0.1465
   31DOPE   HN3 3874   1.809   3.565  13.220  0.5922  0.4963  2.3083
   31DOPE   C12 3875   1.950   3.723  13.223 -0.7799 -0.2487  0.5438
   31DOPE  H12A 3876   1.986   3.669  13.313 -2.0824 -3.8938 -0.9547
   31DOPE  H12B 3877   1.927   3.830  13.245 -1.4119 -0.1346 -0.6012
   31DOPE   C11 3878   2.060   3.709  13.109 -0.0242 -0.0628  0.4791
   31DOPE  H11A 3879   2.147   3.761  13.155 -0.0528  0.6070 -0.2110
   31DOPE  H11B 3880   2.038   3.755  13.010 -3.1921 -1.2253  0.5165
   31DOPE     P 3881   2.205   3.525  12.993  0.3553 -0.1389 -0.5578
   31DOPE   O13 3882   2.285   3.645  12.957 -0.1789  0.0284 -0.2297
   31DOPE   O14 3883   2.139   3.460  12.883 -0.0056 -0.0808  0.2551
   31DOPE   O11 3884   2.294   3.436  13.078 -0.1128  0.5572  0.4501
   31DOPE   O12 3885   2.095   3.573  13.094 -0.2672 -0.1303 -0.2693
   31DOPE    C1 3886   2.406   3.474  13.154 -0.0280 -0.3735 -0.8578
   31DOPE    HA 3887   2.408   3.583  13.175 -0.5694 -0.5328  0.1052
   31DOPE    HB 3888   2.503   3.450  13.105  2.5045 -0.2638  3.5533
   31DOPE    C2 3889   2.417   3.393  13.287  0.5621  0.0846 -0.9987
   31DOPE    HS 3890   2.403   3.284  13.272 -0.2966 -0.3878  2.4348
   31DOPE   O21 3891   2.318   3.447  13.381 -0.3846 -0.6147  0.1155
   31DOPE   C21 3892   2.206   3.383  13.399  0.0663 -0.0350 -0.3831
   31DOPE   O22 3893   2.171   3.277  13.345  0.1043 -0.6520  0.0179
   31DOPE   C22 3894   2.130   3.461  13.503 -0.0777  0.4907 -0.2267
   31DOPE   H2R 3895   2.073   3.546  13.459 -1.2771 -0.4483 -0.5435
   31DOPE   H2S 3896   2.200   3.504  13.576 -1.5346  1.5633  0.5904
   31DOPE    C3 3897   2.552   3.417  13.361 -0.3311  0.0430  0.4942
   31DOPE    HX 3898   2.573   3.525  13.370 -2.2474  0.2936  2.8050
   31DOPE    HY 3899   2.632   3.376  13.295  0.3624  0.7700  0.8623
   31DOPE   O31 3900   2.553   3.343  13.483 -0.0397  0.2797  0.2781
   31DOPE   C31 3901   2.520   3.413  13.597  0.3800 -0.2848  0.2007
   31DOPE   O32 3902   2.474   3.528  13.597  0.9269 -0.4966  0.2599
   31DOPE   C32 3903   2.524   3.318  13.718 -0.5365 -0.5281  0.5539
   31DOPE   H2X 3904   2.473   3.368  13.803 -0.2891 -0.4424  0.6555
   31DOPE   H2Y 3905   2.480   3.220  13.693  0.6210 -1.2383  1.2362
   31DOPE   C23 3906   2.036   3.363  13.579 -1.0507  0.0445  1.0045
   31DOPE   H3R 3907   1.980   3.312  13.497  1.1390  0.7999 -1.0632
   31DOPE   H3S 3908   1.956   3.419  13.632 -2.5998 -0.0863 -1.0775
   31DOPE   C24 3909   2.116   3.257  13.663  0.1987 -0.1102  0.3348
   31DOPE   H4R 3910   2.220   3.248  13.624 -0.7439  1.7375 -3.0104
   31DOPE   H4S 3911   2.063   3.160  13.653  0.7633 -0.3441 -0.5576
   31DOPE   C25 3912   2.126   3.294  13.807  0.1166 -0.6129 -0.2533
   31DOPE   H5R 3913   2.030   3.329  13.852  0.6125  0.1605  0.2248
   31DOPE   H5S 3914   2.186   3.386  13.824 -1.4197  0.3071  0.4041
   31DOPE   C26 3915   2.178   3.180  13.889 -0.3420 -0.4285 -0.0544
   31DOPE   H6R 3916   2.284   3.160  13.864  0.2283  0.2283  1.6880
   31DOPE   H6S 3917   2.129   3.084  13.861  0.2306 -0.3857 -1.2563
   31DOPE   C27 3918   2.174   3.218  14.040  0.5874  0.3737 -0.7293
   31DOPE   H7R 3919   2.070   3.255  14.048  0.9212  1.0103  1.1285
   31DOPE   H7S 3920   2.235   3.308  14.062  1.3426  0.0013 -1.2531
   31DOPE   C28 3921   2.195   3.109  14.138 -0.2426  0.8576  0.3882
   31DOPE   H8R 3922   2.119   3.027  14.135 -0.8624  1.1610  3.5695
   31DOPE   H8S 3923   2.174   3.156  14.237 -0.8060 -0.1674  0.7722
   31DOPE   C29 3924   2.331   3.047  14.134 -0.4472 -0.0181  0.2842
   31DOPE   H9R 3925   2.363   3.015  14.034  0.8371 -0.4805  0.8147
   31DOPE  C210 3926   2.405   3.040  14.249 -0.2204  0.9056  0.2171
   31DOPE  H10R 3927   2.510   3.008  14.237 -0.7986 -1.4266  0.8277
   31DOPE  C211 3928   2.377   3.086  14.383  0.4843 -0.1102 -0.0460
   31DOPE  H11R 3929   2.267   3.078  14.396  0.3376 -0.8772 -1.4844
   31DOPE  H11S 3930   2.389   3.196  14.391  0.0556  0.2095 -2.8407
   31DOPE  C212 3931   2.457   3.009  14.489 -0.1911  0.0071 -0.4429
   31DOPE  H12R 3932   2.458   2.900  14.469  3.8614 -0.1301 -0.2576
   31DOPE  H12S 3933   2.413   3.013  14.591 -1.3608 -1.0139 -0.8839
   31DOPE  C213 3934   2.607   3.057  14.510 -0.6778 -0.2725 -0.0724
   31DOPE  H13R 3935   2.616   3.162  14.547 -1.7933 -1.1375  2.9443
   31DOPE  H13S 3936   2.666   3.061  14.416 -1.4020  1.0249 -0.5032
   31DOPE  C214 3937   2.688   2.978  14.620 -0.5354 -0.8043  0.3274
   31DOPE  H14R 3938   2.797   2.966  14.602 -0.2248 -0.9457  2.1295
   31DOPE  H14S 3939   2.648   2.875  14.621 -0.1961 -0.9333  1.8181
   31DOPE  C215 3940   2.686   3.049  14.765  1.0144  0.2611  0.2201
   31DOPE  H15R 3941   2.584   3.027  14.804  1.8123 -3.2187  0.7023
   31DOPE  H15S 3942   2.682   3.159  14.749 -0.7106  0.1652 -0.2605
   31DOPE  C216 3943   2.796   3.010  14.864 -0.2164  0.0097 -0.3316
   31DOPE  H16R 3944   2.801   2.899  14.865 -1.3085 -0.0574 -0.3313
   31DOPE  H16S 3945   2.759   3.041  14.964 -1.7987  2.0705 -1.4583
   31DOPE  C217 3946   2.936   3.080  14.840  0.3947 -0.5574  0.7463
   31DOPE  H17R 3947   2.971   3.040  14.742 -2.0067 -3.5263  0.9617
   31DOPE  H17S 3948   3.007   3.027  14.908  0.9707 -2.5930 -1.2980
   31DOPE  C218 3949   2.958   3.228  14.853 -0.1867 -0.5952  0.3771
   31DOPE  H18R 3950   2.974   3.254  14.959 -0.3145  0.0170  0.2491
   31DOPE  H18S 3951   2.866   3.283  14.823 -0.3445 -0.9287  0.2449
   31DOPE  H18T 3952   3.047   3.271  14.802 -0.4556  2.1803  2.0765
   31DOPE   C33 3953   2.670   3.291  13.769 -0.7717 -0.1588 -0.3346
   31DOPE   H3X 3954   2.717   3.388  13.796 -2.1659  0.0540  1.5619
   31DOPE   H3Y 3955   2.721   3.233  13.690 -0.3731 -0.8588  0.4165
   31DOPE   C34 3956   2.674   3.212  13.903 -0.5836 -0.8346  0.2008
   31DOPE   H4X 3957   2.575   3.221  13.954 -1.1030  0.1481 -0.9385
   31DOPE   H4Y 3958   2.682   3.103  13.880  1.6234 -0.3687 -1.5699
   31DOPE   C35 3959   2.774   3.262  14.008  0.2585 -0.3321  0.6376
   31DOPE   H5X 3960   2.775   3.373  14.019  1.8500 -0.2628  0.0602
   31DOPE   H5Y 3961   2.877   3.245  13.970 -0.2561  0.2543 -1.1294
   31DOPE   C36 3962   2.759   3.189  14.141 -0.1234  0.1226 -0.1182
   31DOPE   H6X 3963   2.776   3.081  14.119  0.5557  0.3449 -0.7303
   31DOPE   H6Y 3964   2.653   3.196  14.171 -0.3942 -0.6781 -0.8419
   31DOPE   C37 3965   2.852   3.254  14.248 -0.6788  0.3365  0.4808
   31DOPE   H7X 3966   2.842   3.363  14.261 -0.5816  0.2294  1.5668
   31DOPE   H7Y 3967   2.818   3.208  14.343  1.9976 -0.4773  1.1583
   31DOPE   C38 3968   3.002   3.232  14.224 -0.0035 -0.7886 -0.1410
   31DOPE   H8X 3969   3.053   3.246  14.321  2.5194  1.1145 -1.6225
   31DOPE   H8Y 3970   3.037   3.313  14.156  0.3591 -0.2559  0.6701
   31DOPE   C39 3971   3.041   3.103  14.165 -0.6200 -0.3693 -0.7150
   31DOPE   H9X 3972   3.012   3.100  14.059  1.3241  0.7281 -1.3215
   31DOPE  C310 3973   3.093   2.995  14.225 -0.0035  0.5827 -0.0199
   31DOPE  H10X 3974   3.097   2.899  14.171 -1.5668  0.9213 -0.7977
   31DOPE  C311 3975   3.133   2.976  14.371 -0.2170 -0.7478 -0.5955
   31DOPE  H11X 3976   3.128   3.076  14.420  0.4277 -0.3401 -1.3456
   31DOPE  H11Y 3977   3.065   2.909  14.428  0.2932 -0.1758  0.7280
   31DOPE  C312 3978   3.280   2.933  14.402  0.5059 -0.3479 -0.8286
   31DOPE  H12X 3979   3.356   2.994  14.348  1.7259 -0.0776  1.0942
   31DOPE  H12Y 3980   3.297   2.825  14.381  2.2064 -0.7337  2.0051
   31DOPE  C313 3981   3.320   2.956  14.555  0.4756 -0.3118  0.5353
   31DOPE  H13X 3982   3.298   3.062  14.581 -1.7171 -0.1056 -1.7738
   31DOPE  H13Y 3983   3.253   2.889  14.613 -0.1058  2.3252  3.1578
   31DOPE  C314 3984   3.462   2.910  14.581  0.6750 -0.4145 -0.5438
   31DOPE  H14X 3985   3.525   2.956  14.501  1.6781  0.2988  0.6273
   31DOPE  H14Y 3986   3.474   2.800  14.589  0.1536 -0.3939  0.7875
   31DOPE  C315 3987   3.514   2.964  14.718  0.1958 -0.4144  0.5692
   31DOPE  H15X 3988   3.435   2.951  14.795  0.3547 -1.9489  0.5141
   31DOPE  H15Y 3989   3.531   3.073  14.708  0.6456 -0.5300  0.0077
   31DOPE  C316 3990   3.638   2.893  14.758  0.5283 -0.7262 -0.1019
   31DOPE  H16X 3991   3.703   2.886  14.669 -0.7850 -1.6612 -1.0216
   31DOPE  H16Y 3992   3.623   2.791  14.798 -0.5118  0.1876  1.9971
   31DOPE  C317 3993   3.714   2.952  14.884 -0.2528 -0.1441  0.2793
   31DOPE  H17X 3994   3.634   2.936  14.960 -0.9721  0.7722 -0.2574
   31DOPE  H17Y 3995   3.801   2.887  14.910  1.3368  1.2831 -1.2615
   31DOPE  C318 3996   3.754   3.096  14.870  0.0511 -0.5230 -0.2748
   31DOPE  H18X 3997   3.803   3.135  14.961  2.1325 -0.7353 -1.2440
   31DOPE  H18Y 3998   3.833   3.102  14.792  0.5702 -0.1538  0.2739
   31DOPE  H18Z 3999   3.666   3.159  14.845  0.1732  0.0385  0.6687
   32DOPE     N 4000   5.183   3.153  12.977 -0.2705 -1.2038 -0.0676
   32DOPE   HN1 4001   5.280   3.183  13.000  0.2704 -2.0945 -1.0378
   32DOPE   HN2 4002   5.184   3.068  12.917 -1.4645 -0.9453 -0.4713
   32DOPE   HN3 4003   5.143   3.233  12.923  0.2985  0.2416  1.5728
   32DOPE   C12 4004   5.105   3.116  13.101 -0.3236  0.0589 -0.2212
   32DOPE  H12A 4005   5.046   3.206  13.128  2.1437  1.4074  0.9608
   32DOPE  H12B 4006   5.176   3.103  13.186 -0.6933  2.4994  0.5332
   32DOPE   C11 4007   5.012   2.987  13.084  0.0359  0.0264 -0.6736
   32DOPE  H11A 4008   4.933   2.986  13.163 -0.8318  0.2044 -1.5125
   32DOPE  H11B 4009   5.081   2.904  13.111  1.2566  1.4279  0.7689
   32DOPE     P 4010   4.805   3.015  12.917 -0.5332  0.4448 -0.4727
   32DOPE   O13 4011   4.744   2.901  12.846  0.2375  0.0267  0.2562
   32DOPE   O14 4012   4.818   3.145  12.843  0.1264 -0.4822  0.1743
   32DOPE   O11 4013   4.734   3.041  13.058 -0.0825 -0.0575  0.1029
   32DOPE   O12 4014   4.956   2.968  12.953  0.1649 -0.3906  0.1165
   32DOPE    C1 4015   4.665   2.932  13.118  0.0122 -0.1043 -0.1562
   32DOPE    HA 4016   4.737   2.857  13.157  0.1425  0.5156  0.8254
   32DOPE    HB 4017   4.604   2.875  13.045 -0.1920 -0.4034  0.2419
   32DOPE    C2 4018   4.565   2.983  13.225  0.1929 -0.3958 -0.3807
   32DOPE    HS 4019   4.543   3.091  13.208  0.7655  0.4273  3.2261
   32DOPE   O21 4020   4.613   2.962  13.363  0.5500  0.3965  0.6211
   32DOPE   C21 4021   4.722   3.038  13.394 -0.0830  0.4699 -0.2908
   32DOPE   O22 4022   4.764   3.134  13.332  0.2711 -0.0411  0.1886
   32DOPE   C22 4023   4.781   2.985  13.522  0.4031 -0.0324 -0.5009
   32DOPE   H2R 4024   4.865   3.051  13.553 -0.7941  2.1180 -1.5792
   32DOPE   H2S 4025   4.814   2.880  13.508 -0.2897 -0.0810 -1.8962
   32DOPE    C3 4026   4.426   2.918  13.228 -0.1829  0.2013  0.2007
   32DOPE    HX 4027   4.442   2.808  13.220  0.1453  0.0809  2.1289
   32DOPE    HY 4028   4.362   2.951  13.143 -0.1735  2.2862  0.9560
   32DOPE   O31 4029   4.353   2.937  13.349  0.3035  0.5160 -0.4651
   32DOPE   C31 4030   4.270   3.047  13.344  0.2539  0.3881  0.4234
   32DOPE   O32 4031   4.229   3.103  13.246 -0.1407  0.4086 -0.0772
   32DOPE   C32 4032   4.234   3.073  13.488  0.1348 -0.1885 -0.5833
   32DOPE   H2X 4033   4.214   2.980  13.545 -1.5612  1.2998  1.4168
   32DOPE   H2Y 4034   4.318   3.123  13.541 -0.8248  0.3976  0.4315
   32DOPE   C23 4035   4.683   2.993  13.649 -0.5578 -0.0558  0.4644
   32DOPE   H3R 4036   4.592   2.936  13.618 -1.0134  0.5067  0.7575
   32DOPE   H3S 4037   4.651   3.099  13.662 -3.1517 -0.1425 -3.2927
   32DOPE   C24 4038   4.759   2.936  13.769 -0.0463 -0.5036  0.5830
   32DOPE   H4R 4039   4.807   2.842  13.734  0.8291 -0.1476  0.8060
   32DOPE   H4S 4040   4.682   2.921  13.848  0.8181 -0.9058  1.3642
   32DOPE   C25 4041   4.871   3.021  13.828 -0.2388 -0.1474 -0.6220
   32DOPE   H5R 4042   4.835   3.125  13.839 -0.0902  0.0584 -1.9163
   32DOPE   H5S 4043   4.964   3.013  13.766 -0.0078  2.4406 -0.7311
   32DOPE   C26 4044   4.898   2.980  13.977  0.2572 -0.0730 -0.2476
   32DOPE   H6R 4045   4.966   3.057  14.018  1.2126  0.5382 -2.7627
   32DOPE   H6S 4046   4.938   2.876  13.978 -0.3078 -0.2951  0.8948
   32DOPE   C27 4047   4.775   2.993  14.076 -0.1469 -0.3834 -0.1119
   32DOPE   H7R 4048   4.698   2.919  14.048  0.0797 -0.3215 -0.9163
   32DOPE   H7S 4049   4.728   3.094  14.070  2.3183  0.8797  0.1212
   32DOPE   C28 4050   4.813   2.963  14.220 -0.1434 -0.0566 -0.7151
   32DOPE   H8R 4051   4.904   3.021  14.249 -0.5009 -0.5393  1.5655
   32DOPE   H8S 4052   4.851   2.859  14.230 -2.0668 -0.9181 -1.8893
   32DOPE   C29 4053   4.694   2.980  14.309 -0.0667 -0.5188  0.6301
   32DOPE   H9R 4054   4.666   3.086  14.312  0.4670 -0.1905 -2.3188
   32DOPE  C210 4055   4.624   2.897  14.385 -0.5376  0.4662  0.7663
   32DOPE  H10R 4056   4.540   2.935  14.445 -1.6758 -2.2834  1.0770
   32DOPE  C211 4057   4.646   2.750  14.405 -0.0023  0.7653 -0.1973
   32DOPE  H11R 4058   4.748   2.742  14.447  0.2299  1.4511 -0.6052
   32DOPE  H11S 4059   4.652   2.700  14.306  2.4815  1.0483 -0.2528
   32DOPE  C212 4060   4.558   2.655  14.487 -0.1881 -0.5407  0.7365
   32DOPE  H12R 4061   4.605   2.556  14.507  0.1375 -0.4706  0.3216
   32DOPE  H12S 4062   4.470   2.630  14.423 -0.3537  2.1283 -0.1728
   32DOPE  C213 4063   4.509   2.698  14.631 -0.0596  0.0193  0.4548
   32DOPE  H13R 4064   4.426   2.768  14.605 -2.9160 -3.5815 -1.1432
   32DOPE  H13S 4065   4.590   2.752  14.683 -0.1455 -0.9905  1.6754
   32DOPE  C214 4066   4.465   2.591  14.727 -0.0583 -0.1200 -0.8406
   32DOPE  H14R 4067   4.428   2.633  14.824 -0.5080  0.3852 -1.2218
   32DOPE  H14S 4068   4.544   2.515  14.743 -1.4675 -1.6252 -0.8590
   32DOPE  C215 4069   4.359   2.496  14.660 -0.0335 -0.3230  0.2263
   32DOPE  H15R 4070   4.383   2.455  14.560 -1.9820 -0.8486 -0.0648
   32DOPE  H15S 4071   4.270   2.560  14.645  1.5908  2.9578  2.9564
   32DOPE  C216 4072   4.331   2.378  14.749  0.3979 -0.2888 -0.0769
   32DOPE  H16R 4073   4.289   2.415  14.845 -1.9236  1.4104 -1.6224
   32DOPE  H16S 4074   4.431   2.346  14.785 -0.4649 -0.0121  2.8991
   32DOPE  C217 4075   4.241   2.274  14.689  0.6475  0.1974  0.5645
   32DOPE  H17R 4076   4.216   2.196  14.764  1.6915  0.3281  1.0585
   32DOPE  H17S 4077   4.296   2.220  14.608 -1.4897  1.8603 -2.1868
   32DOPE  C218 4078   4.107   2.332  14.636 -0.1700 -0.1641 -0.3171
   32DOPE  H18R 4079   4.125   2.389  14.542  1.4943 -0.3706 -0.1689
   32DOPE  H18S 4080   4.045   2.387  14.710 -0.4345 -0.8710 -0.0083
   32DOPE  H18T 4081   4.054   2.241  14.601  1.5253 -1.1509 -0.4589
   32DOPE   C33 4082   4.104   3.154  13.498 -0.2811 -0.0576 -0.6814
   32DOPE   H3X 4083   4.023   3.102  13.442 -1.3442  1.3706 -0.5308
   32DOPE   H3Y 4084   4.114   3.255  13.453 -1.5593  0.1821 -0.4604
   32DOPE   C34 4085   4.046   3.167  13.639 -0.3833  0.8362  0.1091
   32DOPE   H4X 4086   3.963   3.241  13.645 -0.4707  0.6677  1.2827
   32DOPE   H4Y 4087   3.994   3.072  13.663  2.7541 -0.8785  0.6790
   32DOPE   C35 4088   4.148   3.201  13.752 -0.0997 -0.0874  0.5247
   32DOPE   H5X 4089   4.218   3.271  13.702  0.8968 -1.3266  0.1265
   32DOPE   H5Y 4090   4.216   3.115  13.768  1.3246  0.7187 -0.8424
   32DOPE   C36 4091   4.082   3.255  13.878 -0.4222  0.2878 -0.9001
   32DOPE   H6X 4092   4.013   3.339  13.856  0.2071  1.0406 -0.0508
   32DOPE   H6Y 4093   4.160   3.296  13.946 -0.6351  0.9640 -1.0600
   32DOPE   C37 4094   4.023   3.135  13.961  0.3193 -0.0963 -0.0570
   32DOPE   H7X 4095   3.939   3.085  13.908 -0.3543  1.5268 -0.6197
   32DOPE   H7Y 4096   4.107   3.064  13.974  1.0042  0.4323 -1.4150
   32DOPE   C38 4097   3.976   3.197  14.096  0.1109 -0.0066  0.5006
   32DOPE   H8X 4098   3.898   3.271  14.070  1.5957  2.0384  1.5310
   32DOPE   H8Y 4099   4.064   3.254  14.133  0.8368 -0.7377 -0.0679
   32DOPE   C39 4100   3.938   3.091  14.192  0.0169 -0.2453 -0.9181
   32DOPE   H9X 4101   3.965   2.990  14.158  0.5654  0.0303 -1.3068
   32DOPE  C310 4102   3.873   3.110  14.306  0.1153 -0.5079  0.3432
   32DOPE  H10X 4103   3.831   3.028  14.365  0.0968 -0.6989  0.0669
   32DOPE  C311 4104   3.830   3.248  14.357 -0.2222  0.3530 -0.2577
   32DOPE  H11X 4105   3.887   3.286  14.444 -0.5361  0.2815 -0.0168
   32DOPE  H11Y 4106   3.850   3.324  14.278 -0.7539  0.2777 -0.4714
   32DOPE  C312 4107   3.673   3.254  14.384  0.2022  0.9418  0.7077
   32DOPE  H12X 4108   3.648   3.325  14.465 -4.3487 -0.1210  0.4702
   32DOPE  H12Y 4109   3.638   3.159  14.429  0.5026  1.2332  1.5647
   32DOPE  C313 4110   3.602   3.298  14.253 -0.0753 -0.2580  0.2735
   32DOPE  H13X 4111   3.636   3.404  14.246  1.2155 -0.7125 -0.7629
   32DOPE  H13Y 4112   3.633   3.233  14.169 -1.0984 -0.8583  0.3466
   32DOPE  C314 4113   3.454   3.288  14.248  0.4756  0.7341  0.3030
   32DOPE  H14X 4114   3.413   3.333  14.341 -0.5149 -0.3894  0.4385
   32DOPE  H14Y 4115   3.414   3.185  14.250 -1.7040  1.4411  4.1940
   32DOPE  C315 4116   3.382   3.374  14.140  0.5142  1.2632 -0.2233
   32DOPE  H15X 4117   3.435   3.470  14.123  1.2253  0.9886  0.3651
   32DOPE  H15Y 4118   3.281   3.396  14.180  0.2804 -0.9212  0.5057
   32DOPE  C316 4119   3.359   3.299  14.007  0.1221 -0.2603  0.4129
   32DOPE  H16X 4120   3.326   3.385  13.944  1.1072 -0.1656  0.0002
   32DOPE  H16Y 4121   3.281   3.222  14.025 -0.3853  0.4382  1.2647
   32DOPE  C317 4122   3.468   3.208  13.943 -0.0281 -0.1164  0.5831
   32DOPE  H17X 4123   3.496   3.132  14.019  0.4167  0.1683  0.7111
   32DOPE  H17Y 4124   3.418   3.162  13.856 -0.4365 -0.5409  1.0377
   32DOPE  C318 4125   3.593   3.288  13.897 -1.0457 -0.1829 -0.8842
   32DOPE  H18X 4126   3.682   3.239  13.851 -0.2956 -0.5087  0.8308
   32DOPE  H18Y 4127   3.564   3.353  13.812 -0.9459  1.6513  0.4212
   32DOPE  H18Z 4128   3.632   3.363  13.970  0.3979  0.2858 -2.0770
   33DOPE     N 4129   3.055   2.992  12.898  0.4381  1.1680 -0.2428
   33DOPE   HN1 4130   3.084   3.035  12.808 -0.8558 -0.0539 -1.2976
   33DOPE   HN2 4131   3.108   3.042  12.972 -0.0478  1.4850 -0.1056
   33DOPE   HN3 4132   3.086   2.893  12.905  0.1700  0.9528 -1.6638
   33DOPE   C12 4133   2.905   3.005  12.918  0.8646 -0.7053 -0.3517
   33DOPE  H12A 4134   2.857   2.956  12.831  0.6087 -1.6940  0.3247
   33DOPE  H12B 4135   2.884   3.114  12.924 -1.1194 -1.0077 -1.2454
   33DOPE   C11 4136   2.858   2.917  13.037  0.0186  0.1537  0.4461
   33DOPE  H11A 4137   2.752   2.935  13.065 -0.4276 -2.3731  0.5801
   33DOPE  H11B 4138   2.916   2.935  13.129  2.7922 -0.2066 -1.1340
   33DOPE     P 4139   2.989   2.689  13.065  0.0328  0.4976 -0.3364
   33DOPE   O13 4140   3.109   2.746  13.002  0.3615  0.3631 -0.3019
   33DOPE   O14 4141   2.966   2.541  13.048  0.0967 -0.7385 -0.1979
   33DOPE   O11 4142   2.991   2.730  13.218 -0.0999  0.4423  0.0599
   33DOPE   O12 4143   2.875   2.780  13.003  0.3289 -0.3078  0.9164
   33DOPE    C1 4144   2.883   2.674  13.290 -0.5801  0.1924  0.2144
   33DOPE    HA 4145   2.891   2.565  13.313 -1.5500  0.3716  1.5237
   33DOPE    HB 4146   2.782   2.693  13.249 -0.4963  0.5927  0.1938
   33DOPE    C2 4147   2.879   2.745  13.433  0.5982  0.0200 -0.2902
   33DOPE    HS 4148   2.877   2.855  13.415 -2.0085  0.1337  0.2696
   33DOPE   O21 4149   3.005   2.717  13.500  0.3725 -0.0906  0.4056
   33DOPE   C21 4150   3.029   2.798  13.600 -0.7487 -0.1236 -0.0511
   33DOPE   O22 4151   2.960   2.895  13.639 -0.4235  0.1010  0.4990
   33DOPE   C22 4152   3.159   2.742  13.668 -0.6130  0.6509 -0.4787
   33DOPE   H2R 4153   3.241   2.753  13.594  0.3887  2.1604  0.7934
   33DOPE   H2S 4154   3.144   2.633  13.685  0.0318  0.8231  1.4556
   33DOPE    C3 4155   2.756   2.698  13.519 -0.5956  0.2299  0.0657
   33DOPE    HX 4156   2.664   2.714  13.459 -1.3206 -1.2050  0.7638
   33DOPE    HY 4157   2.730   2.755  13.611  0.2065  1.4513 -0.4408
   33DOPE   O31 4158   2.784   2.556  13.544  0.2159  0.7334 -0.4674
   33DOPE   C31 4159   2.847   2.530  13.653  0.3172  0.1079 -0.8747
   33DOPE   O32 4160   2.860   2.603  13.752 -0.2245 -0.4624  0.9592
   33DOPE   C32 4161   2.907   2.387  13.644 -0.5668 -0.6768 -0.3827
   33DOPE   H2X 4162   2.826   2.326  13.600 -0.7939  0.5226 -1.7145
   33DOPE   H2Y 4163   2.996   2.396  13.577 -0.1904 -3.6001 -0.4014
   33DOPE   C23 4164   3.192   2.804  13.801 -0.4979  0.4005 -1.5858
   33DOPE   H3R 4165   3.098   2.840  13.849  0.0069  1.8156 -1.6439
   33DOPE   H3S 4166   3.248   2.899  13.801  1.2774 -0.6143 -1.5738
   33DOPE   C24 4167   3.267   2.713  13.905 -0.3103  0.1768 -0.3387
   33DOPE   H4R 4168   3.267   2.760  14.006  0.9606  1.5909 -0.9551
   33DOPE   H4S 4169   3.375   2.707  13.878  0.0175  2.2959  0.3376
   33DOPE   C25 4170   3.210   2.577  13.929 -0.0636  0.4371  0.8477
   33DOPE   H5R 4171   3.218   2.515  13.838  0.0352  0.8006  0.6046
   33DOPE   H5S 4172   3.102   2.574  13.956  0.1280  1.0167  1.7279
   33DOPE   C26 4173   3.295   2.503  14.037 -0.0178  0.7454 -0.5333
   33DOPE   H6R 4174   3.270   2.539  14.139  1.1709 -0.7544  0.3259
   33DOPE   H6S 4175   3.402   2.525  14.020  0.0447  1.1131  0.3058
   33DOPE   C27 4176   3.277   2.355  14.032 -0.1731 -0.3460 -0.3643
   33DOPE   H7R 4177   3.318   2.317  13.936  2.3578  0.0115  0.5090
   33DOPE   H7S 4178   3.169   2.328  14.024  0.6489 -4.5610  0.4532
   33DOPE   C28 4179   3.331   2.279  14.155  0.1973 -0.3890  0.1709
   33DOPE   H8R 4180   3.276   2.328  14.238  2.0709  0.3448  1.0419
   33DOPE   H8S 4181   3.437   2.310  14.164 -0.2815  1.2165  0.5687
   33DOPE   C29 4182   3.333   2.130  14.149 -0.2593  0.0036  0.1343
   33DOPE   H9R 4183   3.358   2.087  14.050 -0.2339  2.2215 -0.8884
   33DOPE  C210 4184   3.282   2.053  14.248  0.5003  0.3667 -0.3647
   33DOPE  H10R 4185   3.287   1.945  14.227  2.9453  0.7228 -2.1303
   33DOPE  C211 4186   3.214   2.105  14.370 -0.8735 -0.1358 -0.0871
   33DOPE  H11R 4187   3.159   2.022  14.419 -0.2362 -0.0167  0.8674
   33DOPE  H11S 4188   3.134   2.180  14.354 -1.6027 -0.9174 -0.1328
   33DOPE  C212 4189   3.309   2.158  14.475  0.1941 -0.9441  0.6055
   33DOPE  H12R 4190   3.376   2.235  14.430 -0.2288 -0.7814  0.2537
   33DOPE  H12S 4191   3.366   2.068  14.506 -0.1001 -0.9232  1.2246
   33DOPE  C213 4192   3.239   2.215  14.600 -0.2196  0.2333 -0.0805
   33DOPE  H13R 4193   3.154   2.280  14.567 -1.2749 -1.8126 -1.6372
   33DOPE  H13S 4194   3.293   2.279  14.673 -1.6532 -1.0274  2.1845
   33DOPE  C214 4195   3.163   2.101  14.689 -0.2152  0.2560  0.2091
   33DOPE  H14R 4196   3.229   2.021  14.728  0.5639  1.4600  1.4771
   33DOPE  H14S 4197   3.081   2.059  14.627 -1.1035  1.1578  0.7352
   33DOPE  C215 4198   3.094   2.160  14.809 -0.2059  0.6630 -0.4377
   33DOPE  H15R 4199   3.043   2.256  14.784 -0.8809  0.4351  0.0595
   33DOPE  H15S 4200   3.179   2.177  14.878  0.6041 -0.7168 -1.0362
   33DOPE  C216 4201   2.983   2.071  14.870  0.3143 -1.2366 -0.1531
   33DOPE  H16R 4202   3.020   1.968  14.890 -1.1685 -1.6589  0.5406
   33DOPE  H16S 4203   2.893   2.063  14.806 -0.2538  1.0445  0.2654
   33DOPE  C217 4204   2.913   2.123  14.994 -0.0869 -0.3602  0.4615
   33DOPE  H17R 4205   2.853   2.210  14.961  0.1117 -1.2552 -2.5107
   33DOPE  H17S 4206   2.991   2.146  15.071  1.1867  0.4841 -1.0177
   33DOPE  C218 4207   2.817   2.030  15.061 -0.1075  0.3815 -0.3001
   33DOPE  H18R 4208   2.741   2.000  14.985  0.3058  1.8355 -1.3262
   33DOPE  H18S 4209   2.780   2.060  15.161  3.2102 -0.3180  1.2808
   33DOPE  H18T 4210   2.868   1.935  15.088 -1.4454 -0.5608 -0.9669
   33DOPE   C33 4211   2.957   2.328  13.778  0.3197  0.3757 -0.4909
   33DOPE   H3X 4212   3.030   2.403  13.815  1.9861 -0.9878 -0.9133
   33DOPE   H3Y 4213   3.026   2.246  13.750  0.3189  0.1471  0.1717
   33DOPE   C34 4214   2.838   2.292  13.866 -0.3554  0.3270  0.4146
   33DOPE   H4X 4215   2.785   2.384  13.900 -0.1950  0.5242  0.1300
   33DOPE   H4Y 4216   2.763   2.232  13.811 -0.3264  1.8197 -1.3356
   33DOPE   C35 4217   2.874   2.211  13.990 -0.0005  0.4369 -0.0563
   33DOPE   H5X 4218   2.971   2.247  14.030 -0.1718  2.4441 -1.2868
   33DOPE   H5Y 4219   2.890   2.105  13.960 -0.0986  0.1905  0.7318
   33DOPE   C36 4220   2.764   2.212  14.102 -0.8468 -0.5630 -0.7311
   33DOPE   H6X 4221   2.664   2.190  14.058 -1.4726 -1.1127  0.8856
   33DOPE   H6Y 4222   2.754   2.315  14.144  1.2487 -0.0996 -1.2873
   33DOPE   C37 4223   2.810   2.119  14.217 -0.3181 -0.1645 -0.0066
   33DOPE   H7X 4224   2.829   2.013  14.188  1.7653  0.3737 -0.7726
   33DOPE   H7Y 4225   2.910   2.158  14.245 -0.2664 -1.1286  1.2010
   33DOPE   C38 4226   2.721   2.130  14.339  0.1561  1.0312  0.3433
   33DOPE   H8X 4227   2.629   2.079  14.304 -0.4908  2.1935  0.2765
   33DOPE   H8Y 4228   2.697   2.235  14.365 -1.5289  0.5855  0.6773
   33DOPE   C39 4229   2.793   2.076  14.454  0.5908 -0.5702 -0.0563
   33DOPE   H9X 4230   2.881   2.136  14.480  0.6560 -0.7178  0.0662
   33DOPE  C310 4231   2.762   1.964  14.514  0.0530  0.3383  0.8788
   33DOPE  H10X 4232   2.817   1.933  14.604 -2.0772 -1.1620  1.7351
   33DOPE  C311 4233   2.658   1.865  14.469  0.5411 -0.0273  0.9591
   33DOPE  H11X 4234   2.590   1.907  14.392  0.1703  0.1700  1.3895
   33DOPE  H11Y 4235   2.711   1.789  14.407  1.0643  1.2251 -0.1811
   33DOPE  C312 4236   2.564   1.806  14.577 -0.8346  0.4811 -0.1732
   33DOPE  H12X 4237   2.461   1.794  14.537 -0.1760 -1.1110 -1.5127
   33DOPE  H12Y 4238   2.566   1.877  14.663  0.8770 -2.2671  2.2288
   33DOPE  C313 4239   2.613   1.672  14.622  0.2082  0.5579  0.1212
   33DOPE  H13X 4240   2.636   1.608  14.534  0.9889 -1.3231  1.6041
   33DOPE  H13Y 4241   2.704   1.684  14.685  1.9144  0.3592 -2.1955
   33DOPE  C314 4242   2.507   1.604  14.713  0.1808 -0.1937 -0.6086
   33DOPE  H14X 4243   2.433   1.558  14.645 -0.5679  0.7135 -0.4251
   33DOPE  H14Y 4244   2.456   1.684  14.771  1.9364  2.2076 -2.1377
   33DOPE  C315 4245   2.564   1.500  14.810 -0.3098 -0.4851 -0.2110
   33DOPE  H15X 4246   2.645   1.442  14.760  1.2452  2.3046 -1.1760
   33DOPE  H15Y 4247   2.484   1.434  14.849  0.5347 -0.3886  1.8164
   33DOPE  C316 4248   2.621   1.570  14.942 -0.3326  0.6016 -0.6875
   33DOPE  H16X 4249   2.539   1.615  15.002 -0.1475 -0.0662  0.0798
   33DOPE  H16Y 4250   2.701   1.643  14.918  2.2875 -1.2177  1.8709
   33DOPE  C317 4251   2.690   1.461  15.036 -0.4172  0.3352  0.5412
   33DOPE  H17X 4252   2.777   1.421  14.979 -1.2630 -0.2543 -0.3572
   33DOPE  H17Y 4253   2.727   1.521  15.122  2.6199  0.3674 -0.6562
   33DOPE  C318 4254   2.611   1.338  15.091  0.1557  0.0269  0.5808
   33DOPE  H18X 4255   2.509   1.365  15.126 -0.8071 -0.4396 -1.7004
   33DOPE  H18Y 4256   2.587   1.264  15.012  0.7335  0.5768 -0.1288
   33DOPE  H18Z 4257   2.667   1.288  15.172 -0.0334  0.8493  1.2332
   34DOPE     N 4258   2.145   4.263  12.654  0.7477  0.6310  0.1443
   34DOPE   HN1 4259   2.079   4.203  12.708 -1.3206  3.4066  0.9179
   34DOPE   HN2 4260   2.094   4.349  12.627 -1.8107 -1.1888 -1.3238
   34DOPE   HN3 4261   2.175   4.210  12.570  1.1419 -1.0953  1.3130
   34DOPE   C12 4262   2.258   4.290  12.747  0.3039  0.3010 -0.2489
   34DOPE  H12A 4263   2.328   4.367  12.707 -0.6880  1.8821  0.9824
   34DOPE  H12B 4264   2.323   4.200  12.749  0.0759  0.1579  0.6602
   34DOPE   C11 4265   2.212   4.322  12.889  0.1829  0.1530 -0.5014
   34DOPE  H11A 4266   2.304   4.345  12.946 -0.8266 -1.3724  1.9134
   34DOPE  H11B 4267   2.164   4.230  12.930  0.3081 -0.4369 -1.6112
   34DOPE     P 4268   2.086   4.517  13.010 -0.4038 -0.3141  0.3608
   34DOPE   O13 4269   1.944   4.500  13.035  0.1386 -0.0911  0.1289
   34DOPE   O14 4270   2.136   4.653  12.987 -0.3543  0.1674  0.2773
   34DOPE   O11 4271   2.164   4.450  13.130  0.2779 -0.1787 -0.7935
   34DOPE   O12 4272   2.119   4.428  12.886 -0.1889  0.4338  0.0927
   34DOPE    C1 4273   2.107   4.340  13.201  0.3777  0.1625  0.3415
   34DOPE    HA 4274   2.180   4.257  13.188 -0.6874 -0.4810 -2.0739
   34DOPE    HB 4275   2.013   4.300  13.158  0.5997 -1.6253  1.4258
   34DOPE    C2 4276   2.088   4.373  13.350  0.3544  0.1928 -0.1752
   34DOPE    HS 4277   2.048   4.474  13.374 -0.1902  0.1584 -0.8957
   34DOPE   O21 4278   2.218   4.362  13.408  0.2903 -0.7989 -0.7210
   34DOPE   C21 4279   2.293   4.469  13.415  0.1950  0.3393 -0.1745
   34DOPE   O22 4280   2.267   4.575  13.363 -0.1075 -0.2328 -0.1625
   34DOPE   C22 4281   2.428   4.425  13.478  0.6116 -0.0189 -0.3900
   34DOPE   H2R 4282   2.464   4.338  13.419 -0.6997 -2.0186  1.5825
   34DOPE   H2S 4283   2.395   4.380  13.575  2.4888 -1.6568 -0.4683
   34DOPE    C3 4284   1.993   4.279  13.424 -0.2993  0.4303  0.3895
   34DOPE    HX 4285   2.005   4.171  13.401  2.3100  0.3228  1.7910
   34DOPE    HY 4286   1.890   4.310  13.400 -0.9670 -0.9395  1.3307
   34DOPE   O31 4287   2.005   4.295  13.570  0.3134 -0.1359  0.2679
   34DOPE   C31 4288   2.095   4.212  13.632  0.9477 -0.5683 -0.5377
   34DOPE   O32 4289   2.139   4.112  13.581 -0.4176 -0.6307  0.6170
   34DOPE   C32 4290   2.129   4.257  13.771 -0.3260  0.2171  0.2416
   34DOPE   H2X 4291   2.233   4.296  13.774 -0.9433  2.3549 -2.2564
   34DOPE   H2Y 4292   2.061   4.334  13.812 -1.2417 -0.1962 -0.4580
   34DOPE   C23 4293   2.535   4.531  13.498 -0.0162  0.0932  0.5933
   34DOPE   H3R 4294   2.477   4.623  13.523 -3.0065 -0.9545 -1.8707
   34DOPE   H3S 4295   2.588   4.539  13.401  0.1799  0.1403  0.7042
   34DOPE   C24 4296   2.646   4.496  13.605  0.1659 -0.3312 -0.2225
   34DOPE   H4R 4297   2.711   4.583  13.626 -0.2970 -0.0172 -0.0618
   34DOPE   H4S 4298   2.704   4.418  13.551  0.2527 -0.1672 -0.3668
   34DOPE   C25 4299   2.593   4.439  13.747  0.7867 -0.2060  0.9902
   34DOPE   H5R 4300   2.538   4.345  13.726  2.5148 -1.3307  1.2140
   34DOPE   H5S 4301   2.527   4.511  13.798 -0.5853 -1.4991  1.1128
   34DOPE   C26 4302   2.703   4.404  13.845 -0.3787 -0.0279  0.5025
   34DOPE   H6R 4303   2.774   4.489  13.855 -0.7832  0.1179  2.8162
   34DOPE   H6S 4304   2.763   4.323  13.799  0.9626  1.6859 -0.9264
   34DOPE   C27 4305   2.648   4.346  13.977  0.4100  0.3633  0.1919
   34DOPE   H7R 4306   2.576   4.266  13.949 -0.3163  0.0408  2.7347
   34DOPE   H7S 4307   2.584   4.422  14.027 -0.0687 -0.6345  1.1182
   34DOPE   C28 4308   2.747   4.306  14.077 -0.3530 -0.4751  0.1768
   34DOPE   H8R 4309   2.830   4.252  14.026 -0.1752  0.1443 -0.1990
   34DOPE   H8S 4310   2.694   4.240  14.148 -2.0040  2.2426  1.6132
   34DOPE   C29 4311   2.816   4.431  14.134  0.6727  0.0288 -0.0822
   34DOPE   H9R 4312   2.886   4.490  14.073 -0.9986  2.9929  0.6422
   34DOPE  C210 4313   2.795   4.472  14.261 -0.2961 -0.5078 -0.2064
   34DOPE  H10R 4314   2.836   4.567  14.299 -1.1342 -0.6614  1.1519
   34DOPE  C211 4315   2.705   4.390  14.348  0.5434  0.0651 -0.7021
   34DOPE  H11R 4316   2.761   4.299  14.378 -0.7049 -1.1827 -2.0209
   34DOPE  H11S 4317   2.609   4.364  14.298  0.9266 -0.7724 -1.0189
   34DOPE  C212 4318   2.645   4.471  14.466 -0.0767 -0.1759 -0.7198
   34DOPE  H12R 4319   2.576   4.556  14.444  2.2698  1.9797 -0.2664
   34DOPE  H12S 4320   2.730   4.510  14.527  0.0350 -0.6684 -0.5583
   34DOPE  C213 4321   2.585   4.379  14.575  0.0770 -0.5531  0.0380
   34DOPE  H13R 4322   2.664   4.311  14.610 -0.3308 -0.5059  1.0941
   34DOPE  H13S 4323   2.504   4.318  14.529  0.6513  0.1353 -2.0005
   34DOPE  C214 4324   2.524   4.471  14.696  0.1627  0.1031  0.1734
   34DOPE  H14R 4325   2.460   4.399  14.751 -1.9485  3.3450  2.2253
   34DOPE  H14S 4326   2.467   4.549  14.641  0.3928  0.2888  0.1969
   34DOPE  C215 4327   2.625   4.542  14.792  0.9639  0.2869  0.1928
   34DOPE  H15R 4328   2.689   4.609  14.730 -1.1476  0.3718 -2.0292
   34DOPE  H15S 4329   2.691   4.459  14.828  1.8802 -0.5179 -3.0246
   34DOPE  C216 4330   2.585   4.632  14.919  0.3990 -0.0314  0.5403
   34DOPE  H16R 4331   2.560   4.735  14.888  1.6396 -0.3180 -1.6759
   34DOPE  H16S 4332   2.665   4.634  14.996  0.0495  0.4501  0.8910
   34DOPE  C217 4333   2.465   4.571  14.989  0.2781 -0.3301 -0.2928
   34DOPE  H17R 4334   2.488   4.466  15.019 -0.7684 -1.2089 -2.3127
   34DOPE  H17S 4335   2.380   4.569  14.917 -0.8409 -1.9033  0.9922
   34DOPE  C218 4336   2.429   4.650  15.119  0.2379 -0.7434 -0.5271
   34DOPE  H18R 4337   2.331   4.615  15.158  0.8123 -1.1425  0.5860
   34DOPE  H18S 4338   2.427   4.759  15.100  1.1494 -0.3232  1.5963
   34DOPE  H18T 4339   2.513   4.633  15.189  1.3400 -0.3426 -1.7030
   34DOPE   C33 4340   2.111   4.137  13.870 -0.5720  0.1397 -0.3677
   34DOPE   H3X 4341   2.182   4.059  13.836  0.1937  0.8794 -0.5037
   34DOPE   H3Y 4342   2.012   4.087  13.865  0.3249 -2.1423  2.1603
   34DOPE   C34 4343   2.135   4.182  14.020  0.4965 -0.1287 -0.3685
   34DOPE   H4X 4344   2.070   4.270  14.035 -1.9059 -2.2809  3.0814
   34DOPE   H4Y 4345   2.111   4.095  14.085 -1.2107 -0.4625 -1.3809
   34DOPE   C35 4346   2.276   4.225  14.047  0.1108 -0.0057 -0.0509
   34DOPE   H5X 4347   2.288   4.324  13.998  0.8402  1.2606  2.4951
   34DOPE   H5Y 4348   2.356   4.157  14.009  0.8439  1.7119 -1.7438
   34DOPE   C36 4349   2.304   4.235  14.196  0.2489 -0.3926  0.7295
   34DOPE   H6X 4350   2.411   4.260  14.211 -0.3373  2.0804  1.2155
   34DOPE   H6Y 4351   2.281   4.139  14.247 -2.0440 -1.1860 -1.5777
   34DOPE   C37 4352   2.216   4.346  14.256 -0.2237  0.1439  0.1139
   34DOPE   H7X 4353   2.211   4.432  14.185  2.0131 -0.1366 -0.4431
   34DOPE   H7Y 4354   2.114   4.302  14.261 -0.9608  1.7553 -0.0493
   34DOPE   C38 4355   2.265   4.379  14.396  0.2032 -0.5825  0.3755
   34DOPE   H8X 4356   2.366   4.426  14.394  0.0513 -0.2775 -0.8098
   34DOPE   H8Y 4357   2.281   4.288  14.457 -1.8372 -1.0722  0.2608
   34DOPE   C39 4358   2.177   4.485  14.454  0.3271 -0.2250 -0.8065
   34DOPE   H9X 4359   2.186   4.582  14.404  0.6848  0.1333 -0.0648
   34DOPE  C310 4360   2.103   4.480  14.572  0.1822 -0.1795  0.3205
   34DOPE  H10X 4361   2.032   4.561  14.595  0.1507 -0.3481  0.8308
   34DOPE  C311 4362   2.084   4.363  14.664  0.6673  0.1610 -0.8869
   34DOPE  H11X 4363   2.005   4.295  14.627  0.2886  0.1155 -0.0157
   34DOPE  H11Y 4364   2.173   4.299  14.648 -0.4744 -1.0325 -2.8565
   34DOPE  C312 4365   2.090   4.403  14.811  0.4624 -0.9748  0.4014
   34DOPE  H12X 4366   2.165   4.484  14.825  0.3908 -0.8007 -0.1909
   34DOPE  H12Y 4367   2.119   4.318  14.877 -1.2963  0.2360  2.8995
   34DOPE  C313 4368   1.951   4.441  14.868  1.0534 -0.1788  0.1701
   34DOPE  H13X 4369   1.893   4.515  14.809 -0.0813 -1.1770 -0.0008
   34DOPE  H13Y 4370   1.893   4.348  14.848  3.2860 -1.2919 -1.6300
   34DOPE  C314 4371   1.947   4.483  15.014  0.4725  0.3171 -0.7699
   34DOPE  H14X 4372   2.014   4.572  15.011  1.2619 -0.2587 -0.4393
   34DOPE  H14Y 4373   1.986   4.401  15.077 -1.0566  1.7264  2.1972
   34DOPE  C315 4374   1.810   4.538  15.063 -0.4297  0.0209 -0.3612
   34DOPE  H15X 4375   1.779   4.628  15.006 -1.1789 -1.0402 -1.6619
   34DOPE  H15Y 4376   1.838   4.573  15.165 -2.4840  1.2771 -0.1670
   34DOPE  C316 4377   1.712   4.423  15.058 -0.1880  0.6998 -0.4748
   34DOPE  H16X 4378   1.757   4.322  15.070 -1.8919 -0.0561 -0.0807
   34DOPE  H16Y 4379   1.659   4.408  14.961 -3.3652 -1.6657  1.4270
   34DOPE  C317 4380   1.593   4.429  15.159 -0.3083  0.1584  0.5315
   34DOPE  H17X 4381   1.634   4.416  15.262  1.8386 -0.4744 -0.3402
   34DOPE  H17Y 4382   1.549   4.531  15.152 -1.3235 -0.0983  2.3776
   34DOPE  C318 4383   1.484   4.327  15.124 -0.3401 -0.4242  0.2749
   34DOPE  H18X 4384   1.434   4.357  15.030 -1.4385  0.9959  1.2653
   34DOPE  H18Y 4385   1.527   4.225  15.114  0.6726 -0.0492  0.6055
   34DOPE  H18Z 4386   1.406   4.332  15.203  0.8052 -1.9143  1.5847
   35DOPE     N 4387   5.560   2.470  13.190 -0.1310 -0.1001  0.1439
   35DOPE   HN1 4388   5.478   2.429  13.141 -0.0435  2.9670 -2.9462
   35DOPE   HN2 4389   5.542   2.551  13.252  0.8872 -1.0837  1.8035
   35DOPE   HN3 4390   5.626   2.494  13.114  0.5452  1.5428  1.1908
   35DOPE   C12 4391   5.617   2.377  13.290 -0.2292 -0.3822  0.2980
   35DOPE  H12A 4392   5.552   2.384  13.379 -0.8346 -0.7017 -0.1153
   35DOPE  H12B 4393   5.721   2.411  13.309 -0.0351 -0.1576 -1.0394
   35DOPE   C11 4394   5.631   2.232  13.233 -0.3564  0.3172 -0.4687
   35DOPE  H11A 4395   5.534   2.189  13.201 -0.1430  0.1211 -0.8599
   35DOPE  H11B 4396   5.664   2.165  13.316 -0.8456 -0.3450 -0.7989
   35DOPE     P 4397   5.738   2.106  13.036  0.4073  0.4960 -0.1497
   35DOPE   O13 4398   5.718   2.154  12.899 -0.2976  0.4867 -0.1410
   35DOPE   O14 4399   5.649   1.996  13.086 -0.1032 -0.0861  0.2040
   35DOPE   O11 4400   5.887   2.058  13.061 -0.5139 -0.5902  0.5865
   35DOPE   O12 4401   5.723   2.229  13.129  0.2792 -0.2792  0.2345
   35DOPE    C1 4402   5.996   2.139  13.104  0.1926  0.3264  0.9966
   35DOPE    HA 4403   5.992   2.240  13.057  1.1481 -0.3493 -0.6318
   35DOPE    HB 4404   6.094   2.101  13.067 -0.7617  0.4259 -1.8817
   35DOPE    C2 4405   5.998   2.143  13.261  1.1609 -0.8787  0.2227
   35DOPE    HS 4406   5.902   2.185  13.298  1.8074  1.2051 -0.3037
   35DOPE   O21 4407   6.105   2.224  13.307  0.1697  0.0526 -0.7781
   35DOPE   C21 4408   6.082   2.353  13.311  0.1065 -0.0256  0.1542
   35DOPE   O22 4409   5.973   2.407  13.307  0.1400  0.4218  0.3172
   35DOPE   C22 4410   6.223   2.420  13.319  0.1225  0.2365 -0.3986
   35DOPE   H2R 4411   6.218   2.516  13.263 -1.0536 -0.8027 -2.1569
   35DOPE   H2S 4412   6.300   2.351  13.278 -1.2927 -0.6655 -1.6270
   35DOPE    C3 4413   6.005   2.004  13.320 -0.3735  0.2139  0.8184
   35DOPE    HX 4414   6.095   1.948  13.288 -0.2593  0.3711  0.8615
   35DOPE    HY 4415   5.919   1.944  13.285  0.3599  0.1758 -1.0888
   35DOPE   O31 4416   6.019   2.006  13.462  0.1097  0.7150  0.6096
   35DOPE   C31 4417   5.910   2.028  13.531  0.5896  0.1638  0.0408
   35DOPE   O32 4418   5.796   2.016  13.487 -0.1669 -0.6650 -0.1307
   35DOPE   C32 4419   5.942   2.057  13.676  0.5321 -0.3397  0.4651
   35DOPE   H2X 4420   6.014   1.979  13.708  2.7382  0.3683 -2.3275
   35DOPE   H2Y 4421   5.991   2.157  13.669  0.5537 -0.3646  0.2592
   35DOPE   C23 4422   6.260   2.456  13.471 -0.0271 -0.4437  0.3151
   35DOPE   H3R 4423   6.181   2.519  13.515  2.6198  2.8716  0.7388
   35DOPE   H3S 4424   6.348   2.523  13.477 -1.1348  1.0367  0.4256
   35DOPE   C24 4425   6.267   2.340  13.564  0.1986 -0.2417  0.5127
   35DOPE   H4R 4426   6.289   2.250  13.503 -0.0886 -0.3993  0.6413
   35DOPE   H4S 4427   6.165   2.311  13.596 -0.0243  1.4114  1.4064
   35DOPE   C25 4428   6.352   2.366  13.689  0.5643 -0.1580 -0.1807
   35DOPE   H5R 4429   6.456   2.378  13.652  1.0535  2.3318  1.7714
   35DOPE   H5S 4430   6.349   2.273  13.750 -0.5736  1.3500  2.1967
   35DOPE   C26 4431   6.300   2.473  13.777  0.0358 -0.1627 -0.2488
   35DOPE   H6R 4432   6.190   2.467  13.788  0.0374  0.5046  0.1668
   35DOPE   H6S 4433   6.328   2.575  13.743  0.5416  0.8780  2.8995
   35DOPE   C27 4434   6.367   2.459  13.916  0.0307  0.3275  0.4831
   35DOPE   H7R 4435   6.477   2.454  13.902  0.3126  2.7763  1.4482
   35DOPE   H7S 4436   6.340   2.365  13.970 -0.6965  0.5709  0.5532
   35DOPE   C28 4437   6.341   2.576  14.014  0.6162 -0.0370 -0.1090
   35DOPE   H8R 4438   6.230   2.583  14.013  0.3985 -2.3434  1.3802
   35DOPE   H8S 4439   6.383   2.664  13.959  1.0335  1.2243  2.1240
   35DOPE   C29 4440   6.393   2.560  14.155 -0.2552  1.0146  0.2225
   35DOPE   H9R 4441   6.419   2.455  14.176  0.9805  1.4726  1.0733
   35DOPE  C210 4442   6.416   2.653  14.241 -0.3081 -0.6647  0.0546
   35DOPE  H10R 4443   6.451   2.645  14.345  1.9505 -0.3916 -0.6406
   35DOPE  C211 4444   6.402   2.805  14.204  0.4124 -0.0552  0.5923
   35DOPE  H11R 4445   6.382   2.835  14.099  0.2553  1.6646  1.0916
   35DOPE  H11S 4446   6.490   2.867  14.230  0.6162  0.8714 -2.0843
   35DOPE  C212 4447   6.282   2.877  14.285  0.2558 -0.6741  0.2065
   35DOPE  H12R 4448   6.188   2.819  14.274  1.1625 -2.1874  0.2007
   35DOPE  H12S 4449   6.267   2.971  14.227  1.5176 -0.4369  0.2416
   35DOPE  C213 4450   6.328   2.912  14.425  0.0397 -0.3285 -0.5301
   35DOPE  H13R 4451   6.434   2.945  14.413  0.6748 -2.0314  0.0950
   35DOPE  H13S 4452   6.339   2.825  14.494  1.0618  1.3866  1.6203
   35DOPE  C214 4453   6.233   3.014  14.488  0.5768  0.0723 -0.6866
   35DOPE  H14R 4454   6.238   2.987  14.596 -1.2512  0.9281 -0.3511
   35DOPE  H14S 4455   6.129   2.990  14.456  2.1504 -3.3370 -3.9982
   35DOPE  C215 4456   6.277   3.156  14.452  0.3059 -0.6129  0.3058
   35DOPE  H15R 4457   6.223   3.190  14.361  0.2462 -2.0979 -0.2339
   35DOPE  H15S 4458   6.383   3.146  14.420 -0.1985  0.2963 -1.8243
   35DOPE  C216 4459   6.255   3.256  14.567  0.0223  0.1410 -0.1163
   35DOPE  H16R 4460   6.297   3.224  14.665 -2.0932 -0.7696  0.5410
   35DOPE  H16S 4461   6.144   3.265  14.573 -0.2596 -2.7974  0.3150
   35DOPE  C217 4462   6.317   3.390  14.540 -0.3038  0.1041  0.3266
   35DOPE  H17R 4463   6.292   3.433  14.440  1.7857  1.3591  0.3027
   35DOPE  H17S 4464   6.426   3.373  14.536 -0.1598  1.1539 -2.0161
   35DOPE  C218 4465   6.284   3.490  14.649 -0.1935  0.1471  0.4627
   35DOPE  H18R 4466   6.178   3.522  14.650 -0.1975  0.1436  0.2297
   35DOPE  H18S 4467   6.348   3.579  14.632 -0.0346  0.0241  0.4054
   35DOPE  H18T 4468   6.308   3.451  14.750 -1.9849  2.1386  1.7485
   35DOPE   C33 4469   5.818   2.073  13.768  0.6105 -0.0589  0.6248
   35DOPE   H3X 4470   5.761   1.980  13.789 -0.0213  0.1433 -0.1275
   35DOPE   H3Y 4471   5.738   2.138  13.727 -0.2758  1.1256  3.8955
   35DOPE   C34 4472   5.846   2.116  13.912  0.0666  0.0552 -0.0270
   35DOPE   H4X 4473   5.941   2.069  13.947  0.8970  0.8268 -1.1455
   35DOPE   H4Y 4474   5.885   2.220  13.899  0.9500 -0.4098 -1.3342
   35DOPE   C35 4475   5.733   2.106  14.006 -0.4126  0.4688  0.5545
   35DOPE   H5X 4476   5.701   1.999  14.011  0.9965  0.0352  0.8261
   35DOPE   H5Y 4477   5.648   2.161  13.962 -1.4415 -2.3641 -1.2615
   35DOPE   C36 4478   5.770   2.141  14.150 -0.2843  0.1077  0.0933
   35DOPE   H6X 4479   5.857   2.075  14.171 -0.0308  0.4070 -0.0072
   35DOPE   H6Y 4480   5.684   2.110  14.213 -0.6617 -1.0698 -0.9582
   35DOPE   C37 4481   5.803   2.286  14.174 -0.3867  0.3798 -0.7051
   35DOPE   H7X 4482   5.901   2.301  14.123 -0.5449 -0.4549 -1.2741
   35DOPE   H7Y 4483   5.732   2.352  14.120  2.2722  1.6866 -2.8544
   35DOPE   C38 4484   5.803   2.341  14.319  0.1203 -0.9595 -0.4744
   35DOPE   H8X 4485   5.724   2.287  14.376 -0.6845  0.5482 -0.0975
   35DOPE   H8Y 4486   5.784   2.450  14.326 -0.8476 -1.1599  0.3569
   35DOPE   C39 4487   5.933   2.321  14.385  0.3092 -0.3371  0.0910
   35DOPE   H9X 4488   5.946   2.215  14.410 -2.8853 -0.4063  1.9612
   35DOPE  C310 4489   6.022   2.411  14.417 -0.6006 -0.0581 -0.1625
   35DOPE  H10X 4490   6.115   2.368  14.456 -0.0057  2.6083  1.5742
   35DOPE  C311 4491   6.017   2.556  14.396 -0.6026 -0.6796 -0.6578
   35DOPE  H11X 4492   6.099   2.583  14.326 -0.6031 -1.4169 -0.9521
   35DOPE  H11Y 4493   5.922   2.603  14.363 -0.0862  1.1119  0.2417
   35DOPE  C312 4494   6.043   2.629  14.533  0.4041 -0.2701 -0.2828
   35DOPE  H12X 4495   6.041   2.738  14.512 -0.0786  0.1379  1.6479
   35DOPE  H12Y 4496   6.150   2.615  14.560  1.2324  1.6735 -2.2251
   35DOPE  C313 4497   5.946   2.585  14.643 -0.2146 -0.0138  0.2422
   35DOPE  H13X 4498   5.855   2.535  14.603 -0.5721  1.0021 -0.2473
   35DOPE  H13Y 4499   5.996   2.504  14.700 -2.5727 -1.2628  0.6523
   35DOPE  C314 4500   5.927   2.692  14.751  0.3121 -0.5352  0.2554
   35DOPE  H14X 4501   6.024   2.715  14.799 -1.0014  1.0005  2.3303
   35DOPE  H14Y 4502   5.859   2.651  14.829  1.3081 -2.5962  0.0984
   35DOPE  C315 4503   5.871   2.822  14.700  0.1605 -0.4814  0.7439
   35DOPE  H15X 4504   5.792   2.796  14.626  2.2703 -1.5287 -1.2401
   35DOPE  H15Y 4505   5.945   2.875  14.636  0.3945 -1.0830  0.5178
   35DOPE  C316 4506   5.814   2.909  14.815 -0.4893  0.2239 -0.0923
   35DOPE  H16X 4507   5.763   2.839  14.884 -0.0998  1.8998  2.0139
   35DOPE  H16Y 4508   5.746   2.982  14.765  0.4066 -0.1677 -1.9829
   35DOPE  C317 4509   5.925   2.968  14.899 -0.3744  0.2011 -0.0315
   35DOPE  H17X 4510   5.882   3.001  14.996  2.7471  1.7431  0.9414
   35DOPE  H17Y 4511   6.007   2.898  14.923 -0.0729  0.2261 -0.9369
   35DOPE  C318 4512   5.994   3.080  14.830 -0.1268 -0.2444 -0.0871
   35DOPE  H18X 4513   6.073   3.039  14.765  1.1477  4.6384 -2.0797
   35DOPE  H18Y 4514   5.927   3.142  14.767  1.0494 -0.9166 -2.0554
   35DOPE  H18Z 4515   6.051   3.143  14.902 -0.7339  0.0722  0.1262
   36DOPE     N 4516   5.921   5.555  12.877 -0.1839 -0.4990 -0.1310
   36DOPE   HN1 4517   6.006   5.553  12.817 -0.9864 -0.8448 -1.2815
   36DOPE   HN2 4518   5.843   5.552  12.809  0.9501 -0.4919 -1.4834
   36DOPE   HN3 4519   5.923   5.650  12.921 -0.4863 -0.3420 -0.4514
   36DOPE   C12 4520   5.925   5.450  12.982 -0.0963  0.0077 -0.1304
   36DOPE  H12A 4521   6.019   5.464  13.040  0.6948  0.6744 -1.5413
   36DOPE  H12B 4522   5.928   5.348  12.937  1.2773 -0.4678  0.9649
   36DOPE   C11 4523   5.804   5.464  13.075  0.3890 -0.1447  0.0818
   36DOPE  H11A 4524   5.806   5.561  13.130 -0.4659  0.3712 -0.7778
   36DOPE  H11B 4525   5.812   5.386  13.154 -1.5737 -0.2279  0.2467
   36DOPE     P 4526   5.619   5.312  12.973 -0.3186 -0.1132  0.2036
   36DOPE   O13 4527   5.690   5.248  12.865 -0.5291 -0.4017 -0.6388
   36DOPE   O14 4528   5.471   5.323  12.952 -0.2061  0.1919  0.0505
   36DOPE   O11 4529   5.634   5.215  13.105 -0.0875  0.3824 -0.7680
   36DOPE   O12 4530   5.686   5.449  13.009 -0.0181 -0.7674  0.6952
   36DOPE    C1 4531   5.601   5.261  13.236  0.3497 -0.3241 -0.9806
   36DOPE    HA 4532   5.494   5.245  13.260  0.2858 -0.4181 -1.3217
   36DOPE    HB 4533   5.611   5.372  13.243 -0.9982 -0.2618  0.4805
   36DOPE    C2 4534   5.686   5.201  13.353 -0.3694 -0.2468  0.5598
   36DOPE    HS 4535   5.788   5.227  13.317 -1.3989  1.6441 -1.2528
   36DOPE   O21 4536   5.656   5.055  13.362  1.1298 -0.2023  0.0402
   36DOPE   C21 4537   5.752   4.987  13.427 -0.0519  0.1325 -0.1225
   36DOPE   O22 4538   5.845   5.036  13.491 -0.1324  0.2250  0.5021
   36DOPE   C22 4539   5.718   4.835  13.423  0.3086 -0.2458 -0.0311
   36DOPE   H2R 4540   5.816   4.783  13.417  0.5440  0.0171  1.2608
   36DOPE   H2S 4541   5.672   4.818  13.324 -2.0812  0.8723  0.7915
   36DOPE    C3 4542   5.640   5.259  13.492  0.1037 -0.3769  0.2017
   36DOPE    HX 4543   5.660   5.367  13.476 -2.7441 -0.1188 -2.6769
   36DOPE    HY 4544   5.701   5.220  13.577 -3.2514 -3.2241  1.5066
   36DOPE   O31 4545   5.499   5.237  13.515 -0.6706  0.0995 -0.3920
   36DOPE   C31 4546   5.417   5.340  13.498 -0.1542 -0.1047 -0.3845
   36DOPE   O32 4547   5.442   5.442  13.446  0.3308 -0.1225 -0.6475
   36DOPE   C32 4548   5.272   5.310  13.547 -0.4705 -0.3341  0.4482
   36DOPE   H2X 4549   5.240   5.376  13.629  0.4124  0.2237  0.3579
   36DOPE   H2Y 4550   5.199   5.330  13.465  0.5950  1.5571 -0.0970
   36DOPE   C23 4551   5.629   4.796  13.546 -0.2540 -0.2153 -0.3584
   36DOPE   H3R 4552   5.576   4.701  13.524 -0.4691  0.1573 -1.5536
   36DOPE   H3S 4553   5.553   4.877  13.549  0.2739  0.3531 -1.5858
   36DOPE   C24 4554   5.717   4.788  13.669 -0.0274  1.0346 -0.0379
   36DOPE   H4R 4555   5.668   4.859  13.739  1.5360  0.4186  1.7745
   36DOPE   H4S 4556   5.824   4.809  13.647  0.3009 -0.9899 -0.5458
   36DOPE   C25 4557   5.696   4.654  13.738 -0.3665  0.2796 -0.8735
   36DOPE   H5R 4558   5.740   4.577  13.672 -0.1968  0.1034 -0.5579
   36DOPE   H5S 4559   5.587   4.634  13.742 -0.1287 -0.9133  0.9348
   36DOPE   C26 4560   5.758   4.649  13.881 -0.3651 -0.5519 -0.5406
   36DOPE   H6R 4561   5.736   4.555  13.935 -0.5802  0.1744  0.6759
   36DOPE   H6S 4562   5.718   4.735  13.939  1.3188  1.0439 -1.6315
   36DOPE   C27 4563   5.912   4.674  13.884  0.2716 -0.1785  0.3420
   36DOPE   H7R 4564   5.954   4.771  13.849  0.5282 -0.2312  0.5047
   36DOPE   H7S 4565   5.936   4.597  13.808 -2.7649 -1.3546  0.4319
   36DOPE   C28 4566   5.975   4.656  14.022  0.0063 -0.5081 -0.5039
   36DOPE   H8R 4567   6.077   4.614  14.008 -0.4598 -1.8919  0.0078
   36DOPE   H8S 4568   5.921   4.571  14.069  1.3020 -1.8858 -1.4088
   36DOPE   C29 4569   5.982   4.781  14.106 -0.4017 -0.6562 -0.4992
   36DOPE   H9R 4570   6.041   4.864  14.066 -2.4073 -0.0644 -2.4063
   36DOPE  C210 4571   5.905   4.808  14.215 -0.0564 -0.5708  0.0030
   36DOPE  H10R 4572   5.916   4.905  14.265 -0.8079 -0.6953  0.4288
   36DOPE  C211 4573   5.792   4.725  14.282 -0.8605  0.1934  0.2770
   36DOPE  H11R 4574   5.776   4.628  14.230 -0.3768  0.2042  0.0988
   36DOPE  H11S 4575   5.697   4.781  14.268 -0.1831  1.4017  0.3181
   36DOPE  C212 4576   5.821   4.697  14.429  0.4373 -0.2212 -0.2232
   36DOPE  H12R 4577   5.912   4.635  14.448 -0.3048 -0.7482  1.9236
   36DOPE  H12S 4578   5.730   4.645  14.465 -1.6863  1.6348 -2.5398
   36DOPE  C213 4579   5.847   4.823  14.506 -0.9493  0.4378 -0.7370
   36DOPE  H13R 4580   5.782   4.911  14.487 -0.3999  1.2469  0.9453
   36DOPE  H13S 4581   5.946   4.863  14.474 -0.4181  1.7522  2.2143
   36DOPE  C214 4582   5.856   4.796  14.657 -0.2094 -0.2891  0.8760
   36DOPE  H14R 4583   5.931   4.714  14.665  0.1610  0.0104  0.4963
   36DOPE  H14S 4584   5.765   4.753  14.704  0.0779 -2.5571 -0.4928
   36DOPE  C215 4585   5.889   4.929  14.721  0.1391  0.8139 -0.2100
   36DOPE  H15R 4586   5.803   4.999  14.708  0.3389  0.7562 -2.2236
   36DOPE  H15S 4587   5.980   4.970  14.672 -0.7651  1.6708 -1.2354
   36DOPE  C216 4588   5.909   4.910  14.873  0.1129  0.2141 -0.1968
   36DOPE  H16R 4589   6.017   4.885  14.876 -0.3655 -1.9105  0.8729
   36DOPE  H16S 4590   5.838   4.836  14.915  1.0554 -1.1808 -1.0069
   36DOPE  C217 4591   5.908   5.036  14.953 -0.1385  0.8121 -0.2965
   36DOPE  H17R 4592   5.926   5.008  15.059  2.3275  1.0048 -0.5944
   36DOPE  H17S 4593   5.810   5.086  14.943 -0.6945  0.0252  0.9569
   36DOPE  C218 4594   6.029   5.130  14.914  0.0759  0.0459 -0.5562
   36DOPE  H18R 4595   6.124   5.085  14.952  0.3816  0.2621 -1.0414
   36DOPE  H18S 4596   6.008   5.232  14.951 -0.4907 -1.0349  2.3309
   36DOPE  H18T 4597   6.048   5.139  14.805  1.2193  0.3193 -0.3530
   36DOPE   C33 4598   5.251   5.163  13.584 -0.0964 -0.0345  0.1117
   36DOPE   H3X 4599   5.169   5.166  13.658  1.8112  1.4353  2.3229
   36DOPE   H3Y 4600   5.335   5.116  13.640 -1.0955  0.5552  2.2295
   36DOPE   C34 4601   5.213   5.073  13.466  0.3892  0.5477 -0.1554
   36DOPE   H4X 4602   5.109   5.098  13.434  0.1723 -0.7173 -0.4944
   36DOPE   H4Y 4603   5.284   5.092  13.383  2.3474 -3.5051  0.3295
   36DOPE   C35 4604   5.216   4.919  13.490 -0.0251 -0.7902 -0.3100
   36DOPE   H5X 4605   5.158   4.891  13.580 -1.0121  0.4838 -0.5251
   36DOPE   H5Y 4606   5.321   4.897  13.516  0.6655  3.0898  0.7649
   36DOPE   C36 4607   5.176   4.843  13.365  0.1479  0.3246  0.4617
   36DOPE   H6X 4608   5.237   4.869  13.276 -0.3360 -0.4942 -0.1249
   36DOPE   H6Y 4609   5.075   4.883  13.341  0.5613  0.6121 -0.8563
   36DOPE   C37 4610   5.173   4.688  13.393  0.0142  0.5353 -0.8039
   36DOPE   H7X 4611   5.115   4.670  13.486  1.2256 -0.7347 -0.2534
   36DOPE   H7Y 4612   5.106   4.650  13.314  0.9802 -0.7381 -1.0446
   36DOPE   C38 4613   5.303   4.606  13.392 -0.1979 -0.0557 -0.2604
   36DOPE   H8X 4614   5.360   4.651  13.476 -0.7199  1.6263 -0.7682
   36DOPE   H8Y 4615   5.358   4.648  13.305  0.8545  1.1063  0.9180
   36DOPE   C39 4616   5.280   4.457  13.381 -0.3807 -0.5775  0.5336
   36DOPE   H9X 4617   5.264   4.428  13.276 -1.1213  0.1117  0.4472
   36DOPE  C310 4618   5.267   4.374  13.484  0.1555  0.1678  0.4914
   36DOPE  H10X 4619   5.252   4.267  13.463 -0.3095  0.5618 -1.2658
   36DOPE  C311 4620   5.265   4.412  13.632 -0.5929 -0.1322  0.1346
   36DOPE  H11X 4621   5.306   4.514  13.647  1.8068 -1.1157  0.7210
   36DOPE  H11Y 4622   5.165   4.417  13.679 -0.5223 -0.1582  0.2889
   36DOPE  C312 4623   5.358   4.311  13.707 -0.3517  0.5960  0.2913
   36DOPE  H12X 4624   5.464   4.323  13.673 -0.4629 -0.2608 -0.4093
   36DOPE  H12Y 4625   5.331   4.208  13.674 -2.3550  1.2180 -0.1638
   36DOPE  C313 4626   5.349   4.311  13.859 -0.4216 -0.0672 -0.3272
   36DOPE  H13X 4627   5.243   4.328  13.884  0.1543  2.6958  0.5614
   36DOPE  H13Y 4628   5.385   4.216  13.904 -2.6950  0.1642  2.1884
   36DOPE  C314 4629   5.418   4.431  13.914  0.0699 -0.1594  0.6223
   36DOPE  H14X 4630   5.380   4.525  13.867  0.6327  0.0838  0.6384
   36DOPE  H14Y 4631   5.526   4.439  13.887  0.2710 -0.4313  1.3466
   36DOPE  C315 4632   5.416   4.435  14.069 -0.8797 -0.1822  0.7217
   36DOPE  H15X 4633   5.310   4.429  14.102 -0.1117  0.1303  3.5731
   36DOPE  H15Y 4634   5.468   4.527  14.104 -2.1291  0.8016  0.1053
   36DOPE  C316 4635   5.480   4.314  14.140 -0.3550 -0.1448 -0.0889
   36DOPE  H16X 4636   5.587   4.302  14.113 -0.5112 -1.4640 -0.1779
   36DOPE  H16Y 4637   5.427   4.222  14.108  0.6590  0.0215 -2.4831
   36DOPE  C317 4638   5.478   4.317  14.296 -0.3456 -0.2101 -0.3709
   36DOPE  H17X 4639   5.514   4.417  14.327  2.2189 -2.1341  3.7445
   36DOPE  H17Y 4640   5.369   4.322  14.320 -0.0389 -0.5076  1.2041
   36DOPE  C318 4641   5.565   4.208  14.364 -0.2130 -0.5226  0.4409
   36DOPE  H18X 4642   5.557   4.108  14.315  3.7197 -2.2628  2.8559
   36DOPE  H18Y 4643   5.669   4.241  14.343 -0.0121 -0.4880  1.4483
   36DOPE  H18Z 4644   5.549   4.183  14.471 -0.9161  1.1641  0.7477
   37DOPE     N 4645   1.848   2.545  12.893 -0.1414 -0.2942 -0.1846
   37DOPE   HN1 4646   1.892   2.454  12.916  1.5066  0.9689  2.0051
   37DOPE   HN2 4647   1.834   2.582  12.990  3.5931  1.3596 -0.1032
   37DOPE   HN3 4648   1.757   2.529  12.845 -0.8899  2.1437  0.2794
   37DOPE   C12 4649   1.927   2.629  12.803 -0.0987  0.2909  0.0884
   37DOPE  H12A 4650   1.861   2.704  12.754  1.6587  2.1592  0.4337
   37DOPE  H12B 4651   1.940   2.554  12.722 -3.4369  0.9182 -1.2169
   37DOPE   C11 4652   2.058   2.688  12.863  0.2687  0.3493 -0.3209
   37DOPE  H11A 4653   2.090   2.768  12.793  0.1588 -1.0958 -2.0985
   37DOPE  H11B 4654   2.130   2.604  12.863  1.3884  1.2085  2.2553
   37DOPE     P 4655   2.159   2.800  13.080  0.3651  0.3565  0.3136
   37DOPE   O13 4656   2.104   2.886  13.185  0.2369  0.5029  0.2750
   37DOPE   O14 4657   2.247   2.857  12.973  0.5559 -0.0405 -0.4419
   37DOPE   O11 4658   2.230   2.676  13.152 -0.4604 -0.1616 -0.3471
   37DOPE   O12 4659   2.038   2.739  13.001  0.2901 -0.1770  0.1858
   37DOPE    C1 4660   2.172   2.561  13.199 -0.4388  0.0744 -0.2912
   37DOPE    HA 4661   2.252   2.483  13.204 -2.4755 -2.0715  3.7552
   37DOPE    HB 4662   2.095   2.513  13.135 -0.0474 -2.0499  0.7260
   37DOPE    C2 4663   2.128   2.589  13.343 -0.4005 -0.6887  0.2318
   37DOPE    HS 4664   2.036   2.651  13.337 -0.3335 -0.4418  1.4365
   37DOPE   O21 4665   2.237   2.646  13.419 -0.1331  0.0955 -0.5365
   37DOPE   C21 4666   2.216   2.746  13.501  0.2089 -0.3182 -0.3119
   37DOPE   O22 4667   2.113   2.809  13.523 -0.0037 -0.2742 -0.0412
   37DOPE   C22 4668   2.353   2.769  13.572  0.5464 -0.3345  0.4282
   37DOPE   H2R 4669   2.421   2.832  13.511 -0.1175 -0.7093 -0.7349
   37DOPE   H2S 4670   2.406   2.674  13.591 -0.2111 -1.1023 -1.1110
   37DOPE    C3 4671   2.084   2.463  13.414  0.1267 -0.3513  0.3257
   37DOPE    HX 4672   2.173   2.402  13.439 -0.2988 -0.9240  0.4742
   37DOPE    HY 4673   2.018   2.402  13.349  2.0123 -0.9374 -1.1472
   37DOPE   O31 4674   2.021   2.488  13.544 -0.4577  0.0230  0.2029
   37DOPE   C31 4675   1.889   2.513  13.537  0.3783  0.3422 -0.7551
   37DOPE   O32 4676   1.822   2.536  13.436  0.8328 -0.0886 -0.2070
   37DOPE   C32 4677   1.833   2.515  13.672  0.2621 -0.3249 -0.2130
   37DOPE   H2X 4678   1.723   2.529  13.660  0.2467 -0.8935 -0.7966
   37DOPE   H2Y 4679   1.863   2.420  13.722  0.9208  0.6306  1.2678
   37DOPE   C23 4680   2.315   2.832  13.711 -0.2150 -0.7583 -0.0769
   37DOPE   H3R 4681   2.255   2.761  13.773 -1.1987 -1.7529 -2.0541
   37DOPE   H3S 4682   2.269   2.930  13.686  0.8663  0.0562  1.0034
   37DOPE   C24 4683   2.448   2.868  13.777 -0.7320 -0.4322 -0.1667
   37DOPE   H4R 4684   2.413   2.950  13.843 -2.1939 -0.8456 -0.3982
   37DOPE   H4S 4685   2.521   2.905  13.702  0.3133  0.2710  1.1639
   37DOPE   C25 4686   2.514   2.749  13.852 -0.0364  1.0056 -0.6633
   37DOPE   H5R 4687   2.537   2.660  13.789 -1.4717 -0.9731  1.4331
   37DOPE   H5S 4688   2.438   2.712  13.923 -0.3864  0.8906 -1.0938
   37DOPE   C26 4689   2.644   2.792  13.922 -0.2454  0.1910 -0.2591
   37DOPE   H6R 4690   2.629   2.881  13.986  0.9749 -0.6062  1.1980
   37DOPE   H6S 4691   2.730   2.811  13.853  0.3311  1.5084  0.7895
   37DOPE   C27 4692   2.692   2.679  14.018 -0.4385  0.2380 -0.4735
   37DOPE   H7R 4693   2.705   2.595  13.947  2.5835  1.1441 -1.1167
   37DOPE   H7S 4694   2.614   2.657  14.094 -0.0854 -1.0702 -0.4686
   37DOPE   C28 4695   2.827   2.707  14.090 -0.3578 -0.6457 -0.2237
   37DOPE   H8R 4696   2.808   2.796  14.155 -4.0964 -1.3019 -0.1787
   37DOPE   H8S 4697   2.910   2.746  14.028 -0.5749  0.6354  0.2510
   37DOPE   C29 4698   2.871   2.582  14.159 -0.0844 -0.6023 -0.1953
   37DOPE   H9R 4699   2.888   2.505  14.083 -0.1514  0.7234 -1.5819
   37DOPE  C210 4700   2.879   2.559  14.294 -0.0024  0.0198  0.0768
   37DOPE  H10R 4701   2.935   2.473  14.334 -1.2663  0.5356  3.2926
   37DOPE  C211 4702   2.842   2.662  14.396  0.5523 -0.6942 -0.0462
   37DOPE  H11R 4703   2.743   2.707  14.373  1.5161  1.4005 -0.3252
   37DOPE  H11S 4704   2.909   2.750  14.379  0.5228 -0.6497  0.0715
   37DOPE  C212 4705   2.827   2.605  14.531 -0.2441  0.5736 -0.1020
   37DOPE  H12R 4706   2.793   2.679  14.607  1.4101 -0.4672  1.7688
   37DOPE  H12S 4707   2.915   2.552  14.573 -0.8187  0.5802  1.1685
   37DOPE  C213 4708   2.706   2.503  14.532 -0.1355  0.1533  0.0759
   37DOPE  H13R 4709   2.716   2.426  14.453  1.9826  1.6493 -1.2119
   37DOPE  H13S 4710   2.612   2.557  14.506  0.8295  1.4231 -0.8907
   37DOPE  C214 4711   2.706   2.424  14.664 -0.1207 -0.4896  0.2018
   37DOPE  H14R 4712   2.699   2.481  14.759  4.1818 -0.3695  0.6592
   37DOPE  H14S 4713   2.803   2.370  14.672  0.1554 -0.1776 -0.9700
   37DOPE  C215 4714   2.588   2.328  14.674 -0.1359 -0.5858 -0.2770
   37DOPE  H15R 4715   2.619   2.234  14.623  2.3645  0.0241 -0.0429
   37DOPE  H15S 4716   2.501   2.370  14.619 -0.2231 -1.1846 -0.6063
   37DOPE  C216 4717   2.537   2.285  14.814  0.1086 -0.2075  0.0320
   37DOPE  H16R 4718   2.502   2.368  14.880 -1.2620 -1.7370  1.3363
   37DOPE  H16S 4719   2.627   2.252  14.870 -0.6904 -2.8904 -0.1573
   37DOPE  C217 4720   2.440   2.162  14.803  0.0506 -0.2659  1.1416
   37DOPE  H17R 4721   2.508   2.085  14.760  1.4445  0.9426  1.1007
   37DOPE  H17S 4722   2.347   2.187  14.749  1.2534  1.1380 -0.3845
   37DOPE  C218 4723   2.404   2.102  14.941  0.3854 -0.1213 -0.3517
   37DOPE  H18R 4724   2.339   2.174  14.996 -2.8493 -2.2415 -1.1401
   37DOPE  H18S 4725   2.494   2.103  15.008  1.0927  0.0027 -1.2821
   37DOPE  H18T 4726   2.350   2.006  14.937 -1.1387  0.7122 -0.4732
   37DOPE   C33 4727   1.889   2.636  13.751  0.5580  0.1229  0.0444
   37DOPE   H3X 4728   2.000   2.636  13.751  0.5806  1.7124 -0.8307
   37DOPE   H3Y 4729   1.863   2.619  13.858  0.8134 -0.3178  0.0394
   37DOPE   C34 4730   1.833   2.773  13.705  0.8381 -0.5494  0.5196
   37DOPE   H4X 4731   1.877   2.810  13.610  1.8013 -0.3640  1.0147
   37DOPE   H4Y 4732   1.725   2.759  13.684  1.0197 -0.7221 -0.3247
   37DOPE   C35 4733   1.849   2.883  13.811  1.1022 -0.1467 -0.1063
   37DOPE   H5X 4734   1.813   2.975  13.761  1.9179 -0.7861 -1.9697
   37DOPE   H5Y 4735   1.958   2.900  13.827  1.1957 -0.7155 -0.1115
   37DOPE   C36 4736   1.780   2.857  13.942  0.3532  0.3053 -0.1129
   37DOPE   H6X 4737   1.827   2.769  13.991  0.9656  0.6838 -0.0029
   37DOPE   H6Y 4738   1.675   2.826  13.922  0.0455  1.7656 -0.9347
   37DOPE   C37 4739   1.774   2.973  14.038 -0.2914  0.5607  0.6460
   37DOPE   H7X 4740   1.874   2.971  14.085 -0.1238 -1.2634  0.2682
   37DOPE   H7Y 4741   1.768   3.064  13.974 -0.8804 -2.0174 -3.3089
   37DOPE   C38 4742   1.661   2.959  14.149 -0.0843 -0.5088  0.5379
   37DOPE   H8X 4743   1.663   2.859  14.196 -1.4547  0.1487  2.0961
   37DOPE   H8Y 4744   1.559   2.972  14.105 -0.6211  1.1988  2.1649
   37DOPE   C39 4745   1.681   3.052  14.259  0.1585  0.3853  0.7266
   37DOPE   H9X 4746   1.634   3.150  14.241 -2.2184 -0.4674  1.9414
   37DOPE  C310 4747   1.764   3.041  14.365  0.5055  0.0462  0.7076
   37DOPE  H10X 4748   1.760   3.133  14.426 -2.4072  1.1035 -0.8127
   37DOPE  C311 4749   1.863   2.932  14.399 -0.0246  0.1797 -0.4227
   37DOPE  H11X 4750   1.827   2.850  14.465 -0.2550  0.2657 -0.4405
   37DOPE  H11Y 4751   1.901   2.882  14.308  0.7490 -1.3933  0.7171
   37DOPE  C312 4752   1.995   2.995  14.457  0.7593 -0.2469  1.0336
   37DOPE  H12X 4753   2.029   3.085  14.402  1.7253 -1.6939 -0.8623
   37DOPE  H12Y 4754   2.080   2.924  14.450  0.9794  0.2089 -2.2519
   37DOPE  C313 4755   1.980   3.040  14.604 -0.8443  0.1416  0.1463
   37DOPE  H13X 4756   1.912   3.125  14.625 -0.6179  0.3427  0.0729
   37DOPE  H13Y 4757   1.934   2.948  14.645  0.3596  0.3765  2.1839
   37DOPE  C314 4758   2.121   3.065  14.655 -0.2261 -0.0093 -0.0688
   37DOPE  H14X 4759   2.177   3.153  14.616  0.8305 -1.8786 -3.1053
   37DOPE  H14Y 4760   2.190   2.980  14.634 -2.0447 -1.7980  0.8591
   37DOPE  C315 4761   2.120   3.091  14.810 -0.4136  0.1894 -0.1293
   37DOPE  H15X 4762   2.118   2.989  14.855 -0.7991  0.3393  0.1987
   37DOPE  H15Y 4763   2.027   3.144  14.839  0.2842  1.0766  0.5283
   37DOPE  C316 4764   2.242   3.158  14.870 -0.2018  0.7747  0.1095
   37DOPE  H16X 4765   2.269   3.261  14.837  1.7262  0.0102 -0.8248
   37DOPE  H16Y 4766   2.327   3.092  14.843 -0.6376 -0.1372  0.9254
   37DOPE  C317 4767   2.259   3.154  15.021  0.3509 -0.4637 -0.0878
   37DOPE  H17X 4768   2.349   3.216  15.042  0.2767 -0.2340 -0.4470
   37DOPE  H17Y 4769   2.166   3.198  15.061  0.9059  0.3846  0.2965
   37DOPE  C318 4770   2.289   3.012  15.075 -0.1439 -0.2116  0.1505
   37DOPE  H18X 4771   2.391   2.976  15.049 -0.5477 -3.1420  2.0741
   37DOPE  H18Y 4772   2.280   3.017  15.186 -0.4578  0.8882  0.0838
   37DOPE  H18Z 4773   2.220   2.932  15.041  0.2123 -1.8637  3.0124
   38DOPE     N 4774   4.665   5.513  12.652  0.0215 -0.2108 -0.0815
   38DOPE   HN1 4775   4.598   5.582  12.692  0.5231  1.5984 -2.1621
   38DOPE   HN2 4776   4.753   5.502  12.707 -0.9514 -1.1494  1.3496
   38DOPE   HN3 4777   4.674   5.534  12.551  0.2784  0.1721  0.0163
   38DOPE   C12 4778   4.608   5.375  12.661  0.4359  0.2718  0.5427
   38DOPE  H12A 4779   4.694   5.307  12.639 -0.7955 -0.7830 -1.3769
   38DOPE  H12B 4780   4.552   5.351  12.568  1.9492  0.4430 -0.4548
   38DOPE   C11 4781   4.532   5.342  12.788  0.2736  0.0041  0.5492
   38DOPE  H11A 4782   4.497   5.237  12.780  1.7350 -0.4289 -0.5822
   38DOPE  H11B 4783   4.440   5.403  12.788  0.7037  0.6638  0.2683
   38DOPE     P 4784   4.710   5.262  12.964 -0.4133 -0.1571 -0.2307
   38DOPE   O13 4785   4.823   5.328  13.031  0.0462 -0.4902  0.2163
   38DOPE   O14 4786   4.745   5.167  12.858 -0.1968 -0.1120 -0.3401
   38DOPE   O11 4787   4.632   5.183  13.072 -0.0675  0.1581 -0.3999
   38DOPE   O12 4788   4.610   5.372  12.901 -0.2275 -0.1830 -0.0906
   38DOPE    C1 4789   4.508   5.218  13.127  0.4268  0.5815 -0.4456
   38DOPE    HA 4790   4.421   5.176  13.072  0.7346  0.0780 -0.5518
   38DOPE    HB 4791   4.505   5.329  13.123  0.8814  0.5630 -2.1232
   38DOPE    C2 4792   4.491   5.185  13.279  0.2323 -0.5652  0.8433
   38DOPE    HS 4793   4.550   5.262  13.333  0.4785  1.1151 -1.6571
   38DOPE   O21 4794   4.545   5.054  13.301 -0.1086 -0.2738  0.4143
   38DOPE   C21 4795   4.668   5.031  13.323 -0.3036  0.0699  0.9964
   38DOPE   O22 4796   4.762   5.108  13.329 -0.6075  0.2546 -0.0782
   38DOPE   C22 4797   4.676   4.879  13.341  0.2711 -0.4269 -1.1270
   38DOPE   H2R 4798   4.694   4.840  13.238 -0.5950  1.1568 -1.9159
   38DOPE   H2S 4799   4.576   4.840  13.366  0.3941 -0.4768 -0.7042
   38DOPE    C3 4800   4.342   5.193  13.331 -0.2543 -0.3048  0.1945
   38DOPE    HX 4801   4.291   5.099  13.300 -0.3461 -0.3024  0.3406
   38DOPE    HY 4802   4.285   5.277  13.286  0.6901 -0.4949 -1.4428
   38DOPE   O31 4803   4.351   5.196  13.477  0.0222  0.1152 -0.1286
   38DOPE   C31 4804   4.338   5.315  13.538  0.2650 -0.1253 -0.0086
   38DOPE   O32 4805   4.304   5.419  13.485  0.3397 -0.2587 -0.4152
   38DOPE   C32 4806   4.383   5.297  13.685  0.1928  0.7512 -0.2220
   38DOPE   H2X 4807   4.405   5.399  13.724  2.2559  1.3766 -2.6860
   38DOPE   H2Y 4808   4.305   5.251  13.749  1.7120 -0.0104  1.1623
   38DOPE   C23 4809   4.783   4.821  13.434  0.4583 -0.4256 -0.1093
   38DOPE   H3R 4810   4.882   4.868  13.414  0.5054  0.8398  2.6678
   38DOPE   H3S 4811   4.793   4.712  13.416  1.4084 -0.1152 -1.6548
   38DOPE   C24 4812   4.770   4.844  13.589  0.8829  0.3331 -0.4578
   38DOPE   H4R 4813   4.705   4.767  13.636 -0.4747 -0.3312 -3.2149
   38DOPE   H4S 4814   4.722   4.942  13.607  0.0376 -0.2204  0.4497
   38DOPE   C25 4815   4.902   4.849  13.669  0.3255  0.9943  0.3759
   38DOPE   H5R 4816   4.963   4.933  13.631  0.3395 -0.3233 -2.7919
   38DOPE   H5S 4817   4.968   4.760  13.659 -1.0938  0.0066 -0.7769
   38DOPE   C26 4818   4.861   4.869  13.818 -0.2081 -0.0456 -0.2940
   38DOPE   H6R 4819   4.789   4.787  13.838 -0.9600  0.3637 -1.1920
   38DOPE   H6S 4820   4.804   4.964  13.820  0.3187  0.3324 -1.7106
   38DOPE   C27 4821   4.995   4.887  13.889  0.3057  0.1051 -0.3155
   38DOPE   H7R 4822   5.054   4.961  13.832  1.0257 -0.8866 -0.9044
   38DOPE   H7S 4823   5.051   4.791  13.881  0.2583  0.1785 -1.9827
   38DOPE   C28 4824   4.987   4.916  14.038 -0.0205  0.0235 -0.7461
   38DOPE   H8R 4825   5.091   4.901  14.074  0.3372 -0.0041 -1.7636
   38DOPE   H8S 4826   4.919   4.845  14.091  1.9102 -1.4267 -0.0656
   38DOPE   C29 4827   4.951   5.059  14.070  0.4521 -0.0452  0.7255
   38DOPE   H9R 4828   5.040   5.122  14.070  0.3212  0.1404  1.0219
   38DOPE  C210 4829   4.824   5.101  14.104 -0.3606 -0.7490 -0.1916
   38DOPE  H10R 4830   4.822   5.211  14.115  2.9421 -0.8252  2.9767
   38DOPE  C211 4831   4.687   5.036  14.123 -0.4630 -0.0479  0.9202
   38DOPE  H11R 4832   4.677   4.932  14.087  3.1904  0.1043 -0.9829
   38DOPE  H11S 4833   4.602   5.094  14.080 -1.3943 -0.8932  1.5789
   38DOPE  C212 4834   4.663   5.012  14.274  0.3465 -0.7927  0.1014
   38DOPE  H12R 4835   4.558   4.979  14.286  0.0289  0.5174  1.1775
   38DOPE  H12S 4836   4.675   5.109  14.328 -1.8182  0.1933 -1.0355
   38DOPE  C213 4837   4.753   4.911  14.339  0.1373  0.7337  0.3348
   38DOPE  H13R 4838   4.856   4.952  14.343  0.3254  0.5379 -1.6730
   38DOPE  H13S 4839   4.769   4.827  14.268  0.2639  0.1442  1.0454
   38DOPE  C214 4840   4.703   4.852  14.477  0.3052  0.4788 -0.4855
   38DOPE  H14R 4841   4.794   4.794  14.505  0.0572 -0.9501 -2.4182
   38DOPE  H14S 4842   4.617   4.783  14.462  0.2618 -0.4161  3.0849
   38DOPE  C215 4843   4.685   4.965  14.584 -0.4233  0.4499  0.9693
   38DOPE  H15R 4844   4.591   5.022  14.570 -0.4993 -0.1216 -1.3177
   38DOPE  H15S 4845   4.769   5.037  14.576 -0.4928  0.5379  1.0324
   38DOPE  C216 4846   4.675   4.903  14.720 -0.5660  0.6310  0.3214
   38DOPE  H16R 4847   4.779   4.871  14.744 -1.1022 -0.8093  0.8162
   38DOPE  H16S 4848   4.626   4.806  14.698  0.6416  0.7818 -3.9821
   38DOPE  C217 4849   4.616   4.988  14.830  0.1934  0.1252 -0.3380
   38DOPE  H17R 4850   4.517   5.021  14.791  0.2058  0.4636 -0.0836
   38DOPE  H17S 4851   4.670   5.085  14.832 -0.1289  0.3810 -2.1159
   38DOPE  C218 4852   4.608   4.924  14.969  0.1149  0.2822  0.4788
   38DOPE  H18R 4853   4.561   4.995  15.041  0.0769 -1.9818  2.8527
   38DOPE  H18S 4854   4.711   4.899  15.004  0.9247  1.6492 -0.8089
   38DOPE  H18T 4855   4.534   4.841  14.971 -2.6649  2.5817 -0.9204
   38DOPE   C33 4856   4.516   5.221  13.699  0.1154  0.4014  0.3358
   38DOPE   H3X 4857   4.515   5.133  13.631  1.0587 -0.1896  1.0604
   38DOPE   H3Y 4858   4.527   5.182  13.803 -0.0869 -0.2638  0.1154
   38DOPE   C34 4859   4.643   5.300  13.670  0.8777  0.2503  0.0425
   38DOPE   H4X 4860   4.724   5.224  13.659  0.0823 -0.8592  1.5783
   38DOPE   H4Y 4861   4.624   5.339  13.567  1.7478 -1.4232 -0.8095
   38DOPE   C35 4862   4.670   5.420  13.764 -0.4080 -0.2231  0.6339
   38DOPE   H5X 4863   4.632   5.391  13.864 -0.2013 -0.4536  0.6474
   38DOPE   H5Y 4864   4.606   5.506  13.736  0.1594 -0.1650 -0.5419
   38DOPE   C36 4865   4.818   5.459  13.773 -0.3695  0.4733  0.4772
   38DOPE   H6X 4866   4.829   5.561  13.817  0.3698  1.3683 -1.6757
   38DOPE   H6Y 4867   4.864   5.458  13.672 -1.9935  0.9093 -0.2935
   38DOPE   C37 4868   4.905   5.366  13.857  0.7455 -0.7653 -1.0473
   38DOPE   H7X 4869   4.851   5.356  13.953 -0.5187  0.6559 -1.5774
   38DOPE   H7Y 4870   4.895   5.264  13.813  0.5303 -0.8877 -0.7170
   38DOPE   C38 4871   5.053   5.398  13.885  0.4439 -0.0067 -0.1362
   38DOPE   H8X 4872   5.096   5.417  13.785 -0.1091  0.1463 -0.3516
   38DOPE   H8Y 4873   5.108   5.316  13.936 -3.4047 -1.3787  2.2924
   38DOPE   C39 4874   5.068   5.527  13.964 -0.0325 -0.1119 -0.6140
   38DOPE   H9X 4875   5.051   5.622  13.912  1.4021 -1.3860 -3.6681
   38DOPE  C310 4876   5.095   5.529  14.093 -0.4925  0.2323  0.8242
   38DOPE  H10X 4877   5.097   5.630  14.138  3.6263  0.4064  0.7120
   38DOPE  C311 4878   5.114   5.422  14.192 -0.3656  0.3027 -0.0078
   38DOPE  H11X 4879   5.026   5.446  14.255  0.7913  3.9864  0.3947
   38DOPE  H11Y 4880   5.102   5.324  14.140 -1.7710  0.8642 -0.8184
   38DOPE  C312 4881   5.239   5.442  14.287 -0.0351 -0.4221  0.1841
   38DOPE  H12X 4882   5.224   5.545  14.326  2.0055 -0.0183 -0.0195
   38DOPE  H12Y 4883   5.338   5.452  14.239  0.7927 -1.0667  1.6964
   38DOPE  C313 4884   5.243   5.355  14.414 -0.2655  0.1171 -0.4755
   38DOPE  H13X 4885   5.294   5.257  14.403 -0.0754  0.3684 -2.0131
   38DOPE  H13Y 4886   5.307   5.413  14.484 -2.0505  0.3962  0.9956
   38DOPE  C314 4887   5.115   5.344  14.491  0.7358 -0.2519 -0.1259
   38DOPE  H14X 4888   5.044   5.292  14.423 -0.9437 -1.9139  2.6518
   38DOPE  H14Y 4889   5.084   5.449  14.510  0.4738  0.1309 -2.3573
   38DOPE  C315 4890   5.115   5.273  14.628  0.4157  0.3288 -0.1248
   38DOPE  H15X 4891   5.032   5.312  14.690 -0.5846 -0.3736 -0.9857
   38DOPE  H15Y 4892   5.212   5.290  14.679  0.2914  0.6542  0.0018
   38DOPE  C316 4893   5.086   5.120  14.614  0.3280 -0.4171  0.7300
   38DOPE  H16X 4894   5.177   5.083  14.562 -0.9690 -2.3829 -0.2682
   38DOPE  H16Y 4895   4.994   5.096  14.556  2.2389 -2.7660 -1.6211
   38DOPE  C317 4896   5.063   5.056  14.752 -0.2997  0.5986  0.6121
   38DOPE  H17X 4897   5.156   5.066  14.813 -0.5058 -1.5627  1.3572
   38DOPE  H17Y 4898   4.984   5.088  14.823 -0.1437  0.2434  0.9436
   38DOPE  C318 4899   5.050   4.904  14.747 -0.3039  0.3193  0.5579
   38DOPE  H18X 4900   5.045   4.854  14.847  0.7959 -1.0814 -0.0462
   38DOPE  H18Y 4901   4.967   4.878  14.678  1.0831 -0.1826 -0.9844
   38DOPE  H18Z 4902   5.140   4.859  14.700 -1.0342 -0.2248 -0.3526
   39DOPE     N 4903   1.573   4.319  13.070 -0.1675  0.1966  0.1908
   39DOPE   HN1 4904   1.659   4.288  13.020 -1.3855 -1.0762 -1.2170
   39DOPE   HN2 4905   1.559   4.414  13.030  0.8852  0.3381  0.1251
   39DOPE   HN3 4906   1.592   4.327  13.172 -0.5298 -1.6271  0.4261
   39DOPE   C12 4907   1.459   4.239  13.030  0.5757  0.1211 -0.5927
   39DOPE  H12A 4908   1.455   4.224  12.920 -1.5550  0.0642 -0.5365
   39DOPE  H12B 4909   1.368   4.291  13.065  0.2232  0.2576 -1.6911
   39DOPE   C11 4910   1.472   4.099  13.103  0.1020 -0.1068  0.3345
   39DOPE  H11A 4911   1.383   4.038  13.076 -1.2032  1.5797  0.6348
   39DOPE  H11B 4912   1.458   4.118  13.212 -0.8931  1.1973  0.0061
   39DOPE     P 4913   1.609   3.925  12.975 -0.0309 -0.2980  0.5168
   39DOPE   O13 4914   1.743   3.936  12.922  0.6302 -1.0829 -0.2570
   39DOPE   O14 4915   1.487   3.921  12.884  0.0878  0.7358  0.3697
   39DOPE   O11 4916   1.617   3.799  13.074 -0.6494  0.0455 -0.2953
   39DOPE   O12 4917   1.596   4.048  13.074  0.1420 -0.2936 -0.0052
   39DOPE    C1 4918   1.496   3.749  13.130 -0.7242  0.4067 -0.1871
   39DOPE    HA 4919   1.503   3.638  13.128  0.9467  0.4917 -0.9332
   39DOPE    HB 4920   1.403   3.776  13.076 -0.6457 -0.6824 -0.9179
   39DOPE    C2 4921   1.469   3.796  13.276 -0.3891  0.0518  0.4762
   39DOPE    HS 4922   1.459   3.907  13.274 -1.0691 -0.0030 -1.6449
   39DOPE   O21 4923   1.586   3.765  13.360 -0.2216 -0.3634  0.7171
   39DOPE   C21 4924   1.602   3.837  13.468  0.1783  0.2317  0.3523
   39DOPE   O22 4925   1.528   3.931  13.497  0.4958 -0.0582 -0.1670
   39DOPE   C22 4926   1.720   3.796  13.558  0.3265 -0.4369  0.6627
   39DOPE   H2R 4927   1.783   3.737  13.488 -0.2093  0.0686 -0.2712
   39DOPE   H2S 4928   1.672   3.739  13.641  0.3356  0.0084  0.9805
   39DOPE    C3 4929   1.342   3.734  13.336  0.8224 -0.3696 -0.1833
   39DOPE    HX 4930   1.365   3.625  13.337 -0.4716 -0.6677  1.4647
   39DOPE    HY 4931   1.252   3.751  13.274 -0.2663  0.4017  1.5432
   39DOPE   O31 4932   1.312   3.774  13.473 -0.3489  0.7640  0.2954
   39DOPE   C31 4933   1.238   3.879  13.491 -0.3554 -0.6284  1.3228
   39DOPE   O32 4934   1.196   3.957  13.404 -0.4753  0.8986  0.2311
   39DOPE   C32 4935   1.212   3.887  13.638  0.7166 -0.4617  0.2471
   39DOPE   H2X 4936   1.313   3.910  13.678  0.1371  1.5328  0.6379
   39DOPE   H2Y 4937   1.160   3.983  13.656 -2.1057 -1.9941  0.8882
   39DOPE   C23 4938   1.803   3.919  13.598  0.5092  0.0284  0.6760
   39DOPE   H3R 4939   1.739   4.003  13.632  0.7523  0.5614 -0.1550
   39DOPE   H3S 4940   1.869   3.954  13.516 -0.5795  0.6592  0.0414
   39DOPE   C24 4941   1.915   3.877  13.694  0.2874  0.8254  0.4419
   39DOPE   H4R 4942   1.864   3.833  13.782  1.7426 -1.5998  0.1485
   39DOPE   H4S 4943   1.976   3.966  13.719 -0.7660  1.5140  0.6503
   39DOPE   C25 4944   2.011   3.772  13.646  0.0962  0.2684  0.3238
   39DOPE   H5R 4945   2.049   3.797  13.545 -0.5082  2.5905  0.6153
   39DOPE   H5S 4946   1.971   3.669  13.653  2.4349 -0.6790  0.8329
   39DOPE   C26 4947   2.146   3.780  13.731  0.4836 -0.5225  0.1558
   39DOPE   H6R 4948   2.198   3.878  13.735  0.9107 -0.7474  0.2085
   39DOPE   H6S 4949   2.209   3.703  13.682  0.0375  0.2213 -1.6631
   39DOPE   C27 4950   2.113   3.741  13.877 -0.2156  0.0402  0.6702
   39DOPE   H7R 4951   2.067   3.641  13.887 -0.9144  0.4184  1.3394
   39DOPE   H7S 4952   2.047   3.819  13.920 -1.3006 -0.4569 -0.0692
   39DOPE   C28 4953   2.244   3.744  13.961  0.8692 -0.4445 -0.2427
   39DOPE   H8R 4954   2.213   3.734  14.067 -0.0925  0.0868 -0.4623
   39DOPE   H8S 4955   2.284   3.845  13.938  1.6106 -0.0746  2.3917
   39DOPE   C29 4956   2.352   3.641  13.932  0.2822  0.5538  0.1662
   39DOPE   H9R 4957   2.389   3.628  13.829  1.6925  2.3438  0.3958
   39DOPE  C210 4958   2.411   3.560  14.025 -0.3056  0.2331  0.0969
   39DOPE  H10R 4959   2.482   3.483  13.990  0.3936  1.2021 -0.6666
   39DOPE  C211 4960   2.370   3.562  14.175  0.0349  0.0549  0.8517
   39DOPE  H11R 4961   2.293   3.484  14.190 -0.7085  1.4168  5.3698
   39DOPE  H11S 4962   2.327   3.661  14.200 -2.5510 -1.1861  1.6824
   39DOPE  C212 4963   2.497   3.529  14.264 -0.2053 -0.9640  0.2979
   39DOPE  H12R 4964   2.559   3.621  14.265  1.2241 -1.6749 -3.7283
   39DOPE  H12S 4965   2.563   3.446  14.231  1.4389  1.1697 -2.1828
   39DOPE  C213 4966   2.452   3.505  14.410  0.3718  0.2127  0.4032
   39DOPE  H13R 4967   2.413   3.401  14.412  1.0823 -0.2036 -2.5458
   39DOPE  H13S 4968   2.371   3.576  14.437 -0.6123 -1.8297  3.2660
   39DOPE  C214 4969   2.565   3.525  14.518  0.1770 -0.1872 -0.0353
   39DOPE  H14R 4970   2.610   3.625  14.499  0.0706 -0.5384 -2.3477
   39DOPE  H14S 4971   2.644   3.451  14.495  0.6173  0.7429 -1.6841
   39DOPE  C215 4972   2.514   3.512  14.662 -0.2424  0.2038  0.1063
   39DOPE  H15R 4973   2.440   3.430  14.673  0.3046 -0.1115  1.6292
   39DOPE  H15S 4974   2.460   3.605  14.691 -1.8343 -0.3942 -0.7863
   39DOPE  C216 4975   2.627   3.497  14.760  1.3634 -1.2919  0.1495
   39DOPE  H16R 4976   2.702   3.579  14.752  0.0229 -0.0727 -0.4454
   39DOPE  H16S 4977   2.677   3.400  14.739  0.0021 -1.8174 -0.8657
   39DOPE  C217 4978   2.575   3.507  14.901  0.4839 -0.1144  0.4050
   39DOPE  H17R 4979   2.498   3.430  14.924 -0.5418  0.7566 -0.0086
   39DOPE  H17S 4980   2.529   3.605  14.925  2.0959  0.4353  1.3750
   39DOPE  C218 4981   2.696   3.490  14.994 -0.0214 -0.4534 -0.2619
   39DOPE  H18R 4982   2.765   3.414  14.951  0.7946  0.7176 -1.0818
   39DOPE  H18S 4983   2.653   3.469  15.094  0.7992  2.9785  0.9604
   39DOPE  H18T 4984   2.754   3.585  14.999 -1.0185  0.1393  3.8828
   39DOPE   C33 4985   1.120   3.772  13.695  0.3526  0.5613 -0.4758
   39DOPE   H3X 4986   1.145   3.684  13.633 -0.2727 -0.8208  1.1391
   39DOPE   H3Y 4987   1.011   3.792  13.691  0.4423  1.2223  0.1046
   39DOPE   C34 4988   1.153   3.745  13.844 -0.3410  0.5644  0.0723
   39DOPE   H4X 4989   1.259   3.725  13.870 -1.4921 -2.0538  3.4940
   39DOPE   H4Y 4990   1.129   3.845  13.888  1.4468  1.2461 -0.4131
   39DOPE   C35 4991   1.073   3.642  13.918  0.3045 -0.0121  0.4539
   39DOPE   H5X 4992   1.054   3.559  13.847 -1.4748  0.1796  0.6519
   39DOPE   H5Y 4993   0.977   3.687  13.952  0.0761 -0.6813  0.7106
   39DOPE   C36 4994   1.151   3.587  14.041  0.1411 -0.1543  0.6124
   39DOPE   H6X 4995   1.191   3.673  14.099 -2.8859  1.1338  0.9718
   39DOPE   H6Y 4996   1.238   3.527  14.007  0.4968  0.0509  1.1425
   39DOPE   C37 4997   1.061   3.498  14.126 -0.2888 -0.4089 -0.0062
   39DOPE   H7X 4998   0.980   3.565  14.160  0.0246  1.3155 -2.4247
   39DOPE   H7Y 4999   1.026   3.412  14.065  1.1097 -1.6019  0.7896
   39DOPE   C38 5000   1.143   3.445  14.250  0.1764  0.2663  0.0573
   39DOPE   H8X 5001   1.078   3.414  14.334  0.3262 -0.2067  0.0023
   39DOPE   H8Y 5002   1.206   3.534  14.274  3.9893 -1.3355 -2.9183
   39DOPE   C39 5003   1.246   3.339  14.213  0.1502 -0.1393  0.0338
   39DOPE   H9X 5004   1.262   3.323  14.105 -1.1111  1.9758 -0.5096
   39DOPE  C310 5005   1.318   3.267  14.298 -0.0744 -0.1313  0.1241
   39DOPE  H10X 5006   1.380   3.187  14.256 -0.7422  0.2464 -1.6725
   39DOPE  C311 5007   1.315   3.277  14.451  0.3902  0.0563  0.1172
   39DOPE  H11X 5008   1.242   3.352  14.488  1.3741  0.0830  2.1667
   39DOPE  H11Y 5009   1.304   3.172  14.485 -0.4546 -0.7304 -2.3506
   39DOPE  C312 5010   1.451   3.330  14.505 -0.1066 -0.4470 -0.3566
   39DOPE  H12X 5011   1.480   3.419  14.445 -1.3956  0.7014  0.6524
   39DOPE  H12Y 5012   1.532   3.256  14.485  2.4863  2.1173 -0.0327
   39DOPE  C313 5013   1.457   3.366  14.650 -0.5544  0.0748 -0.2400
   39DOPE  H13X 5014   1.561   3.360  14.690 -1.6795  0.3655  3.0314
   39DOPE  H13Y 5015   1.426   3.471  14.667 -0.6790 -0.1499  1.0703
   39DOPE  C314 5016   1.377   3.293  14.756 -0.5742  0.8528 -0.1736
   39DOPE  H14X 5017   1.402   3.185  14.757 -0.0940  0.9675  0.6665
   39DOPE  H14Y 5018   1.271   3.291  14.721 -0.1295 -1.1613 -1.5743
   39DOPE  C315 5019   1.395   3.341  14.905 -0.3012 -1.4160  0.4739
   39DOPE  H15X 5020   1.388   3.450  14.925  3.4471 -1.0133  0.2150
   39DOPE  H15Y 5021   1.498   3.319  14.939 -0.4075 -1.1916  0.9470
   39DOPE  C316 5022   1.307   3.281  15.006 -0.4137 -0.1278 -0.0096
   39DOPE  H16X 5023   1.304   3.171  14.988 -0.2503 -0.2291  0.5502
   39DOPE  H16Y 5024   1.204   3.318  14.990 -0.6017 -1.3865 -2.0573
   39DOPE  C317 5025   1.350   3.321  15.151  0.2923  0.9360 -0.4863
   39DOPE  H17X 5026   1.342   3.430  15.173  0.7784  0.5106  2.1161
   39DOPE  H17Y 5027   1.274   3.277  15.219  0.6342  0.4236 -0.4301
   39DOPE  C318 5028   1.489   3.274  15.195 -0.1386 -0.0058 -0.1108
   39DOPE  H18X 5029   1.489   3.251  15.303 -0.8698  0.1016 -0.0802
   39DOPE  H18Y 5030   1.504   3.179  15.139 -1.7038 -0.1317 -0.3665
   39DOPE  H18Z 5031   1.562   3.357  15.185 -0.4827  0.1166 -2.0211
   40DOPE     N 5032   3.387   4.794  12.645  0.2358 -0.0962  0.1531
   40DOPE   HN1 5033   3.345   4.788  12.550  1.1853 -0.1138 -0.2755
   40DOPE   HN2 5034   3.437   4.706  12.668 -0.9693 -0.6120  0.8895
   40DOPE   HN3 5035   3.316   4.806  12.720  0.3560  1.2531  0.0834
   40DOPE   C12 5036   3.481   4.917  12.659  0.5051  0.9385 -0.3557
   40DOPE  H12A 5037   3.435   4.995  12.596  0.4074  2.0353  1.0236
   40DOPE  H12B 5038   3.582   4.888  12.623 -0.0209 -0.5899 -0.6827
   40DOPE   C11 5039   3.497   4.962  12.807 -0.0795 -0.3547 -0.4020
   40DOPE  H11A 5040   3.395   4.998  12.834 -0.6081 -0.3484 -2.2528
   40DOPE  H11B 5041   3.567   5.048  12.818  0.2500 -0.7578  0.7541
   40DOPE     P 5042   3.666   4.828  12.949 -0.2252 -0.0743  0.4447
   40DOPE   O13 5043   3.764   4.825  12.839 -0.1108 -0.2892  0.0313
   40DOPE   O14 5044   3.667   4.708  13.040 -0.0941 -0.5150  0.2056
   40DOPE   O11 5045   3.681   4.958  13.037 -0.4424  0.7065  0.2479
   40DOPE   O12 5046   3.528   4.850  12.892  0.3192 -0.0550 -0.6342
   40DOPE    C1 5047   3.583   4.998  13.136  0.2955 -0.0885 -0.2041
   40DOPE    HA 5048   3.605   4.954  13.236  1.8060  0.1317 -0.4135
   40DOPE    HB 5049   3.484   4.962  13.100  0.9130  1.1665 -3.5636
   40DOPE    C2 5050   3.580   5.153  13.156 -0.4258  0.5653  0.2883
   40DOPE    HS 5051   3.586   5.204  13.057 -1.1560  2.2528  1.0792
   40DOPE   O21 5052   3.693   5.174  13.239 -0.0004  0.2446 -0.0791
   40DOPE   C21 5053   3.731   5.301  13.235 -0.4854  0.4637  0.2259
   40DOPE   O22 5054   3.675   5.390  13.171  0.8746  0.4225 -0.8039
   40DOPE   C22 5055   3.850   5.332  13.325 -0.3067 -0.3831  0.2597
   40DOPE   H2R 5056   3.897   5.426  13.289  0.0434  0.7291  3.3144
   40DOPE   H2S 5057   3.927   5.253  13.305 -0.0048 -0.0333  0.0327
   40DOPE    C3 5058   3.440   5.193  13.216  0.7356 -0.0834 -0.4495
   40DOPE    HX 5059   3.367   5.150  13.145  0.1591 -2.4102  1.4044
   40DOPE    HY 5060   3.424   5.303  13.224  0.1684 -0.2498  1.3493
   40DOPE   O31 5061   3.407   5.129  13.346  0.5162  0.4398 -0.0735
   40DOPE   C31 5062   3.364   5.203  13.445  0.6081  0.3652  0.4099
   40DOPE   O32 5063   3.342   5.318  13.443 -0.1425 -0.3470  0.6634
   40DOPE   C32 5064   3.343   5.106  13.565 -0.5165  0.1047  0.7423
   40DOPE   H2X 5065   3.265   5.034  13.531  0.8101 -1.8741  1.7069
   40DOPE   H2Y 5066   3.443   5.059  13.580 -0.6011  0.1327  1.4566
   40DOPE   C23 5067   3.814   5.350  13.478  0.1470 -0.4614 -0.2810
   40DOPE   H3R 5068   3.778   5.257  13.527  1.2123 -0.3634  0.7388
   40DOPE   H3S 5069   3.733   5.425  13.487 -0.7333 -1.3216 -0.8037
   40DOPE   C24 5070   3.936   5.401  13.554  0.0932 -0.2281  0.8599
   40DOPE   H4R 5071   3.961   5.495  13.500 -2.4014  0.0213  0.0036
   40DOPE   H4S 5072   4.015   5.329  13.526 -2.3639 -1.4757 -3.9279
   40DOPE   C25 5073   3.907   5.390  13.700  0.0721 -0.6961 -0.0014
   40DOPE   H5R 5074   4.005   5.400  13.751  0.3780  1.1967 -0.8563
   40DOPE   H5S 5075   3.877   5.286  13.724 -1.2457 -0.9207 -2.3134
   40DOPE   C26 5076   3.815   5.492  13.757 -0.2114  0.3959 -0.0828
   40DOPE   H6R 5077   3.784   5.465  13.860 -0.8132 -0.0931 -0.3897
   40DOPE   H6S 5078   3.724   5.501  13.694 -0.0028 -0.5390 -0.5343
   40DOPE   C27 5079   3.880   5.630  13.769 -0.3787 -0.0957 -0.0360
   40DOPE   H7R 5080   3.906   5.664  13.666  1.9949 -0.4358  0.4089
   40DOPE   H7S 5081   3.972   5.610  13.827 -0.5438  0.5580  0.4719
   40DOPE   C28 5082   3.796   5.731  13.847  0.2622 -0.7857  0.1631
   40DOPE   H8R 5083   3.773   5.702  13.952 -2.0131 -0.8837 -0.2984
   40DOPE   H8S 5084   3.698   5.733  13.794 -0.4439  0.5716  1.4137
   40DOPE   C29 5085   3.854   5.871  13.833 -0.7538  0.4613 -0.3182
   40DOPE   H9R 5086   3.899   5.880  13.733  2.0225  0.0887  0.7993
   40DOPE  C210 5087   3.866   5.968  13.921  0.0910  0.0348 -0.9721
   40DOPE  H10R 5088   3.922   6.060  13.901 -1.9878  1.3286 -1.0790
   40DOPE  C211 5089   3.820   5.964  14.061 -0.0394  0.2615 -0.3355
   40DOPE  H11R 5090   3.901   5.953  14.137 -0.4635  0.3579  0.1341
   40DOPE  H11S 5091   3.756   5.876  14.084  0.0240  0.0866 -0.8000
   40DOPE  C212 5092   3.745   6.093  14.086 -0.1764 -0.1493 -0.1017
   40DOPE  H12R 5093   3.658   6.108  14.017 -0.8415  0.6962  0.8951
   40DOPE  H12S 5094   3.812   6.180  14.072  0.1850 -0.5631 -1.0372
   40DOPE  C213 5095   3.691   6.108  14.225  0.4315 -0.1755  0.1254
   40DOPE  H13R 5096   3.768   6.153  14.291 -0.3603  0.4775  0.6220
   40DOPE  H13S 5097   3.662   6.007  14.260 -2.8247  1.2084  1.8498
   40DOPE  C214 5098   3.567   6.191  14.246  0.2426 -0.4424  0.6505
   40DOPE  H14R 5099   3.481   6.149  14.190  1.7757 -1.3771 -1.1308
   40DOPE  H14S 5100   3.574   6.289  14.195  0.6395 -0.6623  0.2703
   40DOPE  C215 5101   3.538   6.206  14.397  0.1789 -0.0574 -0.2039
   40DOPE  H15R 5102   3.595   6.293  14.437 -1.0947  1.3322 -1.2878
   40DOPE  H15S 5103   3.572   6.118  14.456 -0.0741  0.1887  0.3226
   40DOPE  C216 5104   3.390   6.227  14.423  0.6767 -0.0855 -0.2720
   40DOPE  H16R 5105   3.369   6.247  14.530 -0.9456  2.6415 -0.9766
   40DOPE  H16S 5106   3.329   6.140  14.391 -1.0310  1.0278 -0.2073
   40DOPE  C217 5107   3.342   6.358  14.350 -0.8003  0.6411  0.0743
   40DOPE  H17R 5108   3.344   6.333  14.242  1.1292 -1.1922  0.4778
   40DOPE  H17S 5109   3.404   6.448  14.372 -0.8506  0.9789 -1.1347
   40DOPE  C218 5110   3.198   6.379  14.385 -0.6662  0.2457 -0.6437
   40DOPE  H18R 5111   3.137   6.287  14.370 -2.0118  0.5711  2.1491
   40DOPE  H18S 5112   3.149   6.456  14.323  1.4308  0.4076 -2.1778
   40DOPE  H18T 5113   3.190   6.412  14.491  1.6061 -1.7485  0.2414
   40DOPE   C33 5114   3.284   5.182  13.687  0.1429 -0.6695 -0.6640
   40DOPE   H3X 5115   3.220   5.120  13.753 -0.2492  1.5705  1.1956
   40DOPE   H3Y 5116   3.213   5.257  13.644 -2.6488 -2.1087  1.1678
   40DOPE   C34 5117   3.383   5.261  13.768  0.5310 -0.3524 -0.0325
   40DOPE   H4X 5118   3.449   5.314  13.695 -0.1421 -0.5973 -0.8355
   40DOPE   H4Y 5119   3.333   5.337  13.832  2.4391  2.3980 -1.5626
   40DOPE   C35 5120   3.458   5.174  13.865 -0.2479 -0.0300 -0.0345
   40DOPE   H5X 5121   3.504   5.085  13.817  1.4147  0.8000 -0.0381
   40DOPE   H5Y 5122   3.384   5.141  13.941 -1.8232  1.1823 -0.9730
   40DOPE   C36 5123   3.578   5.254  13.920  0.1888  0.5796 -0.3733
   40DOPE   H6X 5124   3.550   5.347  13.972 -0.9223 -0.3280  0.7165
   40DOPE   H6Y 5125   3.632   5.283  13.828 -1.5409  0.5658 -1.4476
   40DOPE   C37 5126   3.671   5.168  14.021  0.4409 -0.8716  0.1752
   40DOPE   H7X 5127   3.718   5.084  13.965 -1.1594 -0.9880 -1.0975
   40DOPE   H7Y 5128   3.751   5.242  14.040 -1.1026  1.3145 -1.2601
   40DOPE   C38 5129   3.617   5.124  14.156 -0.1385 -0.0102  0.0619
   40DOPE   H8X 5130   3.695   5.053  14.193  0.5505  0.9022  0.3954
   40DOPE   H8Y 5131   3.524   5.068  14.131  2.0908 -2.9005 -2.6907
   40DOPE   C39 5132   3.585   5.236  14.252  0.3308 -1.0218 -0.2450
   40DOPE   H9X 5133   3.518   5.308  14.203  1.0364  0.8075  1.3534
   40DOPE  C310 5134   3.639   5.260  14.381  0.2817 -0.5646  0.6826
   40DOPE  H10X 5135   3.620   5.355  14.432 -0.9428  0.4031 -1.4486
   40DOPE  C311 5136   3.740   5.173  14.449 -0.3644 -0.2950  0.0073
   40DOPE  H11X 5137   3.746   5.071  14.405 -1.4880  0.2619 -1.5295
   40DOPE  H11Y 5138   3.840   5.211  14.419  0.2490 -2.6844 -1.1995
   40DOPE  C312 5139   3.723   5.190  14.607  0.2698  0.0637  0.0977
   40DOPE  H12X 5140   3.799   5.126  14.657  2.2331  3.3950  1.6784
   40DOPE  H12Y 5141   3.621   5.150  14.625  0.0156  0.9388  0.6693
   40DOPE  C313 5142   3.752   5.330  14.669  0.4278  0.0668  0.0203
   40DOPE  H13X 5143   3.674   5.400  14.632 -0.8547 -1.3553 -0.0495
   40DOPE  H13Y 5144   3.726   5.310  14.775  3.0336 -0.3062  0.6735
   40DOPE  C314 5145   3.893   5.382  14.636  0.6986 -0.0647 -0.4548
   40DOPE  H14X 5146   3.933   5.466  14.697  0.5981 -1.1243  1.1117
   40DOPE  H14Y 5147   3.913   5.389  14.527  2.5715 -3.0772 -0.4163
   40DOPE  C315 5148   4.010   5.278  14.663 -0.3665 -0.0083  0.3101
   40DOPE  H15X 5149   3.998   5.188  14.599  0.1519 -1.1091  1.7082
   40DOPE  H15Y 5150   3.997   5.255  14.771 -1.1151 -1.3889 -0.0406
   40DOPE  C316 5151   4.142   5.346  14.627 -0.4439  0.3829  0.4469
   40DOPE  H16X 5152   4.165   5.408  14.716 -1.1884 -2.3851  2.7024
   40DOPE  H16Y 5153   4.133   5.404  14.533  0.2026 -0.9005 -0.4473
   40DOPE  C317 5154   4.271   5.258  14.599  0.8885  0.0911 -0.6143
   40DOPE  H17X 5155   4.265   5.165  14.659 -0.5376 -0.6506 -1.8528
   40DOPE  H17Y 5156   4.271   5.220  14.495 -1.1163 -2.1364  0.1173
   40DOPE  C318 5157   4.402   5.334  14.627 -0.2592  1.0314  0.5645
   40DOPE  H18X 5158   4.421   5.400  14.540 -1.2692 -0.4732 -0.8519
   40DOPE  H18Y 5159   4.404   5.381  14.728 -1.4915 -0.7024  1.4435
   40DOPE  H18Z 5160   4.480   5.254  14.630 -1.3850 -0.2721 -2.1010
   41DOPE     N 5161   1.861   5.254  13.188  0.0527  0.3131 -0.2472
   41DOPE   HN1 5162   1.947   5.312  13.192 -0.3045  0.7713  2.1819
   41DOPE   HN2 5163   1.799   5.259  13.272  0.6275 -3.6465  0.6119
   41DOPE   HN3 5164   1.892   5.156  13.204 -1.8142 -0.3481 -0.3873
   41DOPE   C12 5165   1.776   5.297  13.069 -0.1992  0.1922 -0.4462
   41DOPE  H12A 5166   1.827   5.257  12.978 -0.5209 -1.8993  0.2411
   41DOPE  H12B 5167   1.764   5.407  13.058 -1.0487  0.0658 -0.8773
   41DOPE   C11 5168   1.632   5.231  13.070 -0.0749 -0.1732  0.1951
   41DOPE  H11A 5169   1.586   5.227  12.969  1.0667 -0.2910 -0.3390
   41DOPE  H11B 5170   1.564   5.297  13.129 -0.0956 -0.1802  0.1785
   41DOPE     P 5171   1.685   4.973  13.056  0.2976  0.0856 -0.4619
   41DOPE   O13 5172   1.828   4.962  13.036  0.3320  0.2083 -0.1548
   41DOPE   O14 5173   1.601   4.955  12.935 -0.8265  0.5490 -0.2169
   41DOPE   O11 5174   1.638   4.856  13.156  0.2976  0.0483  0.3318
   41DOPE   O12 5175   1.644   5.105  13.130 -0.1529 -0.0524 -0.7599
   41DOPE    C1 5176   1.585   4.890  13.287 -0.1709 -0.5026 -0.1340
   41DOPE    HA 5177   1.550   4.801  13.344  2.4649 -1.2713  0.3928
   41DOPE    HB 5178   1.497   4.958  13.276  1.1576  1.2329 -0.4217
   41DOPE    C2 5179   1.682   4.952  13.393  0.8170  0.1222 -0.2310
   41DOPE    HS 5180   1.735   5.044  13.361  2.9507 -1.1943 -0.6810
   41DOPE   O21 5181   1.790   4.855  13.415  0.1819 -0.4512 -0.4383
   41DOPE   C21 5182   1.891   4.887  13.494 -0.7093  0.4959 -0.2407
   41DOPE   O22 5183   1.909   4.997  13.545  0.2957 -0.2131 -0.2601
   41DOPE   C22 5184   1.976   4.760  13.532  0.0458 -0.0423 -0.5854
   41DOPE   H2R 5185   2.055   4.741  13.457  2.1845  1.2123  1.1934
   41DOPE   H2S 5186   1.922   4.664  13.548 -0.3126  0.0573 -1.1786
   41DOPE    C3 5187   1.602   4.991  13.523 -0.0939  0.3713  0.3140
   41DOPE    HX 5188   1.541   5.083  13.509  0.3355  0.7093  0.6494
   41DOPE    HY 5189   1.666   5.018  13.610 -1.8072  0.2050  1.6856
   41DOPE   O31 5190   1.513   4.888  13.563  0.4592 -0.1528 -0.2256
   41DOPE   C31 5191   1.550   4.798  13.655 -0.2857  0.0425  0.5486
   41DOPE   O32 5192   1.665   4.786  13.699 -0.1941 -0.2525  0.8636
   41DOPE   C32 5193   1.427   4.714  13.698 -0.0326  0.2140  0.8565
   41DOPE   H2X 5194   1.342   4.782  13.677  1.0449  1.7921  1.3985
   41DOPE   H2Y 5195   1.418   4.627  13.630 -1.3718 -0.2764  1.6134
   41DOPE   C23 5196   2.054   4.778  13.667  0.0046 -0.5623 -0.5232
   41DOPE   H3R 5197   1.989   4.823  13.745  2.3557 -1.4699  2.1416
   41DOPE   H3S 5198   2.132   4.856  13.652  0.1653 -0.0781  2.2423
   41DOPE   C24 5199   2.109   4.643  13.722  0.3377 -0.4148 -0.4255
   41DOPE   H4R 5200   2.189   4.613  13.651  0.4148 -0.0761 -0.4842
   41DOPE   H4S 5201   2.031   4.565  13.716 -0.1336 -0.0625  0.8509
   41DOPE   C25 5202   2.165   4.650  13.870  0.2870  0.0773  0.8492
   41DOPE   H5R 5203   2.217   4.556  13.901 -0.2720 -0.1607  1.0886
   41DOPE   H5S 5204   2.080   4.662  13.942 -1.4813  1.0284 -1.2784
   41DOPE   C26 5205   2.265   4.759  13.887  0.2660 -0.5832 -1.1531
   41DOPE   H6R 5206   2.215   4.857  13.899  1.5019  0.0028 -0.5745
   41DOPE   H6S 5207   2.322   4.780  13.794  0.9551 -0.0008 -0.6114
   41DOPE   C27 5208   2.370   4.730  13.990 -0.4213 -0.0026 -0.0111
   41DOPE   H7R 5209   2.433   4.647  13.951 -0.5482 -0.1123  0.0164
   41DOPE   H7S 5210   2.312   4.700  14.080 -0.2975  1.4587  0.5845
   41DOPE   C28 5211   2.466   4.849  14.014 -0.0856 -1.0286 -0.2743
   41DOPE   H8R 5212   2.400   4.938  14.010  0.2793 -0.6829  0.9346
   41DOPE   H8S 5213   2.534   4.870  13.929  0.7907  4.5583  1.3866
   41DOPE   C29 5214   2.564   4.818  14.129  0.7231 -0.5115  0.4595
   41DOPE   H9R 5215   2.642   4.746  14.102  0.1320 -0.8250 -0.4483
   41DOPE  C210 5216   2.556   4.865  14.252  0.0784 -0.1854 -0.4945
   41DOPE  H10R 5217   2.623   4.820  14.327 -0.4639 -0.1434  0.0281
   41DOPE  C211 5218   2.448   4.959  14.291 -0.3880 -0.8332 -0.3142
   41DOPE  H11R 5219   2.348   4.955  14.243 -0.7488  0.3592  0.2990
   41DOPE  H11S 5220   2.484   5.063  14.280  1.0761 -1.4918 -2.1155
   41DOPE  C212 5221   2.410   4.945  14.447 -0.1876 -0.7197  0.5123
   41DOPE  H12R 5222   2.365   5.045  14.466 -0.0729 -0.4849 -0.4130
   41DOPE  H12S 5223   2.504   4.949  14.506  0.4207  1.9158 -0.5252
   41DOPE  C213 5224   2.326   4.824  14.483 -0.5964  0.1949  1.1839
   41DOPE  H13R 5225   2.381   4.730  14.462 -3.3097 -1.8071  2.3635
   41DOPE  H13S 5226   2.231   4.810  14.427 -0.9143  0.0694  1.7437
   41DOPE  C214 5227   2.285   4.840  14.633 -0.2376 -0.4248  0.0312
   41DOPE  H14R 5228   2.372   4.859  14.698 -1.0815 -1.5170  1.5255
   41DOPE  H14S 5229   2.242   4.743  14.666 -0.6979 -0.9319 -1.9028
   41DOPE  C215 5230   2.181   4.953  14.670  0.0874  0.7287  0.7633
   41DOPE  H15R 5231   2.097   4.943  14.598 -1.0298  1.4560  1.9179
   41DOPE  H15S 5232   2.228   5.050  14.645  0.5623  0.6892  1.4798
   41DOPE  C216 5233   2.131   4.956  14.816 -0.1518  0.5837  0.2739
   41DOPE  H16R 5234   2.040   4.895  14.830  0.5543 -0.1526  1.8745
   41DOPE  H16S 5235   2.096   5.061  14.829 -4.9103 -0.6893 -0.4388
   41DOPE  C217 5236   2.245   4.931  14.919  0.8188  0.0239 -0.3735
   41DOPE  H17R 5237   2.335   4.995  14.906  0.8578  0.6504  2.3580
   41DOPE  H17S 5238   2.287   4.829  14.901  1.4044  0.3397 -0.8716
   41DOPE  C218 5239   2.211   4.951  15.062  0.5256  0.0303 -0.0502
   41DOPE  H18R 5240   2.187   5.057  15.084  0.1440  0.3743 -1.9395
   41DOPE  H18S 5241   2.294   4.924  15.131  0.6531  3.3621  1.2739
   41DOPE  H18T 5242   2.117   4.896  15.080 -1.3492  2.6920 -1.0896
   41DOPE   C33 5243   1.422   4.677  13.847  0.0528 -0.2056  0.0521
   41DOPE   H3X 5244   1.474   4.751  13.911 -0.6062 -0.9592  1.5219
   41DOPE   H3Y 5245   1.472   4.578  13.850 -1.9894 -1.2630  2.0648
   41DOPE   C34 5246   1.268   4.679  13.891  0.5710 -0.3321  0.7514
   41DOPE   H4X 5247   1.260   4.771  13.952  1.8976  0.1430  0.2509
   41DOPE   H4Y 5248   1.207   4.674  13.798  1.0810  1.1326  0.3013
   41DOPE   C35 5249   1.232   4.560  13.974  0.2192  0.1059  0.5004
   41DOPE   H5X 5250   1.259   4.470  13.914  1.9791  0.6559  0.4108
   41DOPE   H5Y 5251   1.125   4.565  14.004  0.2816 -2.1019  1.3051
   41DOPE   C36 5252   1.319   4.548  14.108  0.3352  0.1776 -0.1907
   41DOPE   H6X 5253   1.328   4.646  14.161 -0.7386 -0.4503  1.2037
   41DOPE   H6Y 5254   1.423   4.516  14.087 -0.2486 -1.3583 -0.8840
   41DOPE   C37 5255   1.258   4.434  14.196 -0.1923 -0.5084  0.2876
   41DOPE   H7X 5256   1.147   4.428  14.201 -0.2539 -1.2747 -1.3459
   41DOPE   H7Y 5257   1.288   4.335  14.155  0.8351 -0.7271  1.5331
   41DOPE   C38 5258   1.304   4.450  14.338  0.3318  0.0225  0.1714
   41DOPE   H8X 5259   1.258   4.536  14.390 -1.3527 -1.1906  0.7892
   41DOPE   H8Y 5260   1.410   4.483  14.330  0.6940 -1.1186  0.0614
   41DOPE   C39 5261   1.286   4.332  14.433  0.3215  0.9031  0.1654
   41DOPE   H9X 5262   1.182   4.297  14.445  0.7898 -0.9016 -0.7321
   41DOPE  C310 5263   1.389   4.269  14.492  0.3034  0.2691 -0.9978
   41DOPE  H10X 5264   1.366   4.182  14.555 -0.3259  1.0000 -0.1902
   41DOPE  C311 5265   1.535   4.312  14.478 -0.5113  0.2046 -0.6218
   41DOPE  H11X 5266   1.548   4.418  14.447 -3.8725  0.6823 -0.8285
   41DOPE  H11Y 5267   1.587   4.300  14.574 -2.2848  1.0126  0.4986
   41DOPE  C312 5268   1.615   4.228  14.376  0.0595  0.1588  0.1349
   41DOPE  H12X 5269   1.714   4.271  14.352 -0.7544  1.7836 -0.5050
   41DOPE  H12Y 5270   1.556   4.221  14.281 -1.9659 -1.2980  1.4066
   41DOPE  C313 5271   1.650   4.079  14.422 -0.0667 -0.1200  0.7196
   41DOPE  H13X 5272   1.706   4.084  14.518  2.5964 -1.4315 -0.6672
   41DOPE  H13Y 5273   1.551   4.030  14.436 -0.2843 -0.0947 -0.5900
   41DOPE  C314 5274   1.739   4.000  14.317  0.8760  0.3960  0.3519
   41DOPE  H14X 5275   1.687   3.994  14.219  1.2415 -2.5825  0.2513
   41DOPE  H14Y 5276   1.745   3.899  14.363 -0.1219  1.1415  2.2244
   41DOPE  C315 5277   1.877   4.055  14.286  0.4243 -0.9741 -0.6124
   41DOPE  H15X 5278   1.858   4.159  14.254 -1.2776 -1.1960 -0.4291
   41DOPE  H15Y 5279   1.925   4.000  14.203  0.2878 -1.4636 -0.3734
   41DOPE  C316 5280   1.984   4.039  14.401  0.3199 -0.9336 -0.0319
   41DOPE  H16X 5281   1.947   4.069  14.501 -0.5150  0.6146 -0.7758
   41DOPE  H16Y 5282   2.066   4.108  14.370 -0.9597  0.4519 -0.4539
   41DOPE  C317 5283   2.054   3.901  14.414 -0.4196 -0.2186 -0.8810
   41DOPE  H17X 5284   1.990   3.814  14.438 -0.3633  0.1460  0.7165
   41DOPE  H17Y 5285   2.102   3.883  14.315  0.6660  2.3522 -0.9018
   41DOPE  C318 5286   2.157   3.909  14.525 -0.2666  0.1003 -0.0374
   41DOPE  H18X 5287   2.234   3.985  14.502  0.8096 -0.6587  0.9688
   41DOPE  H18Y 5288   2.113   3.932  14.624  1.4547 -0.2341  0.8380
   41DOPE  H18Z 5289   2.205   3.808  14.531 -1.7758 -0.6906 -0.6720
   42DOPE     N 5290   0.658   4.658  12.845 -0.1119  0.4709 -0.3411
   42DOPE   HN1 5291   0.660   4.659  12.949 -0.7496  0.6171 -0.3257
   42DOPE   HN2 5292   0.756   4.685  12.823  0.6010 -1.5999  0.0308
   42DOPE   HN3 5293   0.586   4.723  12.809 -0.4561 -0.1924 -0.8813
   42DOPE   C12 5294   0.638   4.521  12.778  0.9522 -0.6474 -0.7474
   42DOPE  H12A 5295   0.608   4.548  12.675  1.6035 -1.7979 -1.2617
   42DOPE  H12B 5296   0.551   4.468  12.822  1.2419 -1.0620 -0.6638
   42DOPE   C11 5297   0.759   4.426  12.781 -0.4836 -0.3033 -0.2594
   42DOPE  H11A 5298   0.835   4.469  12.713  1.2259 -1.4733  0.8272
   42DOPE  H11B 5299   0.740   4.330  12.728 -2.7129  0.9029 -1.8162
   42DOPE     P 5300   0.843   4.298  12.990  0.4035  0.1039 -0.4762
   42DOPE   O13 5301   0.918   4.208  12.902  0.4961  0.0551 -0.1313
   42DOPE   O14 5302   0.715   4.239  13.032  0.0334 -0.0109  0.2681
   42DOPE   O11 5303   0.926   4.334  13.119  0.1686  0.0648  0.0541
   42DOPE   O12 5304   0.814   4.431  12.912 -0.0161 -0.0937 -0.3314
   42DOPE    C1 5305   0.985   4.468  13.129  0.9379 -0.5791  0.4201
   42DOPE    HA 5306   0.930   4.531  13.202 -1.4734 -1.3770 -0.6001
   42DOPE    HB 5307   0.985   4.527  13.035 -1.4426  2.3195  2.0460
   42DOPE    C2 5308   1.129   4.462  13.182  0.3815 -0.6068 -0.7324
   42DOPE    HS 5309   1.175   4.374  13.132  2.6049  1.1013 -1.8727
   42DOPE   O21 5310   1.107   4.434  13.322 -0.1196 -1.0668  0.3817
   42DOPE   C21 5311   1.211   4.387  13.386 -0.1606 -0.8915 -0.0954
   42DOPE   O22 5312   1.318   4.353  13.333  0.4865 -0.0947 -0.1956
   42DOPE   C22 5313   1.177   4.375  13.534 -0.0312 -0.0406 -0.1652
   42DOPE   H2R 5314   1.120   4.281  13.549  1.9024 -1.3048 -0.4762
   42DOPE   H2S 5315   1.113   4.461  13.562 -1.4511 -0.7194 -1.1714
   42DOPE    C3 5316   1.223   4.581  13.155  0.3870 -0.2624  0.7023
   42DOPE    HX 5317   1.244   4.590  13.046 -3.0373  1.2291  0.0300
   42DOPE    HY 5318   1.321   4.561  13.203 -0.1001 -0.2213  1.7234
   42DOPE   O31 5319   1.177   4.708  13.203  0.3453  0.2045 -0.7505
   42DOPE   C31 5320   1.221   4.745  13.322 -0.3269 -0.0750  0.8815
   42DOPE   O32 5321   1.298   4.680  13.390  0.1251 -0.3169  0.8860
   42DOPE   C32 5322   1.150   4.876  13.372  0.6413 -0.2398 -0.1821
   42DOPE   H2X 5323   1.230   4.946  13.405  1.0106  0.2672 -2.0502
   42DOPE   H2Y 5324   1.100   4.922  13.284 -0.7392  2.6975  1.9857
   42DOPE   C23 5325   1.311   4.380  13.613 -0.1804  0.1348 -0.7505
   42DOPE   H3R 5326   1.301   4.469  13.677 -0.3447 -1.2538  1.2448
   42DOPE   H3S 5327   1.394   4.405  13.544 -1.9728 -2.2748 -4.1053
   42DOPE   C24 5328   1.341   4.252  13.697  0.2242  0.1370 -0.7935
   42DOPE   H4R 5329   1.367   4.171  13.626 -3.1834 -1.1370 -0.7748
   42DOPE   H4S 5330   1.268   4.224  13.776  0.1999 -1.9145 -1.4807
   42DOPE   C25 5331   1.477   4.285  13.766 -0.7448  0.7719 -0.2107
   42DOPE   H5R 5332   1.448   4.364  13.839 -1.2565  0.3562  0.0407
   42DOPE   H5S 5333   1.544   4.335  13.692 -2.3485 -2.2003 -4.0312
   42DOPE   C26 5334   1.531   4.166  13.840  0.5478 -0.0490 -0.9090
   42DOPE   H6R 5335   1.589   4.088  13.785  0.7389 -1.3031  0.9722
   42DOPE   H6S 5336   1.444   4.116  13.887  0.7780 -0.3596 -0.8093
   42DOPE   C27 5337   1.638   4.202  13.951 -0.1733 -0.9824 -0.0970
   42DOPE   H7R 5338   1.663   4.115  14.015  1.2678 -0.9689 -0.6007
   42DOPE   H7S 5339   1.587   4.269  14.023  1.4122  0.0157  0.1620
   42DOPE   C28 5340   1.773   4.258  13.898 -0.0483  0.2521  0.2776
   42DOPE   H8R 5341   1.808   4.205  13.807 -1.5587 -2.8777  1.3734
   42DOPE   H8S 5342   1.851   4.245  13.976  1.7255  2.1038 -1.0754
   42DOPE   C29 5343   1.781   4.412  13.871 -0.0726  0.2224 -0.3463
   42DOPE   H9R 5344   1.748   4.447  13.772 -0.9957  2.3980  0.6714
   42DOPE  C210 5345   1.827   4.505  13.952 -0.2666 -0.4782 -0.6230
   42DOPE  H10R 5346   1.831   4.607  13.910 -1.4194  0.0545  0.5180
   42DOPE  C211 5347   1.877   4.488  14.095  0.0118  0.5556  0.5630
   42DOPE  H11R 5348   1.987   4.499  14.107 -0.0239  1.8336 -0.1012
   42DOPE  H11S 5349   1.840   4.398  14.148  0.2919  0.3294  0.3755
   42DOPE  C212 5350   1.811   4.601  14.184  0.4011  0.5886 -0.6303
   42DOPE  H12R 5351   1.700   4.603  14.190  0.4570  0.7466  0.7217
   42DOPE  H12S 5352   1.837   4.697  14.136  1.7332  1.1995  1.1985
   42DOPE  C213 5353   1.871   4.611  14.329 -0.6532 -0.2321  0.2796
   42DOPE  H13R 5354   1.963   4.674  14.328  1.3752 -2.9591  0.6146
   42DOPE  H13S 5355   1.903   4.513  14.372  2.7533 -0.1336 -1.6125
   42DOPE  C214 5356   1.773   4.689  14.414 -0.2982 -0.1455 -0.8224
   42DOPE  H14R 5357   1.673   4.640  14.412 -1.1355  1.4388 -0.0373
   42DOPE  H14S 5358   1.765   4.785  14.360  0.8241  0.0902 -0.5822
   42DOPE  C215 5359   1.804   4.730  14.558 -0.7493  0.1915  0.3717
   42DOPE  H15R 5360   1.912   4.756  14.563 -0.5473 -0.7587  1.5062
   42DOPE  H15S 5361   1.806   4.632  14.612  0.4886  0.8226  1.5312
   42DOPE  C216 5362   1.708   4.829  14.624 -0.1570 -0.4360  0.7851
   42DOPE  H16R 5363   1.610   4.777  14.626 -0.8882  0.8800  0.6418
   42DOPE  H16S 5364   1.700   4.925  14.569  0.1572 -0.2802  1.0053
   42DOPE  C217 5365   1.750   4.869  14.765 -0.0548  0.2367  0.0686
   42DOPE  H17R 5366   1.849   4.919  14.758 -0.4942  1.0324 -0.6341
   42DOPE  H17S 5367   1.762   4.777  14.826  4.1427  0.2897 -0.3993
   42DOPE  C218 5368   1.645   4.968  14.831 -0.1650  0.2036  0.5214
   42DOPE  H18R 5369   1.690   5.012  14.923 -0.3920  0.6871  0.4033
   42DOPE  H18S 5370   1.548   4.920  14.854 -0.3402 -1.7052 -3.3460
   42DOPE  H18T 5371   1.628   5.056  14.766 -0.8998  0.4803  1.0697
   42DOPE   C33 5372   1.049   4.847  13.485 -0.5185 -0.2596 -0.0789
   42DOPE   H3X 5373   1.006   4.947  13.505 -2.6524 -0.8918 -1.2449
   42DOPE   H3Y 5374   1.103   4.822  13.579 -1.1860  1.2018  0.7193
   42DOPE   C34 5375   0.933   4.755  13.447  0.2146 -0.4265  0.8209
   42DOPE   H4X 5376   0.895   4.776  13.344  0.7727 -2.6931  0.0824
   42DOPE   H4Y 5377   0.969   4.651  13.430  2.7143  0.8458 -2.8190
   42DOPE   C35 5378   0.822   4.757  13.553 -0.5482 -0.6191  0.1605
   42DOPE   H5X 5379   0.738   4.722  13.490  1.0656 -2.5096 -1.0682
   42DOPE   H5Y 5380   0.800   4.865  13.569  0.5878 -0.0081 -1.9859
   42DOPE   C36 5381   0.813   4.661  13.675 -0.4409 -0.6143  0.5281
   42DOPE   H6X 5382   0.718   4.689  13.725 -0.9391 -0.8821 -0.2538
   42DOPE   H6Y 5383   0.893   4.685  13.748 -1.6320  0.2934  1.5733
   42DOPE   C37 5384   0.812   4.508  13.645  0.5345 -0.6170 -0.4538
   42DOPE   H7X 5385   0.718   4.473  13.598 -0.7231  1.6217  0.2492
   42DOPE   H7Y 5386   0.894   4.492  13.571  2.3334  0.3395  1.2145
   42DOPE   C38 5387   0.828   4.423  13.767  0.6990 -0.7992 -0.5846
   42DOPE   H8X 5388   0.749   4.446  13.842  2.3852  0.0764  1.0121
   42DOPE   H8Y 5389   0.927   4.448  13.811  0.5609 -1.5449  0.1656
   42DOPE   C39 5390   0.815   4.279  13.734 -0.0251 -0.8370  0.2595
   42DOPE   H9X 5391   0.758   4.253  13.643 -0.7882 -1.3200  0.8674
   42DOPE  C310 5392   0.878   4.176  13.791  0.2153 -0.0413 -0.7744
   42DOPE  H10X 5393   0.873   4.072  13.755  3.4580 -0.7018  0.3044
   42DOPE  C311 5394   0.964   4.195  13.907  0.5891 -0.5551  0.7412
   42DOPE  H11X 5395   1.072   4.193  13.881  0.3640 -1.1496 -0.1851
   42DOPE  H11Y 5396   0.948   4.292  13.959 -1.8377  0.1809 -1.1739
   42DOPE  C312 5397   0.942   4.077  13.994 -0.3380  0.3046 -0.4213
   42DOPE  H12X 5398   0.918   3.976  13.953  0.4937 -0.3602  0.6698
   42DOPE  H12Y 5399   0.859   4.108  14.061  0.3887 -0.0753  0.6671
   42DOPE  C313 5400   1.058   4.058  14.088  0.2626 -0.3457  0.6553
   42DOPE  H13X 5401   1.143   4.023  14.025  0.5354  0.9656  0.2765
   42DOPE  H13Y 5402   1.089   4.156  14.130  0.2824 -0.7179  1.5313
   42DOPE  C314 5403   1.026   3.952  14.197 -0.5597 -0.4386 -0.0551
   42DOPE  H14X 5404   1.015   3.861  14.134 -2.3158  0.1643 -0.6904
   42DOPE  H14Y 5405   0.928   3.975  14.245 -0.3092  0.9758 -0.1682
   42DOPE  C315 5406   1.128   3.961  14.312 -0.1515 -0.1409  0.6144
   42DOPE  H15X 5407   1.140   4.063  14.353 -2.1123  0.8986 -1.1902
   42DOPE  H15Y 5408   1.227   3.928  14.274  0.7210  0.4423  2.2631
   42DOPE  C316 5409   1.089   3.864  14.428  0.6490 -0.7067  0.2721
   42DOPE  H16X 5410   1.074   3.763  14.383 -3.5832  0.3378 -1.1005
   42DOPE  H16Y 5411   0.995   3.888  14.482  1.4476 -0.7396  1.7548
   42DOPE  C317 5412   1.198   3.854  14.540  0.2097  0.2526  0.2934
   42DOPE  H17X 5413   1.225   3.955  14.578  0.7785 -0.8276  2.9663
   42DOPE  H17Y 5414   1.172   3.785  14.623  1.6628 -0.7650 -0.0589
   42DOPE  C318 5415   1.340   3.804  14.489  0.1233  0.3360  0.4117
   42DOPE  H18X 5416   1.324   3.707  14.438  0.0558  0.6185 -0.1029
   42DOPE  H18Y 5417   1.384   3.878  14.419 -0.0831  0.4020  0.3515
   42DOPE  H18Z 5418   1.407   3.803  14.578 -0.6482  0.1522  0.9988
   43DOPE     N 5419   0.561   3.092  12.666 -0.6062 -0.3961  0.4218
   43DOPE   HN1 5420   0.516   3.064  12.577  0.8880 -1.1092 -0.1314
   43DOPE   HN2 5421   0.480   3.131  12.719 -1.1801 -0.5263 -0.3460
   43DOPE   HN3 5422   0.629   3.167  12.641 -1.1617  0.9942  2.6999
   43DOPE   C12 5423   0.612   2.975  12.739  0.2288 -0.1666  0.0812
   43DOPE  H12A 5424   0.681   2.934  12.662  1.0886  1.0472  0.1725
   43DOPE  H12B 5425   0.527   2.907  12.759 -1.4724  1.7764 -0.1752
   43DOPE   C11 5426   0.696   3.030  12.852  0.0717 -0.3301  0.0735
   43DOPE  H11A 5427   0.645   3.112  12.908 -0.7873 -1.5242  1.0728
   43DOPE  H11B 5428   0.784   3.084  12.812 -0.5373  0.8597  0.2877
   43DOPE     P 5429   0.689   2.894  13.064 -0.1594 -0.6445  0.0237
   43DOPE   O13 5430   0.753   2.776  13.122 -0.5440 -0.4779  0.4971
   43DOPE   O14 5431   0.543   2.880  13.048 -0.6319  0.1943  0.0915
   43DOPE   O11 5432   0.739   3.029  13.141  0.1108 -0.3862 -0.6633
   43DOPE   O12 5433   0.748   2.919  12.919  0.1771  0.2792  0.0887
   43DOPE    C1 5434   0.877   3.068  13.145 -0.2095  0.1948  0.4597
   43DOPE    HA 5435   0.895   3.167  13.097  4.2824  0.2656  1.7857
   43DOPE    HB 5436   0.936   2.994  13.087 -1.5752  0.3381 -1.1825
   43DOPE    C2 5437   0.921   3.084  13.295  0.6958  0.1161  0.8713
   43DOPE    HS 5438   1.017   3.140  13.301  1.9686 -2.0815  2.3452
   43DOPE   O21 5439   0.936   2.959  13.351  0.5123  0.7187 -0.4675
   43DOPE   C21 5440   1.037   2.885  13.300  0.4240  0.0375 -0.2752
   43DOPE   O22 5441   1.123   2.934  13.223 -0.2918  0.6041  0.1481
   43DOPE   C22 5442   1.043   2.741  13.352 -0.0653 -0.0038 -0.6106
   43DOPE   H2R 5443   1.115   2.689  13.286 -0.3865 -1.5026  0.1766
   43DOPE   H2S 5444   0.940   2.700  13.338 -0.8379  0.8498  2.0203
   43DOPE    C3 5445   0.809   3.152  13.368 -0.2246 -0.1813 -0.8575
   43DOPE    HX 5446   0.717   3.090  13.356  0.7456 -2.3706  1.9488
   43DOPE    HY 5447   0.783   3.243  13.311 -0.5894 -0.7491 -1.6240
   43DOPE   O31 5448   0.828   3.163  13.512  0.0515 -0.2909  0.4139
   43DOPE   C31 5449   0.884   3.275  13.567  0.0664 -0.4567 -0.1093
   43DOPE   O32 5450   0.926   3.374  13.511 -0.7554  0.3180 -0.3017
   43DOPE   C32 5451   0.873   3.260  13.718 -1.0968 -0.0906  0.3684
   43DOPE   H2X 5452   0.932   3.171  13.748  2.6072  1.8576 -0.5344
   43DOPE   H2Y 5453   0.925   3.344  13.768 -0.8355 -0.8892  1.4986
   43DOPE   C23 5454   1.081   2.738  13.504 -0.0386  0.1032  0.8751
   43DOPE   H3R 5455   1.176   2.795  13.516  0.2738  0.2150 -1.7086
   43DOPE   H3S 5456   1.107   2.632  13.525  0.1180 -0.3787 -1.4972
   43DOPE   C24 5457   0.956   2.783  13.582  0.2816 -0.5632 -0.2861
   43DOPE   H4R 5458   0.866   2.740  13.533 -1.1713  3.3942 -1.5303
   43DOPE   H4S 5459   0.940   2.893  13.579 -2.2009 -0.8631 -0.8249
   43DOPE   C25 5460   0.947   2.733  13.727 -1.4608  0.3484 -0.2549
   43DOPE   H5R 5461   1.048   2.752  13.770 -1.2186  0.3320 -0.8167
   43DOPE   H5S 5462   0.921   2.626  13.742  0.0096 -0.2440 -1.7351
   43DOPE   C26 5463   0.860   2.816  13.822  0.2685 -0.1343 -0.5948
   43DOPE   H6R 5464   0.751   2.811  13.802 -0.1636  0.9942  1.2502
   43DOPE   H6S 5465   0.896   2.921  13.812 -0.6263  0.0877 -1.5374
   43DOPE   C27 5466   0.867   2.759  13.963 -0.0759 -0.2869 -0.8624
   43DOPE   H7R 5467   0.970   2.747  14.002 -0.3591  2.2375  0.8884
   43DOPE   H7S 5468   0.813   2.662  13.974  0.6329 -0.4379  1.8295
   43DOPE   C28 5469   0.784   2.854  14.053  0.2031 -0.2654  0.0895
   43DOPE   H8R 5470   0.682   2.842  14.013  0.0879 -0.6448  0.4877
   43DOPE   H8S 5471   0.814   2.959  14.033  0.7437 -0.1818  1.2433
   43DOPE   C29 5472   0.796   2.825  14.195  0.2920 -0.4877  0.3936
   43DOPE   H9R 5473   0.728   2.750  14.239 -0.8010  0.2125 -0.0698
   43DOPE  C210 5474   0.871   2.905  14.276 -0.4448 -0.4678 -1.3849
   43DOPE  H10R 5475   0.865   2.874  14.382  0.8390 -0.0140 -1.1525
   43DOPE  C211 5476   0.948   3.028  14.250  0.1574  0.4272 -0.0237
   43DOPE  H11R 5477   0.962   3.050  14.142 -0.7525  0.6964 -0.0940
   43DOPE  H11S 5478   1.051   3.015  14.290  0.4836  0.2148 -0.9024
   43DOPE  C212 5479   0.892   3.154  14.314 -0.0615  0.2299 -0.5949
   43DOPE  H12R 5480   0.793   3.166  14.266 -1.3601 -1.9771  1.3300
   43DOPE  H12S 5481   0.965   3.233  14.286  1.1222 -0.3224  0.8133
   43DOPE  C213 5482   0.858   3.148  14.469 -0.0686  0.3996 -0.0493
   43DOPE  H13R 5483   0.783   3.071  14.500 -1.1989  1.9402  1.1907
   43DOPE  H13S 5484   0.830   3.250  14.502  0.6489  0.8174 -0.7218
   43DOPE  C214 5485   0.986   3.103  14.556 -0.1157  0.7596 -0.2617
   43DOPE  H14R 5486   1.050   3.193  14.567  0.9976 -0.1177  0.5956
   43DOPE  H14S 5487   1.035   3.025  14.494  0.1348  0.1011  0.7347
   43DOPE  C215 5488   0.937   3.061  14.695  0.4136 -0.3057 -0.9807
   43DOPE  H15R 5489   0.909   2.954  14.693  0.0291 -0.3376  1.7916
   43DOPE  H15S 5490   0.848   3.124  14.718  0.9048  0.2463 -0.5723
   43DOPE  C216 5491   1.042   3.071  14.808 -0.2076 -0.1017 -0.0906
   43DOPE  H16R 5492   1.083   3.173  14.825 -0.6807 -0.0838  0.9710
   43DOPE  H16S 5493   1.133   3.015  14.774  0.4015  0.9963 -0.3147
   43DOPE  C217 5494   0.992   3.010  14.943  0.2476 -0.3370  0.0922
   43DOPE  H17R 5495   1.076   2.948  14.981 -0.7414 -2.9121 -1.6233
   43DOPE  H17S 5496   0.898   2.957  14.918 -1.1840  2.1372 -0.0574
   43DOPE  C218 5497   0.962   3.116  15.049  0.4186 -0.2111 -0.3149
   43DOPE  H18R 5498   1.056   3.163  15.086  0.4357  1.6364 -2.4611
   43DOPE  H18S 5499   0.902   3.077  15.133  1.9038 -1.9508 -0.0045
   43DOPE  H18T 5500   0.905   3.199  15.001 -3.2815 -1.7134  1.1418
   43DOPE   C33 5501   0.732   3.242  13.768 -0.3067  0.1252  0.1732
   43DOPE   H3X 5502   0.700   3.141  13.735 -1.2475  0.6622 -0.6197
   43DOPE   H3Y 5503   0.671   3.316  13.712  0.7185 -0.5079 -1.8844
   43DOPE   C34 5504   0.727   3.241  13.926  0.3537  0.5265 -0.3811
   43DOPE   H4X 5505   0.808   3.178  13.968 -0.7999 -0.2996  0.6810
   43DOPE   H4Y 5506   0.749   3.336  13.980 -0.0940 -0.3714  1.4537
   43DOPE   C35 5507   0.597   3.183  13.979 -0.1093  0.6527 -0.1860
   43DOPE   H5X 5508   0.593   3.191  14.090  1.6691  1.4322 -0.1521
   43DOPE   H5Y 5509   0.587   3.077  13.945  2.4168  0.6970 -1.2771
   43DOPE   C36 5510   0.475   3.263  13.930  0.3238  0.1197 -0.5589
   43DOPE   H6X 5511   0.459   3.225  13.827  1.5978  0.2491 -0.8297
   43DOPE   H6Y 5512   0.501   3.371  13.918  0.5114  0.0366 -0.9264
   43DOPE   C37 5513   0.352   3.251  14.022 -0.7216 -0.4309 -0.3854
   43DOPE   H7X 5514   0.256   3.244  13.966 -0.3962  0.3458 -1.0780
   43DOPE   H7Y 5515   0.361   3.156  14.078  1.1466  1.3412  2.5995
   43DOPE   C38 5516   0.348   3.361  14.127  0.1688 -0.3901 -0.2809
   43DOPE   H8X 5517   0.256   3.354  14.190  1.3468  0.0574  1.5690
   43DOPE   H8Y 5518   0.346   3.462  14.080  0.0380 -0.3832 -0.2613
   43DOPE   C39 5519   0.458   3.374  14.229  0.2384 -0.0844  0.0209
   43DOPE   H9X 5520   0.559   3.352  14.194 -0.2227 -0.8862 -0.8570
   43DOPE  C310 5521   0.448   3.426  14.354  0.6564 -0.3395  0.4832
   43DOPE  H10X 5522   0.538   3.424  14.417  0.2520 -5.2451  1.3664
   43DOPE  C311 5523   0.326   3.484  14.418 -0.1457  0.4603  0.3855
   43DOPE  H11X 5524   0.229   3.440  14.387  0.1188 -0.8536  1.3315
   43DOPE  H11Y 5525   0.342   3.454  14.524 -0.2321  1.3097  0.6488
   43DOPE  C312 5526   0.310   3.640  14.413 -0.5474 -0.1996 -0.0596
   43DOPE  H12X 5527   0.411   3.686  14.421 -0.0917 -1.2740  0.5182
   43DOPE  H12Y 5528   0.264   3.664  14.511  1.5931  1.9740  0.5371
   43DOPE  C313 5529   0.240   3.694  14.286 -0.1563 -0.2739 -0.1770
   43DOPE  H13X 5530   0.222   3.801  14.308  1.0954 -0.5147  2.3688
   43DOPE  H13Y 5531   0.291   3.687  14.188 -1.5536  0.0713 -0.9556
   43DOPE  C314 5532   0.086   3.647  14.263  0.2599 -0.0320  0.0683
   43DOPE  H14X 5533   0.045   3.645  14.366 -0.9741  1.6797 -0.3286
   43DOPE  H14Y 5534   0.084   3.541  14.228  0.6932 -0.6450  1.8355
   43DOPE  C315 5535   0.005   3.739  14.172 -0.4842 -0.0728  0.0442
   43DOPE  H15X 5536   0.011   3.836  14.227 -4.1989 -0.0061  0.5985
   43DOPE  H15Y 5537  -0.102   3.711  14.182  0.0281 -1.6434  1.7785
   43DOPE  C316 5538   0.055   3.758  14.029  0.2214 -0.5643  0.6853
   43DOPE  H16X 5539   0.025   3.663  13.981 -0.5151 -0.7828  1.5490
   43DOPE  H16Y 5540   0.166   3.759  14.029  0.2344  0.1720  1.9068
   43DOPE  C317 5541  -0.020   3.867  13.952 -0.4528  0.1720  0.1348
   43DOPE  H17X 5542   0.025   3.958  13.997  1.1766  0.9190 -2.7698
   43DOPE  H17Y 5543   0.015   3.872  13.846  1.1657 -0.4861  0.6105
   43DOPE  C318 5544  -0.173   3.876  13.954 -0.1996  0.7195  0.0408
   43DOPE  H18X 5545  -0.200   3.944  13.871 -0.2977  0.0210 -0.5041
   43DOPE  H18Y 5546  -0.220   3.778  13.933 -0.0974  0.3219  1.5406
   43DOPE  H18Z 5547  -0.214   3.909  14.052 -2.6961 -0.5060 -0.5150
   44DOPE     N 5548   2.262   1.452  12.986 -0.6400  0.0882 -0.1227
   44DOPE   HN1 5549   2.314   1.538  12.959  2.6527 -1.9053 -0.6483
   44DOPE   HN2 5550   2.300   1.367  12.940  2.3463  2.3375 -2.2324
   44DOPE   HN3 5551   2.164   1.466  12.953 -0.3192 -0.2726 -1.3000
   44DOPE   C12 5552   2.284   1.441  13.133 -0.2376  0.4906  0.2464
   44DOPE  H12A 5553   2.229   1.351  13.166 -0.4736  1.1568  1.7616
   44DOPE  H12B 5554   2.237   1.529  13.182 -0.2035  1.1346 -0.8404
   44DOPE   C11 5555   2.428   1.432  13.186  0.0111  0.6800 -0.3064
   44DOPE  H11A 5556   2.438   1.390  13.288 -0.1404 -1.2389 -1.0364
   44DOPE  H11B 5557   2.480   1.530  13.177  0.4765  0.4153 -0.5470
   44DOPE     P 5558   2.645   1.364  13.066 -0.4393 -0.2582  0.5599
   44DOPE   O13 5559   2.652   1.504  13.016  0.0046  0.0003 -0.2061
   44DOPE   O14 5560   2.704   1.258  12.980 -0.0283 -0.2877  0.4545
   44DOPE   O11 5561   2.717   1.357  13.209  0.2121 -0.0800 -0.3407
   44DOPE   O12 5562   2.495   1.336  13.104 -0.2778 -0.2229 -0.8313
   44DOPE    C1 5563   2.721   1.230  13.275  0.1026  0.1269  0.0338
   44DOPE    HA 5564   2.631   1.167  13.256  0.8853 -1.6192  1.7065
   44DOPE    HB 5565   2.706   1.241  13.385 -2.9026 -0.2175 -0.2383
   44DOPE    C2 5566   2.855   1.146  13.251  0.4810  0.7132 -0.5928
   44DOPE    HS 5567   2.851   1.106  13.148  0.2125 -2.9758  0.6763
   44DOPE   O21 5568   2.849   1.038  13.345 -0.1302 -0.6310 -1.0860
   44DOPE   C21 5569   2.915   0.928  13.315 -0.3865  0.5134 -0.1707
   44DOPE   O22 5570   2.985   0.911  13.218 -1.3390  0.1535  0.1777
   44DOPE   C22 5571   2.929   0.833  13.443 -0.2000 -0.6102  0.2477
   44DOPE   H2R 5572   3.024   0.776  13.436 -0.1221 -0.3412 -1.2382
   44DOPE   H2S 5573   2.849   0.760  13.420 -0.7608  0.2060 -0.4581
   44DOPE    C3 5574   2.987   1.225  13.267  0.9824 -0.2908 -0.2429
   44DOPE    HX 5575   2.967   1.317  13.208  0.1247 -0.2547  0.0865
   44DOPE    HY 5576   3.062   1.160  13.217  1.5561 -1.3134  1.8342
   44DOPE   O31 5577   3.021   1.250  13.403  0.1315 -0.0218  0.4661
   44DOPE   C31 5578   3.098   1.356  13.408 -0.2755 -0.5158 -0.3603
   44DOPE   O32 5579   3.151   1.422  13.318  0.3929  0.8659 -0.0131
   44DOPE   C32 5580   3.131   1.371  13.556  0.4732  0.2999  0.5994
   44DOPE   H2X 5581   3.043   1.355  13.622 -0.4581 -1.2247 -0.9226
   44DOPE   H2Y 5582   3.200   1.291  13.589  0.6499 -0.5168 -1.5726
   44DOPE   C23 5583   2.903   0.906  13.578 -0.3271  0.0658  0.4712
   44DOPE   H3R 5584   2.904   0.832  13.660 -2.5671 -0.2917  0.2356
   44DOPE   H3S 5585   2.802   0.951  13.576  0.0907  1.0236  0.1925
   44DOPE   C24 5586   3.013   1.010  13.611  0.2488  0.2068 -0.0445
   44DOPE   H4R 5587   2.954   1.103  13.630 -1.8512 -0.8311 -1.1198
   44DOPE   H4S 5588   3.069   1.017  13.515 -1.5031 -0.0766 -1.1377
   44DOPE   C25 5589   3.101   0.998  13.732 -0.5859  0.0498 -0.0794
   44DOPE   H5R 5590   3.044   1.018  13.826 -0.3436  3.0585 -0.5064
   44DOPE   H5S 5591   3.173   1.082  13.735  0.9338 -1.1486 -1.2798
   44DOPE   C26 5592   3.182   0.863  13.729 -0.7288  0.2762  0.1438
   44DOPE   H6R 5593   3.202   0.823  13.627  0.2651  0.4360  0.2726
   44DOPE   H6S 5594   3.121   0.780  13.772 -1.3662 -0.0654 -1.3399
   44DOPE   C27 5595   3.317   0.862  13.808  0.2022 -0.7225  0.4271
   44DOPE   H7R 5596   3.386   0.924  13.747  0.3151 -0.0949  1.1765
   44DOPE   H7S 5597   3.353   0.757  13.814  2.4338 -0.1306 -1.3752
   44DOPE   C28 5598   3.294   0.925  13.947  0.0938 -0.5445 -0.1511
   44DOPE   H8R 5599   3.215   0.876  14.008 -0.6684 -0.2017 -0.8413
   44DOPE   H8S 5600   3.266   1.032  13.936 -1.4380 -0.9599 -0.5202
   44DOPE   C29 5601   3.426   0.915  14.013  0.2684 -1.3304 -0.8567
   44DOPE   H9R 5602   3.495   0.842  13.969  1.0641 -0.3927 -1.2168
   44DOPE  C210 5603   3.462   0.983  14.122 -0.2311 -0.3095  0.2225
   44DOPE  H10R 5604   3.562   0.984  14.168  0.7082  2.0159 -1.6643
   44DOPE  C211 5605   3.369   1.082  14.195  0.1622  0.6645 -0.3756
   44DOPE  H11R 5606   3.287   1.123  14.132 -0.9500  2.8922  2.2896
   44DOPE  H11S 5607   3.422   1.173  14.228 -0.1646  0.4813  0.6918
   44DOPE  C212 5608   3.292   1.010  14.310 -0.2982 -0.0356  0.3417
   44DOPE  H12R 5609   3.363   0.959  14.379  1.7253  1.1047 -0.7748
   44DOPE  H12S 5610   3.240   0.924  14.262 -0.9575  1.1033 -1.0706
   44DOPE  C213 5611   3.185   1.090  14.380 -0.0089  0.1843  0.2088
   44DOPE  H13R 5612   3.117   1.125  14.299 -0.8008  2.0513  1.6122
   44DOPE  H13S 5613   3.233   1.169  14.441  1.7920 -1.3301  0.8317
   44DOPE  C214 5614   3.099   1.004  14.463  0.3193  0.2830  0.0053
   44DOPE  H14R 5615   3.157   0.962  14.548 -1.8472  0.4688  1.6544
   44DOPE  H14S 5616   3.046   0.917  14.419 -0.5225  0.5835  0.4082
   44DOPE  C215 5617   3.001   1.103  14.535  0.2968  0.3407  0.2772
   44DOPE  H15R 5618   3.055   1.196  14.563  1.1984 -0.0075 -0.2537
   44DOPE  H15S 5619   2.980   1.048  14.629  1.3660 -1.5226 -0.5199
   44DOPE  C216 5620   2.869   1.131  14.464 -0.3616  0.2237  0.1701
   44DOPE  H16R 5621   2.810   1.037  14.455 -0.1322  0.2172 -1.5582
   44DOPE  H16S 5622   2.876   1.175  14.362  2.6294  1.2065  0.7131
   44DOPE  C217 5623   2.777   1.229  14.548 -0.7578  0.0393 -0.2658
   44DOPE  H17R 5624   2.831   1.307  14.605 -0.8487 -0.8067  1.0220
   44DOPE  H17S 5625   2.731   1.161  14.623 -1.5717  0.6660 -0.1887
   44DOPE  C218 5626   2.663   1.293  14.463 -0.1984 -0.0345  0.0602
   44DOPE  H18R 5627   2.709   1.376  14.405 -1.6792  2.3221  2.0579
   44DOPE  H18S 5628   2.586   1.350  14.517 -0.4153  0.9881 -1.2795
   44DOPE  H18T 5629   2.613   1.221  14.394 -0.0224 -0.6809  0.5937
   44DOPE   C33 5630   3.175   1.512  13.593 -0.2408 -0.1576 -0.5314
   44DOPE   H3X 5631   3.114   1.593  13.549  0.8727 -0.3864 -2.6098
   44DOPE   H3Y 5632   3.281   1.523  13.561  0.0855 -1.8547 -0.1307
   44DOPE   C34 5633   3.192   1.528  13.743 -0.6992  0.6776  0.8192
   44DOPE   H4X 5634   3.195   1.424  13.782  1.8751  0.5692  0.5129
   44DOPE   H4Y 5635   3.288   1.576  13.771  0.0513 -0.6815  0.6685
   44DOPE   C35 5636   3.073   1.602  13.806  0.3488 -0.4039  0.2929
   44DOPE   H5X 5637   2.981   1.548  13.776 -0.0627  1.1158 -1.2970
   44DOPE   H5Y 5638   3.067   1.705  13.765  0.3577 -0.4209  0.2487
   44DOPE   C36 5639   3.080   1.607  13.958  0.2184 -0.7334 -0.4132
   44DOPE   H6X 5640   3.185   1.639  13.978 -0.3245  0.5081  0.5675
   44DOPE   H6Y 5641   3.063   1.512  14.014  1.2147 -0.0864  1.0884
   44DOPE   C37 5642   2.984   1.714  14.022 -0.2784  0.7744 -0.0886
   44DOPE   H7X 5643   2.999   1.809  13.966 -0.0488  1.2572  0.7779
   44DOPE   H7Y 5644   2.883   1.674  13.999 -0.4109  0.3218  1.1678
   44DOPE   C38 5645   2.994   1.727  14.174 -0.2494  0.2550  0.1139
   44DOPE   H8X 5646   2.932   1.812  14.209  0.5210  1.4963 -1.3983
   44DOPE   H8Y 5647   3.099   1.762  14.186  0.3240  0.3787 -3.8263
   44DOPE   C39 5648   2.952   1.600  14.238  0.9227 -0.5578 -0.1739
   44DOPE   H9X 5649   2.914   1.515  14.179  0.5711  0.2315 -1.1150
   44DOPE  C310 5650   2.959   1.573  14.366 -0.4064  0.4526 -0.2831
   44DOPE  H10X 5651   2.926   1.473  14.398  2.7566 -0.5554  0.2056
   44DOPE  C311 5652   3.007   1.649  14.485  0.6815  0.4308 -0.6247
   44DOPE  H11X 5653   3.019   1.752  14.445 -0.9428  0.2989 -1.5711
   44DOPE  H11Y 5654   2.925   1.652  14.561 -0.1698 -0.2079 -1.4841
   44DOPE  C312 5655   3.138   1.605  14.557 -0.2082  0.1480  0.0900
   44DOPE  H12X 5656   3.225   1.629  14.492  0.1649 -2.6826 -0.5976
   44DOPE  H12Y 5657   3.147   1.496  14.577  2.5122  0.6266  2.0289
   44DOPE  C313 5658   3.173   1.694  14.680  0.3433 -0.1183  0.4909
   44DOPE  H13X 5659   3.163   1.800  14.648 -0.2717  0.1237  1.4247
   44DOPE  H13Y 5660   3.091   1.681  14.754 -0.0229  0.9464  0.2926
   44DOPE  C314 5661   3.297   1.666  14.753 -0.1008 -0.5839 -0.4181
   44DOPE  H14X 5662   3.380   1.695  14.685  1.5031  1.7230  2.3012
   44DOPE  H14Y 5663   3.300   1.556  14.772 -1.8177 -0.4620  0.7670
   44DOPE  C315 5664   3.313   1.732  14.897  0.4249  0.0188  0.6510
   44DOPE  H15X 5665   3.323   1.842  14.882 -0.0687 -0.2794 -2.3846
   44DOPE  H15Y 5666   3.408   1.686  14.931  0.7611 -1.2709 -1.8603
   44DOPE  C316 5667   3.192   1.700  14.989 -0.7654 -0.3084  0.7060
   44DOPE  H16X 5668   3.161   1.594  14.986 -0.1513 -0.4842 -1.4155
   44DOPE  H16Y 5669   3.106   1.759  14.953  1.0460  0.9281 -1.8990
   44DOPE  C317 5670   3.195   1.743  15.139 -0.0788  0.2066 -0.0126
   44DOPE  H17X 5671   3.290   1.699  15.178  0.3850  0.3931 -0.9010
   44DOPE  H17Y 5672   3.201   1.850  15.166 -1.0741  0.3279 -0.2477
   44DOPE  C318 5673   3.066   1.695  15.203 -0.3527 -0.0365 -0.3675
   44DOPE  H18X 5674   2.982   1.740  15.147 -1.0075 -0.8571 -0.0700
   44DOPE  H18Y 5675   3.056   1.585  15.192 -1.6949 -0.2307  2.0463
   44DOPE  H18Z 5676   3.057   1.728  15.308 -2.3948  0.0366 -0.5217
   45DOPE     N 5677   3.827   1.390  12.929 -0.4389 -0.3669 -0.1523
   45DOPE   HN1 5678   3.863   1.404  12.833 -0.2001  1.1013  0.1306
   45DOPE   HN2 5679   3.798   1.482  12.968 -1.5591 -0.3391 -0.9939
   45DOPE   HN3 5680   3.903   1.348  12.986 -1.4726 -2.8429 -0.4492
   45DOPE   C12 5681   3.714   1.295  12.930 -0.5027 -0.1712  0.7856
   45DOPE  H12A 5682   3.628   1.349  12.886 -1.1902 -1.3325  0.6639
   45DOPE  H12B 5683   3.683   1.284  13.036  0.0918 -1.3654  0.8540
   45DOPE   C11 5684   3.747   1.155  12.877  0.6136 -0.5763 -0.3875
   45DOPE  H11A 5685   3.794   1.160  12.777  0.4672 -0.3719 -0.4460
   45DOPE  H11B 5686   3.649   1.103  12.878 -0.0403  0.6219  0.2058
   45DOPE     P 5687   3.823   0.955  13.018  0.1625 -0.3225 -0.0336
   45DOPE   O13 5688   3.956   0.901  13.071 -0.2689 -0.1274  0.2502
   45DOPE   O14 5689   3.752   0.882  12.912 -0.5695  0.3489 -0.4487
   45DOPE   O11 5690   3.729   0.980  13.136 -0.4502 -0.4160 -0.4313
   45DOPE   O12 5691   3.841   1.104  12.969  0.1848  0.1214 -0.2948
   45DOPE    C1 5692   3.749   1.087  13.231 -0.5051 -0.6600  0.3350
   45DOPE    HA 5693   3.694   1.177  13.198  1.2428 -0.0124 -0.9572
   45DOPE    HB 5694   3.851   1.130  13.234 -1.0192  0.5474  1.3005
   45DOPE    C2 5695   3.691   1.047  13.371  0.7700  0.4514 -0.0442
   45DOPE    HS 5696   3.584   1.025  13.352 -0.0450  1.2332  3.1106
   45DOPE   O21 5697   3.702   1.159  13.458 -0.6676 -0.4780  0.8419
   45DOPE   C21 5698   3.636   1.145  13.570 -0.2059  0.2341  0.0408
   45DOPE   O22 5699   3.560   1.056  13.606  0.0665  0.3152 -0.0657
   45DOPE   C22 5700   3.681   1.255  13.671  0.3591  0.6666  0.6962
   45DOPE   H2R 5701   3.691   1.353  13.618 -0.6694  0.9918  1.0853
   45DOPE   H2S 5702   3.787   1.244  13.702  0.9809  2.7523 -0.4664
   45DOPE    C3 5703   3.769   0.922  13.427  0.1704 -0.3998 -0.1499
   45DOPE    HX 5704   3.751   0.837  13.359 -0.2266 -0.3302 -0.1380
   45DOPE    HY 5705   3.734   0.892  13.529  0.9397 -1.1506 -0.1027
   45DOPE   O31 5706   3.912   0.948  13.428 -0.5709 -0.0330  0.4745
   45DOPE   C31 5707   3.973   0.992  13.533 -0.1347  1.1542 -0.6173
   45DOPE   O32 5708   3.920   1.016  13.637  0.4543 -0.0805 -0.3779
   45DOPE   C32 5709   4.122   1.006  13.501  0.0093 -0.0847  0.1230
   45DOPE   H2X 5710   4.165   0.916  13.452 -0.4754  1.3220 -3.1838
   45DOPE   H2Y 5711   4.118   1.089  13.427 -2.0108  0.4131  0.7087
   45DOPE   C23 5712   3.597   1.268  13.801  0.1164  0.1021 -0.3866
   45DOPE   H3R 5713   3.586   1.162  13.833  1.3419  0.0464 -0.1109
   45DOPE   H3S 5714   3.493   1.302  13.783 -0.1866 -0.5914  0.0284
   45DOPE   C24 5715   3.684   1.348  13.903  0.6400  0.0298  0.1855
   45DOPE   H4R 5716   3.677   1.454  13.872  0.6053 -0.2067 -0.6497
   45DOPE   H4S 5717   3.788   1.311  13.893  0.7384  0.0582  1.0658
   45DOPE   C25 5718   3.638   1.315  14.045  0.0599 -0.2109 -0.3609
   45DOPE   H5R 5719   3.627   1.205  14.061 -1.5208  0.2137  1.9387
   45DOPE   H5S 5720   3.541   1.368  14.056  1.4249  2.3818 -0.0149
   45DOPE   C26 5721   3.733   1.350  14.156  0.1421 -0.2916  0.3269
   45DOPE   H6R 5722   3.773   1.452  14.139 -0.0777 -0.2441  0.0817
   45DOPE   H6S 5723   3.827   1.291  14.156  0.2915 -0.1884  3.3363
   45DOPE   C27 5724   3.655   1.340  14.292 -0.6564 -0.2642  0.1205
   45DOPE   H7R 5725   3.625   1.236  14.319  2.4849  0.0108  6.2592
   45DOPE   H7S 5726   3.558   1.394  14.285 -1.1591 -1.0843  0.5866
   45DOPE   C28 5727   3.722   1.400  14.419  0.3160 -0.0317  0.2530
   45DOPE   H8R 5728   3.767   1.495  14.383 -1.7525  0.6609 -0.6651
   45DOPE   H8S 5729   3.803   1.338  14.463 -0.3398 -0.4779  0.8581
   45DOPE   C29 5730   3.624   1.436  14.528 -0.2524  0.3729  0.0392
   45DOPE   H9R 5731   3.523   1.466  14.498  0.4014  3.2654  0.4250
   45DOPE  C210 5732   3.630   1.430  14.662 -0.6814  0.2198  0.2457
   45DOPE  H10R 5733   3.553   1.486  14.717 -0.7124 -0.5080  0.9584
   45DOPE  C211 5734   3.747   1.386  14.744 -0.4998 -0.3233  0.3652
   45DOPE  H11R 5735   3.832   1.351  14.681 -0.8292  2.1921 -1.6137
   45DOPE  H11S 5736   3.724   1.304  14.816 -1.4082  1.2047  1.9061
   45DOPE  C212 5737   3.792   1.507  14.837 -0.4325 -0.2061 -0.1355
   45DOPE  H12R 5738   3.710   1.554  14.895 -0.3903  2.1207 -1.7947
   45DOPE  H12S 5739   3.825   1.594  14.776 -0.9963 -1.1340 -1.8531
   45DOPE  C213 5740   3.905   1.458  14.928  0.8959  0.5715  0.9902
   45DOPE  H13R 5741   3.981   1.404  14.869  0.4556 -0.7417  1.5846
   45DOPE  H13S 5742   3.857   1.385  14.997 -0.4860  1.2796  0.8190
   45DOPE  C214 5743   3.967   1.576  15.008 -0.2626  0.5863  1.2970
   45DOPE  H14R 5744   3.886   1.622  15.069 -2.2056 -1.4719  0.4205
   45DOPE  H14S 5745   4.000   1.646  14.930  0.9340 -1.6144 -0.2878
   45DOPE  C215 5746   4.092   1.549  15.093  0.5886  1.1564  0.1251
   45DOPE  H15R 5747   4.171   1.514  15.022  0.4128  2.1474 -0.5709
   45DOPE  H15S 5748   4.061   1.466  15.160  2.1651  1.4050  1.2114
   45DOPE  C216 5749   4.147   1.667  15.184  0.9931  0.5059 -0.5751
   45DOPE  H16R 5750   4.175   1.752  15.118 -3.3309  2.0047 -0.8561
   45DOPE  H16S 5751   4.238   1.627  15.232  0.5749 -0.0244 -0.2128
   45DOPE  C217 5752   4.053   1.697  15.303 -0.2669 -0.6286 -0.2331
   45DOPE  H17R 5753   4.019   1.603  15.351 -0.0388 -1.3801 -1.4932
   45DOPE  H17S 5754   3.964   1.748  15.260 -0.8847  0.4827  2.1476
   45DOPE  C218 5755   4.128   1.791  15.405 -0.0188  0.5627 -0.3458
   45DOPE  H18R 5756   4.150   1.885  15.350 -1.8858  0.9391 -0.5072
   45DOPE  H18S 5757   4.219   1.733  15.432 -0.0386  0.3851 -0.6490
   45DOPE  H18T 5758   4.072   1.804  15.500  1.1725  1.4589  0.2507
   45DOPE   C33 5759   4.206   1.051  13.621 -0.8997 -0.3880  0.1716
   45DOPE   H3X 5760   4.164   1.144  13.666  1.1545  1.3623 -1.2679
   45DOPE   H3Y 5761   4.306   1.083  13.584 -0.2290 -3.1344 -0.5955
   45DOPE   C34 5762   4.231   0.948  13.733 -0.4695  0.4327 -0.0002
   45DOPE   H4X 5763   4.135   0.905  13.771 -0.1689  0.6932  1.0817
   45DOPE   H4Y 5764   4.307   0.875  13.699 -1.0767 -0.3707  0.3264
   45DOPE   C35 5765   4.303   1.012  13.854 -0.6126  0.0964 -0.0902
   45DOPE   H5X 5766   4.235   1.072  13.919  1.0103  0.4553  1.3707
   45DOPE   H5Y 5767   4.373   1.082  13.804  1.7717 -2.5162 -0.6512
   45DOPE   C36 5768   4.377   0.916  13.948  0.1836 -0.4760  0.0275
   45DOPE   H6X 5769   4.427   0.838  13.888  3.7029  0.1223  1.9362
   45DOPE   H6Y 5770   4.289   0.868  13.996  0.0030  0.7545  0.9778
   45DOPE   C37 5771   4.467   0.980  14.054  0.0268  0.2595 -0.4056
   45DOPE   H7X 5772   4.561   1.025  14.016  0.6861  0.5698  1.4514
   45DOPE   H7Y 5773   4.429   1.069  14.109  2.3404  1.0581  0.0216
   45DOPE   C38 5774   4.506   0.875  14.156 -0.2815  0.4306 -0.9154
   45DOPE   H8X 5775   4.607   0.887  14.201 -0.7878 -1.1903  0.8303
   45DOPE   H8Y 5776   4.506   0.776  14.105 -1.0204 -0.4101  0.6274
   45DOPE   C39 5777   4.397   0.871  14.265 -0.4164 -0.0140  0.6210
   45DOPE   H9X 5778   4.299   0.861  14.217  0.0261 -0.2058 -0.2656
   45DOPE  C310 5779   4.413   0.883  14.395 -0.1942  0.4378  0.3509
   45DOPE  H10X 5780   4.323   0.898  14.458  1.3439  3.2671  2.0745
   45DOPE  C311 5781   4.543   0.907  14.462 -0.2151  0.2409 -0.2826
   45DOPE  H11X 5782   4.625   0.907  14.387  0.1344  0.1578  0.0995
   45DOPE  H11Y 5783   4.544   1.003  14.518  2.0499 -1.6191  3.2306
   45DOPE  C312 5784   4.583   0.803  14.565  0.1337 -0.8551  0.4478
   45DOPE  H12X 5785   4.515   0.785  14.651  0.4471 -0.2753  0.8227
   45DOPE  H12Y 5786   4.674   0.841  14.614  0.1987  1.3842 -1.1957
   45DOPE  C313 5787   4.606   0.661  14.508 -0.5023  0.6267  0.0946
   45DOPE  H13X 5788   4.510   0.624  14.468  0.4814 -0.3440 -1.4639
   45DOPE  H13Y 5789   4.664   0.669  14.414 -1.3741  1.7941 -0.3722
   45DOPE  C314 5790   4.672   0.570  14.613  0.6291 -0.1602  0.5003
   45DOPE  H14X 5791   4.611   0.519  14.691  1.7568 -2.2141  0.1361
   45DOPE  H14Y 5792   4.740   0.637  14.669  1.0758 -0.2881  0.1178
   45DOPE  C315 5793   4.740   0.449  14.548  0.1474  0.0575 -0.4799
   45DOPE  H15X 5794   4.838   0.488  14.512 -0.7923  1.8424 -1.1974
   45DOPE  H15Y 5795   4.685   0.415  14.457  0.4302 -2.1425  0.1042
   45DOPE  C316 5796   4.775   0.331  14.641  0.0411 -0.3120  0.0572
   45DOPE  H16X 5797   4.678   0.309  14.689 -0.1835 -0.2867 -0.3801
   45DOPE  H16Y 5798   4.844   0.378  14.715  1.5212 -1.8141 -0.3128
   45DOPE  C317 5799   4.833   0.224  14.565 -0.4816 -0.1550  1.5403
   45DOPE  H17X 5800   4.763   0.203  14.481  0.5420 -1.3616  0.9623
   45DOPE  H17Y 5801   4.927   0.261  14.520  0.4232 -0.3954  3.1886
   45DOPE  C318 5802   4.875   0.102  14.642  0.6605  0.2933  0.0334
   45DOPE  H18X 5803   4.968   0.121  14.699  0.5237 -1.9759  1.1225
   45DOPE  H18Y 5804   4.797   0.076  14.717  0.8250  0.2647  0.1955
   45DOPE  H18Z 5805   4.880   0.018  14.569  0.1019  1.8373 -1.8754
   46DOPE     N 5806   4.477   7.168  13.285 -0.2496 -0.5649 -0.8455
   46DOPE   HN1 5807   4.480   7.168  13.389  2.5025 -1.0721 -0.8433
   46DOPE   HN2 5808   4.421   7.250  13.255  1.3081  0.7818 -0.2059
   46DOPE   HN3 5809   4.427   7.084  13.248 -0.4100 -0.5454 -0.6759
   46DOPE   C12 5810   4.619   7.156  13.240 -0.5653 -0.0207 -0.0380
   46DOPE  H12A 5811   4.653   7.056  13.274 -2.4867 -0.7211 -0.0564
   46DOPE  H12B 5812   4.677   7.229  13.302  1.4138  0.2531 -2.0602
   46DOPE   C11 5813   4.645   7.182  13.092  0.0272  0.5523 -0.1521
   46DOPE  H11A 5814   4.755   7.197  13.087  0.1415  0.4420  1.4945
   46DOPE  H11B 5815   4.584   7.272  13.069 -0.4510  0.5614  1.0584
   46DOPE     P 5816   4.683   6.927  13.009 -0.4102  0.1238 -0.3339
   46DOPE   O13 5817   4.824   6.950  13.046  0.0231  0.1609  0.5031
   46DOPE   O14 5818   4.658   6.847  12.887 -0.0966 -0.3546 -0.0665
   46DOPE   O11 5819   4.623   6.845  13.141  0.5789 -0.2078  0.5702
   46DOPE   O12 5820   4.610   7.061  13.014 -0.2603  0.1045  0.3947
   46DOPE    C1 5821   4.667   6.709  13.149  0.3150 -0.5467  0.0929
   46DOPE    HA 5822   4.777   6.697  13.137  0.1937  0.4906 -2.5512
   46DOPE    HB 5823   4.621   6.635  13.080  1.4248 -1.6146  0.4477
   46DOPE    C2 5824   4.627   6.646  13.288  0.5358 -0.4172  0.4575
   46DOPE    HS 5825   4.525   6.685  13.311 -0.1407 -0.7591 -1.6811
   46DOPE   O21 5826   4.730   6.675  13.382  0.0384  0.4352 -0.5424
   46DOPE   C21 5827   4.701   6.771  13.470  0.1300  0.7623  0.3603
   46DOPE   O22 5828   4.602   6.840  13.466  0.3512 -0.0584  0.1014
   46DOPE   C22 5829   4.817   6.763  13.569  0.0412 -0.6047 -0.7057
   46DOPE   H2R 5830   4.911   6.804  13.527 -0.2685  0.3296 -0.5045
   46DOPE   H2S 5831   4.838   6.655  13.587 -2.3510 -1.0173  0.0078
   46DOPE    C3 5832   4.600   6.499  13.281  0.3927  0.0377  0.4017
   46DOPE    HX 5833   4.692   6.449  13.244  2.1437  0.7440  3.4567
   46DOPE    HY 5834   4.524   6.481  13.203 -0.0769  0.1777  0.8194
   46DOPE   O31 5835   4.568   6.441  13.409 -0.7071  0.3150 -0.5909
   46DOPE   C31 5836   4.436   6.438  13.445  0.1192  0.9429  0.2003
   46DOPE   O32 5837   4.347   6.482  13.370 -0.2903 -0.3081 -0.0494
   46DOPE   C32 5838   4.400   6.389  13.583  0.0133 -0.1056  0.2510
   46DOPE   H2X 5839   4.479   6.324  13.627 -2.0864 -1.8404  1.6482
   46DOPE   H2Y 5840   4.379   6.481  13.641 -2.6471 -0.0998 -0.6000
   46DOPE   C23 5841   4.796   6.844  13.702  0.1279  1.2067  0.3423
   46DOPE   H3R 5842   4.752   6.942  13.673  2.5917  1.8601 -1.6623
   46DOPE   H3S 5843   4.892   6.845  13.758  0.5775 -0.6007 -0.3159
   46DOPE   C24 5844   4.702   6.782  13.800 -0.5222  0.5579  0.0165
   46DOPE   H4R 5845   4.601   6.795  13.757 -0.1540  1.3919 -0.6369
   46DOPE   H4S 5846   4.716   6.826  13.901  2.0025  1.7974 -0.7645
   46DOPE   C25 5847   4.718   6.628  13.810  0.2480 -0.2620 -0.4521
   46DOPE   H5R 5848   4.820   6.600  13.843 -0.1026 -1.8810 -0.6643
   46DOPE   H5S 5849   4.689   6.586  13.712  1.4789 -1.9009 -0.1500
   46DOPE   C26 5850   4.629   6.566  13.920  0.3064 -0.5278  0.4555
   46DOPE   H6R 5851   4.522   6.565  13.887  0.3338  0.4706  0.3075
   46DOPE   H6S 5852   4.641   6.623  14.014  1.0670 -0.3540  0.2587
   46DOPE   C27 5853   4.666   6.423  13.941  0.4850 -0.3584 -0.1358
   46DOPE   H7R 5854   4.769   6.409  13.980  0.9148  0.3977 -0.9688
   46DOPE   H7S 5855   4.681   6.385  13.837 -1.3487  2.3081 -1.4952
   46DOPE   C28 5856   4.550   6.355  14.024 -0.1606 -0.4207 -0.0705
   46DOPE   H8R 5857   4.567   6.246  14.038 -0.8626 -0.1870  3.4373
   46DOPE   H8S 5858   4.455   6.368  13.967 -0.7452 -0.2963  0.9101
   46DOPE   C29 5859   4.544   6.422  14.155 -0.1421  0.1895  0.1989
   46DOPE   H9R 5860   4.463   6.495  14.166 -0.3116  0.4418 -2.2060
   46DOPE  C210 5861   4.610   6.381  14.269  0.2281 -0.4946  0.0898
   46DOPE  H10R 5862   4.599   6.441  14.361  1.4577 -0.1630  0.0346
   46DOPE  C211 5863   4.703   6.265  14.281  0.5378 -0.5101 -0.2340
   46DOPE  H11R 5864   4.802   6.312  14.267  0.9834 -0.9782  1.2113
   46DOPE  H11S 5865   4.695   6.191  14.198  2.6113 -0.3845 -0.5925
   46DOPE  C212 5866   4.697   6.187  14.410 -0.0929  0.1028 -0.3551
   46DOPE  H12R 5867   4.594   6.150  14.422 -0.0553  0.0876 -0.0829
   46DOPE  H12S 5868   4.713   6.247  14.502  0.4681  1.5647 -1.3715
   46DOPE  C213 5869   4.790   6.065  14.427 -0.0815  0.1658  0.2914
   46DOPE  H13R 5870   4.896   6.096  14.436  0.4189 -0.9459 -1.2121
   46DOPE  H13S 5871   4.789   6.016  14.327 -1.2700  2.5034 -0.9224
   46DOPE  C214 5872   4.759   5.974  14.547  0.2006  0.3639  0.1620
   46DOPE  H14R 5873   4.789   5.868  14.538  1.9216  0.7543  0.9181
   46DOPE  H14S 5874   4.648   5.975  14.541  0.1406 -0.2622  0.9712
   46DOPE  C215 5875   4.802   6.026  14.687  0.6581 -0.7469  0.6041
   46DOPE  H15R 5876   4.806   6.137  14.685  1.2397 -0.7714 -0.0426
   46DOPE  H15S 5877   4.907   5.993  14.705  0.8388  0.0333  1.0217
   46DOPE  C216 5878   4.714   5.962  14.801  0.4026 -0.2257 -0.1785
   46DOPE  H16R 5879   4.694   5.857  14.769  0.0742 -0.5080  0.9064
   46DOPE  H16S 5880   4.615   6.010  14.789 -0.3106 -1.5390  0.1712
   46DOPE  C217 5881   4.779   5.965  14.935  0.4004 -0.6327  1.1276
   46DOPE  H17R 5882   4.804   6.066  14.975 -0.8663  0.8193 -1.4943
   46DOPE  H17S 5883   4.872   5.904  14.925  1.0202  0.6046 -1.3550
   46DOPE  C218 5884   4.690   5.880  15.022 -0.5482  0.0440 -0.2541
   46DOPE  H18R 5885   4.589   5.922  15.036 -0.6418  0.2602 -1.5016
   46DOPE  H18S 5886   4.731   5.877  15.126  0.1745 -0.8577 -0.5445
   46DOPE  H18T 5887   4.679   5.776  14.984  0.4906 -0.1274 -0.1196
   46DOPE   C33 5888   4.279   6.296  13.582 -0.4629  1.3585  0.0909
   46DOPE   H3X 5889   4.289   6.213  13.508 -1.0046  0.0543  1.4395
   46DOPE   H3Y 5890   4.178   6.338  13.565 -0.8556  0.1248 -0.8074
   46DOPE   C34 5891   4.269   6.222  13.717  0.2273  0.5370  0.2950
   46DOPE   H4X 5892   4.192   6.143  13.705 -0.6724  1.6077 -1.3664
   46DOPE   H4Y 5893   4.367   6.174  13.737 -0.7511 -1.1652  1.2520
   46DOPE   C35 5894   4.207   6.314  13.820  0.0737  0.4291 -0.1805
   46DOPE   H5X 5895   4.112   6.342  13.770 -1.3279 -1.8932  1.0157
   46DOPE   H5Y 5896   4.258   6.412  13.834 -2.7907  2.1451 -0.9654
   46DOPE   C36 5897   4.175   6.246  13.951  0.3794  0.0521 -0.1185
   46DOPE   H6X 5898   4.264   6.190  13.984  0.3425 -0.5495 -0.9882
   46DOPE   H6Y 5899   4.091   6.174  13.937 -0.2800  0.7981 -0.1166
   46DOPE   C37 5900   4.132   6.351  14.053  0.6492  0.2704  0.1046
   46DOPE   H7X 5901   4.194   6.438  14.021  2.2945 -0.9345 -0.1235
   46DOPE   H7Y 5902   4.026   6.377  14.033 -0.2430 -2.5433  0.7704
   46DOPE   C38 5903   4.157   6.302  14.197  0.0135 -0.0848 -0.3346
   46DOPE   H8X 5904   4.130   6.385  14.266  0.8807  0.0516 -0.1455
   46DOPE   H8Y 5905   4.265   6.275  14.199 -0.8135 -4.1536 -1.4169
   46DOPE   C39 5906   4.087   6.179  14.242 -0.6611 -0.4259  0.2940
   46DOPE   H9X 5907   3.984   6.178  14.203 -1.1069  2.2715  1.1525
   46DOPE  C310 5908   4.135   6.079  14.318 -0.0168 -0.2895  0.2636
   46DOPE  H10X 5909   4.063   6.004  14.355 -1.8967  1.0731 -0.5366
   46DOPE  C311 5910   4.269   6.054  14.379  0.0046 -0.1861  0.1587
   46DOPE  H11X 5911   4.312   6.151  14.413 -1.2076 -0.2503  1.9805
   46DOPE  H11Y 5912   4.265   5.983  14.463  1.4372  0.7821  1.0882
   46DOPE  C312 5913   4.360   5.991  14.273  0.4667 -0.0691  0.3790
   46DOPE  H12X 5914   4.443   6.059  14.244  1.4174 -1.7030 -0.9681
   46DOPE  H12Y 5915   4.316   5.972  14.172  0.8321  0.6350  0.0780
   46DOPE  C313 5916   4.418   5.864  14.326  0.3199 -0.2946 -0.1074
   46DOPE  H13X 5917   4.462   5.871  14.427  1.5661 -0.3524 -0.6197
   46DOPE  H13Y 5918   4.332   5.795  14.341  0.4697 -0.2868  0.7891
   46DOPE  C314 5919   4.522   5.816  14.226 -0.2606  0.4237 -0.7789
   46DOPE  H14X 5920   4.588   5.898  14.191  0.4421 -1.0841 -3.2672
   46DOPE  H14Y 5921   4.461   5.785  14.138 -0.5575  1.0922 -0.8174
   46DOPE  C315 5922   4.609   5.696  14.276 -0.8563  0.3072  0.1186
   46DOPE  H15X 5923   4.660   5.724  14.371  1.0485  1.2447 -1.1281
   46DOPE  H15Y 5924   4.685   5.682  14.196 -2.2580  3.0066 -1.8265
   46DOPE  C316 5925   4.530   5.564  14.290 -0.9326  0.4245  0.0363
   46DOPE  H16X 5926   4.448   5.571  14.215  1.0522  2.9428 -2.1038
   46DOPE  H16Y 5927   4.495   5.568  14.395  1.6064  0.8815  0.9454
   46DOPE  C317 5928   4.623   5.434  14.277 -0.0894 -0.1212  0.5941
   46DOPE  H17X 5929   4.558   5.347  14.299 -2.3348  1.6273  1.1844
   46DOPE  H17Y 5930   4.658   5.406  14.175 -2.1958  1.4151 -0.6390
   46DOPE  C318 5931   4.741   5.443  14.374  0.1604  0.5315 -0.0912
   46DOPE  H18X 5932   4.709   5.471  14.476  0.6435 -0.1199  0.2488
   46DOPE  H18Y 5933   4.782   5.340  14.368  0.7351  0.7754 -0.4916
   46DOPE  H18Z 5934   4.823   5.505  14.332  0.4498  0.3861  0.2554
   47DOPE     N 5935   0.840   5.390  12.995  0.5047  0.3613  0.1897
   47DOPE   HN1 5936   0.786   5.302  13.009  0.3722  0.6770  1.7956
   47DOPE   HN2 5937   0.780   5.470  12.967 -1.3548 -1.1463 -0.3034
   47DOPE   HN3 5938   0.905   5.367  12.917 -1.3495 -1.3245 -0.9530
   47DOPE   C12 5939   0.913   5.420  13.125 -0.4497  0.4457 -1.2371
   47DOPE  H12A 5940   0.844   5.395  13.208  3.0263  1.2620  2.1600
   47DOPE  H12B 5941   0.926   5.530  13.134  0.7470  0.2361 -0.3367
   47DOPE   C11 5942   1.059   5.362  13.133  0.2699  0.3220 -0.9873
   47DOPE  H11A 5943   1.060   5.252  13.115 -1.2824 -0.0675  0.9946
   47DOPE  H11B 5944   1.096   5.381  13.236 -0.2676  2.9066 -1.1995
   47DOPE     P 5945   1.287   5.454  13.037 -0.3998 -0.0521 -0.2794
   47DOPE   O13 5946   1.330   5.591  12.988  0.0816 -0.3406  0.7365
   47DOPE   O14 5947   1.345   5.334  12.977 -0.2854 -0.0474 -0.0694
   47DOPE   O11 5948   1.317   5.442  13.188 -0.4858 -0.2078 -0.1274
   47DOPE   O12 5949   1.135   5.444  13.035 -0.6329 -0.0585 -0.5356
   47DOPE    C1 5950   1.315   5.565  13.264 -0.2570  0.3643  0.1511
   47DOPE    HA 5951   1.212   5.605  13.275 -0.1879  1.0458 -1.3282
   47DOPE    HB 5952   1.389   5.639  13.226 -1.3725  0.9162 -1.0249
   47DOPE    C2 5953   1.369   5.540  13.410  0.1473  0.6040  0.2416
   47DOPE    HS 5954   1.465   5.488  13.391 -0.0102  0.5251 -0.3576
   47DOPE   O21 5955   1.270   5.454  13.479 -0.1218 -0.2174 -0.1964
   47DOPE   C21 5956   1.328   5.370  13.570 -0.1380  0.1876 -0.2929
   47DOPE   O22 5957   1.449   5.365  13.598  0.6053  0.0983 -0.1294
   47DOPE   C22 5958   1.210   5.302  13.641 -0.5840  0.2971 -0.4646
   47DOPE   H2R 5959   1.153   5.222  13.588  0.6428 -1.8738  1.3126
   47DOPE   H2S 5960   1.125   5.373  13.653 -0.9122 -0.1928  0.1530
   47DOPE    C3 5961   1.381   5.666  13.497 -0.2365 -0.6184 -0.0386
   47DOPE    HX 5962   1.280   5.710  13.509  1.0819  2.6620 -0.0982
   47DOPE    HY 5963   1.424   5.752  13.442 -2.5926  1.1411  0.6941
   47DOPE   O31 5964   1.441   5.649  13.626  0.2085 -0.5686  0.7732
   47DOPE   C31 5965   1.574   5.633  13.620 -0.4877  0.1666  0.1580
   47DOPE   O32 5966   1.648   5.617  13.521  0.5015  0.1299  0.2515
   47DOPE   C32 5967   1.642   5.634  13.763  0.3787 -0.8203  0.3338
   47DOPE   H2X 5968   1.626   5.733  13.812  0.7084 -0.9531  0.7157
   47DOPE   H2Y 5969   1.584   5.555  13.815 -1.5176  0.2461 -0.0584
   47DOPE   C23 5970   1.248   5.244  13.784  0.6150 -0.2404  0.1487
   47DOPE   H3R 5971   1.313   5.315  13.840  1.5079  2.4455 -3.9388
   47DOPE   H3S 5972   1.316   5.163  13.750 -0.1669 -0.5768 -0.6531
   47DOPE   C24 5973   1.138   5.175  13.856 -0.3452  0.0609 -0.1155
   47DOPE   H4R 5974   1.096   5.105  13.780  1.0610  0.6319 -1.4646
   47DOPE   H4S 5975   1.068   5.258  13.879 -1.4744 -0.2286 -2.1912
   47DOPE   C25 5976   1.182   5.092  13.976  0.4441 -0.0269  0.3003
   47DOPE   H5R 5977   1.243   5.161  14.038  1.4752  1.1580 -1.9083
   47DOPE   H5S 5978   1.243   5.009  13.933  0.3560  0.3380 -0.5568
   47DOPE   C26 5979   1.067   5.026  14.055  0.0566  0.0185 -0.0364
   47DOPE   H6R 5980   0.982   5.097  14.064 -1.4272 -1.6352 -0.4240
   47DOPE   H6S 5981   1.095   4.990  14.156 -2.2815 -0.5800  0.4705
   47DOPE   C27 5982   0.991   4.904  13.998  0.0335 -0.4343  0.2614
   47DOPE   H7R 5983   1.070   4.827  13.985  1.9519  1.4017  0.5022
   47DOPE   H7S 5984   0.958   4.926  13.894  2.2245 -0.5747 -0.5009
   47DOPE   C28 5985   0.881   4.853  14.090  0.5786 -0.4202  0.2764
   47DOPE   H8R 5986   0.817   4.788  14.025  0.3105  1.3047 -1.2500
   47DOPE   H8S 5987   0.811   4.934  14.119 -0.3413 -1.1042  0.0475
   47DOPE   C29 5988   0.922   4.777  14.211 -0.5354  0.3065  0.1299
   47DOPE   H9R 5989   0.941   4.671  14.189  1.9722  0.4754  1.1874
   47DOPE  C210 5990   0.918   4.814  14.341 -0.4978  0.2486 -0.7001
   47DOPE  H10R 5991   0.962   4.748  14.416  0.9937  0.4841 -1.3416
   47DOPE  C211 5992   0.880   4.953  14.394  0.1371 -0.2190  0.8460
   47DOPE  H11R 5993   0.777   4.945  14.435  0.3846  1.5737  1.9105
   47DOPE  H11S 5994   0.892   5.027  14.313  1.5928 -0.9296  0.3781
   47DOPE  C212 5995   0.966   5.003  14.507 -0.6085  0.2912 -0.0509
   47DOPE  H12R 5996   1.072   4.983  14.477  0.2626  3.6938  0.3163
   47DOPE  H12S 5997   0.938   4.949  14.599 -0.0636 -1.2014 -0.7251
   47DOPE  C213 5998   0.956   5.151  14.543  0.1232 -0.0065 -0.1803
   47DOPE  H13R 5999   0.849   5.180  14.556 -0.0944  0.8346 -3.0790
   47DOPE  H13S 6000   0.990   5.211  14.456  0.4542 -0.8835 -0.6738
   47DOPE  C214 6001   1.045   5.198  14.660 -0.1056  0.3006 -0.1551
   47DOPE  H14R 6002   1.135   5.134  14.662  0.1450  0.6542  1.5335
   47DOPE  H14S 6003   0.995   5.177  14.757  0.2559 -0.2661 -0.0861
   47DOPE  C215 6004   1.109   5.337  14.659  0.8082 -0.2041  0.0667
   47DOPE  H15R 6005   1.132   5.376  14.558  1.0396  1.2602  0.6578
   47DOPE  H15S 6006   1.208   5.343  14.709  0.0721  0.0755  1.5721
   47DOPE  C216 6007   1.033   5.440  14.750 -0.6020 -0.9193  0.3693
   47DOPE  H16R 6008   1.100   5.527  14.767 -0.0521 -1.3487  0.4403
   47DOPE  H16S 6009   1.018   5.403  14.854 -0.7944  0.3529  0.8030
   47DOPE  C217 6010   0.904   5.484  14.679  0.0880 -0.7684  0.7835
   47DOPE  H17R 6011   0.859   5.402  14.619  0.1193 -0.4047  0.2528
   47DOPE  H17S 6012   0.938   5.554  14.599 -0.2235 -0.4295  0.9407
   47DOPE  C218 6013   0.803   5.553  14.773  0.1292  0.4663 -0.1659
   47DOPE  H18R 6014   0.832   5.649  14.822 -0.6588  1.6499 -1.9116
   47DOPE  H18S 6015   0.767   5.479  14.848  0.9906  0.8899  0.6947
   47DOPE  H18T 6016   0.712   5.576  14.714  0.2677  1.1963 -0.1071
   47DOPE   C33 6017   1.792   5.601  13.758  0.5297  0.2134  0.2125
   47DOPE   H3X 6018   1.840   5.644  13.849 -1.0558  0.7223  0.8489
   47DOPE   H3Y 6019   1.839   5.661  13.677  0.1825 -0.1556 -0.2677
   47DOPE   C34 6020   1.821   5.454  13.747 -0.1726  0.7180 -0.2937
   47DOPE   H4X 6021   1.746   5.417  13.673 -1.6109  1.2480  0.8324
   47DOPE   H4Y 6022   1.921   5.437  13.703 -1.5658 -3.8523 -2.2543
   47DOPE   C35 6023   1.809   5.381  13.884  0.3832  0.0828 -0.2774
   47DOPE   H5X 6024   1.711   5.410  13.927  2.0529  4.2912  1.1684
   47DOPE   H5Y 6025   1.892   5.425  13.943 -1.4263 -2.2098  4.4773
   47DOPE   C36 6026   1.823   5.226  13.880  0.6433 -0.5851 -0.7311
   47DOPE   H6X 6027   1.897   5.194  13.802  2.0208  0.5069  0.0740
   47DOPE   H6Y 6028   1.728   5.183  13.844 -0.3891 -0.1439  1.3623
   47DOPE   C37 6029   1.873   5.166  14.012  0.3063 -0.0499  0.7950
   47DOPE   H7X 6030   1.808   5.193  14.097  1.1726 -0.2527  1.5327
   47DOPE   H7Y 6031   1.865   5.056  13.999 -0.0372  0.1921 -1.6155
   47DOPE   C38 6032   2.017   5.199  14.059 -0.5602 -0.3588  0.1381
   47DOPE   H8X 6033   2.009   5.274  14.140 -2.0674 -1.1419  0.7365
   47DOPE   H8Y 6034   2.078   5.246  13.978 -1.2183 -3.2291 -2.2064
   47DOPE   C39 6035   2.098   5.084  14.108 -0.6044 -0.2104 -0.5057
   47DOPE   H9X 6036   2.174   5.044  14.039  0.3351  0.5824  0.0453
   47DOPE  C310 6037   2.073   5.019  14.224  0.3484  0.5459 -0.3530
   47DOPE  H10X 6038   2.132   4.935  14.263 -0.4374 -0.4077 -1.1489
   47DOPE  C311 6039   1.954   5.043  14.318 -1.0046 -0.6851 -0.2572
   47DOPE  H11X 6040   1.860   5.042  14.259 -0.1494 -2.0108 -1.6668
   47DOPE  H11Y 6041   1.941   4.962  14.393  1.1269 -1.2859 -0.4714
   47DOPE  C312 6042   1.959   5.172  14.410  0.3424 -1.0652 -0.1263
   47DOPE  H12X 6043   1.988   5.255  14.343  0.9650 -1.7099 -0.6811
   47DOPE  H12Y 6044   2.026   5.168  14.499 -1.7439 -0.4924  1.5568
   47DOPE  C313 6045   1.808   5.197  14.448  0.1810  0.5977 -0.0183
   47DOPE  H13X 6046   1.752   5.202  14.352  0.1176 -2.5997 -0.2546
   47DOPE  H13Y 6047   1.766   5.110  14.502  0.2688 -0.4837 -1.6118
   47DOPE  C314 6048   1.786   5.317  14.550  0.4077  0.5481  0.3339
   47DOPE  H14X 6049   1.679   5.333  14.576  0.4515  0.5608  0.5040
   47DOPE  H14Y 6050   1.826   5.409  14.501  0.5138  0.5954  0.5109
   47DOPE  C315 6051   1.872   5.301  14.673 -0.0124  0.3613  0.8505
   47DOPE  H15X 6052   1.977   5.299  14.637 -0.6808 -3.9701 -1.5387
   47DOPE  H15Y 6053   1.833   5.205  14.715  0.2315 -1.1067 -2.0600
   47DOPE  C316 6054   1.860   5.404  14.786  0.4211 -0.0489 -0.6876
   47DOPE  H16X 6055   1.903   5.499  14.749 -1.5302  1.0348 -0.3439
   47DOPE  H16Y 6056   1.918   5.361  14.871 -0.4851  2.1854  1.1858
   47DOPE  C317 6057   1.716   5.428  14.832 -0.8367 -0.6856 -0.0087
   47DOPE  H17X 6058   1.654   5.472  14.751 -0.6710 -1.6346 -0.6614
   47DOPE  H17Y 6059   1.670   5.335  14.871  1.8379 -2.1757 -0.1943
   47DOPE  C318 6060   1.710   5.530  14.948 -0.1409  0.5867  0.4931
   47DOPE  H18X 6061   1.612   5.574  14.975  0.0692  0.9758  0.6214
   47DOPE  H18Y 6062   1.747   5.481  15.040  0.2580 -2.7798 -1.2909
   47DOPE  H18Z 6063   1.774   5.617  14.921  0.1779  0.4205  0.7125
   48DOPE     N 6064   7.125   2.605  13.279 -0.0242  0.8411 -0.4533
   48DOPE   HN1 6065   7.216   2.603  13.330  0.3496 -0.9553 -1.1135
   48DOPE   HN2 6066   7.067   2.691  13.289 -1.9206 -0.2739 -1.4079
   48DOPE   HN3 6067   7.070   2.525  13.316  0.0554  1.5818  1.3830
   48DOPE   C12 6068   7.147   2.604  13.127  0.1457 -0.3020 -0.1641
   48DOPE  H12A 6069   7.208   2.517  13.092  2.2627  0.8645  0.4343
   48DOPE  H12B 6070   7.191   2.702  13.097  3.1068 -2.2424 -2.7919
   48DOPE   C11 6071   7.007   2.590  13.062  0.3715 -0.6995  0.9866
   48DOPE  H11A 6072   7.016   2.602  12.952 -1.5820  3.0315  1.0794
   48DOPE  H11B 6073   6.949   2.683  13.081 -1.3936 -1.4953 -0.2837
   48DOPE     P 6074   6.922   2.345  13.008  0.2797  0.2030  0.3585
   48DOPE   O13 6075   7.051   2.292  12.968  0.4901  0.2816 -0.5239
   48DOPE   O14 6076   6.822   2.367  12.900  0.0160 -0.3285 -0.1662
   48DOPE   O11 6077   6.854   2.232  13.094 -0.8756  0.5939  0.1887
   48DOPE   O12 6078   6.935   2.469  13.104 -0.4262 -0.3439  0.4830
   48DOPE    C1 6079   6.746   2.243  13.181 -0.4636  0.4496  0.5947
   48DOPE    HA 6080   6.704   2.142  13.201 -1.7930  0.4338 -1.9976
   48DOPE    HB 6081   6.669   2.307  13.134  1.0737  1.5000 -0.5881
   48DOPE    C2 6082   6.769   2.319  13.312  0.0814  0.2969 -0.0885
   48DOPE    HS 6083   6.806   2.421  13.286 -0.7169  0.6672  0.1868
   48DOPE   O21 6084   6.845   2.241  13.405 -0.4486 -0.5796 -0.1404
   48DOPE   C21 6085   6.948   2.305  13.455 -0.7803 -0.8750  0.0098
   48DOPE   O22 6086   6.973   2.423  13.438 -0.1130  0.0397 -0.3758
   48DOPE   C22 6087   7.034   2.217  13.540 -0.2998  0.1534 -0.2423
   48DOPE   H2R 6088   6.980   2.209  13.637 -0.8740  0.1360 -0.5629
   48DOPE   H2S 6089   7.134   2.266  13.544 -0.8162  1.1281  1.8767
   48DOPE    C3 6090   6.631   2.352  13.379  0.1232 -0.1143 -0.2968
   48DOPE    HX 6091   6.582   2.253  13.393  0.7471 -0.3084  0.6538
   48DOPE    HY 6092   6.576   2.410  13.303 -1.4308 -0.3724  0.5974
   48DOPE   O31 6093   6.641   2.412  13.517 -0.1157 -0.1724  0.0637
   48DOPE   C31 6094   6.656   2.541  13.499  0.0231  0.3344  0.0376
   48DOPE   O32 6095   6.656   2.603  13.395 -0.0517 -0.2427 -0.4133
   48DOPE   C32 6096   6.657   2.604  13.636 -0.2650 -0.0934 -0.2155
   48DOPE   H2X 6097   6.704   2.704  13.633 -0.9614  0.3218  1.6211
   48DOPE   H2Y 6098   6.549   2.608  13.659  0.0098  0.2491  1.0780
   48DOPE   C23 6099   7.048   2.071  13.486  0.2130  0.3813 -0.3374
   48DOPE   H3R 6100   7.147   2.042  13.528  0.8366  3.3750  0.4865
   48DOPE   H3S 6101   7.072   2.067  13.378  0.3770  1.2801 -0.3362
   48DOPE   C24 6102   6.942   1.961  13.521  0.4930  0.2364 -0.6221
   48DOPE   H4R 6103   6.970   1.863  13.477 -1.8862 -1.4126  1.2436
   48DOPE   H4S 6104   6.841   1.984  13.481  0.8966  4.0368  0.1336
   48DOPE   C25 6105   6.922   1.944  13.681  0.0391  0.1954  0.1886
   48DOPE   H5R 6106   6.849   2.023  13.710  0.0004  0.7866 -1.3967
   48DOPE   H5S 6107   7.017   1.977  13.728 -0.3964  0.2744  1.0201
   48DOPE   C26 6108   6.905   1.798  13.733 -0.0432 -0.1205 -0.5896
   48DOPE   H6R 6109   6.988   1.746  13.681  0.0130 -1.2719  0.6129
   48DOPE   H6S 6110   6.811   1.750  13.697 -1.4744  2.7127 -0.8915
   48DOPE   C27 6111   6.918   1.778  13.882  0.7076 -0.6366 -0.0139
   48DOPE   H7R 6112   6.865   1.691  13.926  3.0791 -1.3966  1.5447
   48DOPE   H7S 6113   6.868   1.865  13.931  0.1006 -2.5366  3.0337
   48DOPE   C28 6114   7.062   1.775  13.930  0.1571 -0.4413  0.4612
   48DOPE   H8R 6115   7.104   1.874  13.903 -1.1014  0.2204  0.8961
   48DOPE   H8S 6116   7.115   1.700  13.867  1.0138 -1.0901  1.8923
   48DOPE   C29 6117   7.067   1.760  14.077 -0.3088  0.6937  0.4347
   48DOPE   H9R 6118   7.006   1.836  14.127 -1.4424  0.6187 -0.7566
   48DOPE  C210 6119   7.137   1.671  14.144 -0.1590 -0.2137 -0.1885
   48DOPE  H10R 6120   7.133   1.668  14.254 -0.1912 -0.4369 -0.1955
   48DOPE  C211 6121   7.236   1.570  14.094  0.1023  0.7186 -0.1971
   48DOPE  H11R 6122   7.249   1.570  13.984  1.0744 -0.0345 -0.0993
   48DOPE  H11S 6123   7.187   1.471  14.108 -0.2847  0.8303 -0.7601
   48DOPE  C212 6124   7.371   1.586  14.153 -0.1500 -0.3967  0.1673
   48DOPE  H12R 6125   7.371   1.538  14.253 -1.7192  3.1796  2.0432
   48DOPE  H12S 6126   7.397   1.692  14.175  1.2610 -0.8673  0.8529
   48DOPE  C213 6127   7.485   1.535  14.063 -0.0127  0.5247 -0.0103
   48DOPE  H13R 6128   7.478   1.575  13.960  0.2236 -0.8882 -0.5924
   48DOPE  H13S 6129   7.476   1.424  14.055  1.1536  0.2876  1.4985
   48DOPE  C214 6130   7.628   1.578  14.121  0.1364  0.4580 -0.2201
   48DOPE  H14R 6131   7.618   1.683  14.156  1.4161  0.3336  0.6087
   48DOPE  H14S 6132   7.713   1.583  14.049  0.8350 -2.4058  0.2807
   48DOPE  C215 6133   7.664   1.480  14.230  0.0818 -0.5474 -0.0813
   48DOPE  H15R 6134   7.617   1.382  14.208  0.5762 -1.8681  3.9729
   48DOPE  H15S 6135   7.594   1.498  14.315  0.4665 -1.4929  0.4520
   48DOPE  C216 6136   7.811   1.477  14.265  0.6092  0.4367 -0.2241
   48DOPE  H16R 6137   7.834   1.579  14.302 -0.2821  1.2145 -1.6972
   48DOPE  H16S 6138   7.864   1.450  14.171 -1.5836 -1.3194 -1.0610
   48DOPE  C217 6139   7.852   1.378  14.376  0.0155  0.5505 -0.2744
   48DOPE  H17R 6140   7.951   1.410  14.415  0.1329  0.8057 -0.7789
   48DOPE  H17S 6141   7.863   1.276  14.332  1.3211  0.3286  0.5275
   48DOPE  C218 6142   7.755   1.381  14.496 -0.4490  0.2420 -0.3202
   48DOPE  H18R 6143   7.798   1.316  14.574 -1.3888 -1.1679 -0.9366
   48DOPE  H18S 6144   7.651   1.354  14.466 -0.8432 -0.4662  1.5832
   48DOPE  H18T 6145   7.752   1.486  14.533  0.0924 -0.0041  0.4336
   48DOPE   C33 6146   6.738   2.525  13.739  0.0308  0.9951  0.7131
   48DOPE   H3X 6147   6.845   2.519  13.710 -0.8021  0.8145 -2.7440
   48DOPE   H3Y 6148   6.706   2.419  13.748  0.5679  0.7938  0.3268
   48DOPE   C34 6149   6.736   2.593  13.875  0.1422 -0.4392 -0.8040
   48DOPE   H4X 6150   6.780   2.694  13.858  2.7219 -1.3263  0.1637
   48DOPE   H4Y 6151   6.634   2.612  13.915 -0.0482 -1.0529 -0.9910
   48DOPE   C35 6152   6.807   2.516  13.984 -0.5683  0.7249  0.1428
   48DOPE   H5X 6153   6.914   2.532  13.960 -0.4581 -0.1948 -0.0089
   48DOPE   H5Y 6154   6.788   2.408  13.968  2.2797 -0.0926  1.5892
   48DOPE   C36 6155   6.793   2.567  14.128 -0.4170  0.2761 -0.6940
   48DOPE   H6X 6156   6.868   2.511  14.189  0.2222  0.5180 -1.2422
   48DOPE   H6Y 6157   6.695   2.528  14.163  0.0314 -0.6801 -0.4784
   48DOPE   C37 6158   6.816   2.718  14.138 -0.2777 -0.5293 -0.5806
   48DOPE   H7X 6159   6.906   2.739  14.075 -0.0098 -1.5189 -0.5494
   48DOPE   H7Y 6160   6.728   2.763  14.088  0.3399  1.4244 -0.0111
   48DOPE   C38 6161   6.822   2.751  14.287  0.0022 -0.2899 -0.6139
   48DOPE   H8X 6162   6.734   2.705  14.338  1.6685 -2.1909  0.7053
   48DOPE   H8Y 6163   6.801   2.858  14.310  0.0275 -0.6385  1.2240
   48DOPE   C39 6164   6.943   2.702  14.357 -0.5180 -0.7742  0.5505
   48DOPE   H9X 6165   7.043   2.734  14.323 -1.1259  0.0955 -0.4816
   48DOPE  C310 6166   6.956   2.630  14.462  0.3428  0.5505 -0.2525
   48DOPE  H10X 6167   7.058   2.607  14.497  0.0252  1.1736  1.1493
   48DOPE  C311 6168   6.849   2.570  14.547 -1.0223 -0.3489  0.0067
   48DOPE  H11X 6169   6.748   2.609  14.523 -1.1501 -2.0258 -2.5080
   48DOPE  H11Y 6170   6.846   2.459  14.535  1.2044 -0.4968  0.4021
   48DOPE  C312 6171   6.894   2.583  14.697 -0.1214 -0.8009  0.0976
   48DOPE  H12X 6172   6.896   2.691  14.721  3.0610 -0.1024 -2.5949
   48DOPE  H12Y 6173   6.988   2.528  14.719  0.9907  0.9486 -0.1756
   48DOPE  C313 6174   6.799   2.506  14.786 -0.5977 -0.1905  0.5403
   48DOPE  H13X 6175   6.697   2.549  14.797  0.1979  1.7745  0.6775
   48DOPE  H13Y 6176   6.780   2.408  14.738  0.9399  0.1108 -0.7600
   48DOPE  C314 6177   6.850   2.483  14.926 -0.2257  0.0025 -0.3174
   48DOPE  H14X 6178   6.859   2.574  14.989 -1.7022 -2.0499  3.1654
   48DOPE  H14Y 6179   6.950   2.438  14.908  0.1583 -0.0006  1.5576
   48DOPE  C315 6180   6.777   2.368  15.005  0.5517  0.0251 -0.4965
   48DOPE  H15X 6181   6.745   2.289  14.934 -1.5361  0.0180  0.3623
   48DOPE  H15Y 6182   6.676   2.408  15.027  0.9489  1.3061 -0.9656
   48DOPE  C316 6183   6.842   2.327  15.131  0.3282 -0.9635 -0.0049
   48DOPE  H16X 6184   6.940   2.287  15.099 -0.1990 -1.1648 -1.4135
   48DOPE  H16Y 6185   6.779   2.245  15.170 -1.5028 -0.3441 -1.5331
   48DOPE  C317 6186   6.858   2.423  15.257  0.1476 -0.2631 -0.2438
   48DOPE  H17X 6187   6.927   2.384  15.335  0.5392  0.7676 -0.0486
   48DOPE  H17Y 6188   6.907   2.512  15.212 -2.6617  1.4421 -0.1587
   48DOPE  C318 6189   6.713   2.467  15.307  0.1866 -0.0438  0.5888
   48DOPE  H18X 6190   6.664   2.377  15.350  0.0113 -0.9757 -1.4434
   48DOPE  H18Y 6191   6.719   2.548  15.382  2.6501  0.4756 -0.0792
   48DOPE  H18Z 6192   6.634   2.487  15.233 -0.2284  0.4747  1.1663
   49DOPE     N 6193   2.297   6.554  13.171 -0.2087 -0.4728 -0.3371
   49DOPE   HN1 6194   2.390   6.546  13.215 -0.8558 -0.8855  1.0194
   49DOPE   HN2 6195   2.286   6.656  13.155 -0.5464 -0.1320  1.7257
   49DOPE   HN3 6196   2.231   6.523  13.246 -0.5291  2.1480  0.5571
   49DOPE   C12 6197   2.257   6.480  13.044  0.3588 -0.0198 -0.0758
   49DOPE  H12A 6198   2.331   6.511  12.967  2.6701 -0.5686  1.7911
   49DOPE  H12B 6199   2.163   6.520  13.000  1.3400  2.8140  0.1984
   49DOPE   C11 6200   2.254   6.333  13.085 -0.4748  0.5074 -0.0949
   49DOPE  H11A 6201   2.352   6.306  13.129  0.1033  0.4021 -1.4142
   49DOPE  H11B 6202   2.246   6.282  12.987  0.0537  1.0275 -0.4179
   49DOPE     P 6203   2.093   6.148  13.186 -0.4685  0.1581 -0.1275
   49DOPE   O13 6204   2.166   6.056  13.093  0.5773  0.0652 -0.6756
   49DOPE   O14 6205   1.948   6.137  13.198 -0.3408 -0.7274  0.1290
   49DOPE   O11 6206   2.150   6.103  13.325 -0.2733 -1.0243  0.4574
   49DOPE   O12 6207   2.143   6.297  13.169 -0.4412 -0.4949 -0.0784
   49DOPE    C1 6208   2.278   6.154  13.368 -0.0351  0.0598 -0.4907
   49DOPE    HA 6209   2.281   6.265  13.363 -0.6764  0.1777  1.0756
   49DOPE    HB 6210   2.358   6.113  13.303  2.6142 -0.0141  2.5330
   49DOPE    C2 6211   2.311   6.111  13.520 -0.3424  0.8574 -0.0642
   49DOPE    HS 6212   2.316   6.001  13.509 -1.5822  0.8392 -0.6252
   49DOPE   O21 6213   2.211   6.163  13.602  0.1221  0.1758  0.0639
   49DOPE   C21 6214   2.200   6.122  13.728  0.0090 -0.3233  0.1149
   49DOPE   O22 6215   2.268   6.043  13.789 -0.1298 -0.3287  0.2967
   49DOPE   C22 6216   2.090   6.207  13.790 -0.1370 -0.1000 -0.3481
   49DOPE   H2R 6217   2.001   6.205  13.723 -1.1015  2.0669  0.7674
   49DOPE   H2S 6218   2.124   6.313  13.786  0.7213 -0.1171  3.3388
   49DOPE    C3 6219   2.458   6.159  13.554 -0.1067 -0.1790  0.5218
   49DOPE    HX 6220   2.524   6.124  13.472 -0.1161  1.0863 -0.0572
   49DOPE    HY 6221   2.482   6.106  13.649  3.0277 -1.0780 -0.6267
   49DOPE   O31 6222   2.474   6.295  13.588  0.2302 -0.0367  0.0478
   49DOPE   C31 6223   2.569   6.366  13.526  0.2382 -0.3942 -0.5682
   49DOPE   O32 6224   2.638   6.322  13.435  0.4417 -0.0094 -0.0756
   49DOPE   C32 6225   2.563   6.509  13.577 -0.3840 -0.4849  0.0242
   49DOPE   H2X 6226   2.598   6.574  13.494 -1.6619  0.2108  0.0145
   49DOPE   H2Y 6227   2.456   6.526  13.597 -0.7623 -2.0299 -0.5148
   49DOPE   C23 6228   2.060   6.161  13.938  0.6060  0.7308 -0.7851
   49DOPE   H3R 6229   2.010   6.251  13.981 -1.5671 -0.2512 -1.1433
   49DOPE   H3S 6230   2.148   6.141  14.003  0.2180 -1.9455 -0.9715
   49DOPE   C24 6231   1.971   6.030  13.944  0.2163  0.1998  0.6246
   49DOPE   H4R 6232   2.036   5.950  13.904 -1.3278 -0.8990  0.2250
   49DOPE   H4S 6233   1.880   6.038  13.880 -0.3879 -0.3734  1.3870
   49DOPE   C25 6234   1.934   5.994  14.085  0.0592 -0.2907  0.7882
   49DOPE   H5R 6235   1.858   6.067  14.122  0.8522  1.6603 -1.2087
   49DOPE   H5S 6236   2.029   6.009  14.141  0.5060 -0.1695  0.0031
   49DOPE   C26 6237   1.881   5.850  14.088 -0.5108  0.8560  0.0986
   49DOPE   H6R 6238   1.968   5.793  14.049 -0.2599  1.5636 -0.3949
   49DOPE   H6S 6239   1.797   5.823  14.020  1.5191 -2.8971 -1.1882
   49DOPE   C27 6240   1.832   5.809  14.229 -1.2644  0.1235 -0.2616
   49DOPE   H7R 6241   1.895   5.853  14.309 -1.0531  1.1773 -0.9900
   49DOPE   H7S 6242   1.848   5.699  14.228 -1.4613  0.0702  0.9990
   49DOPE   C28 6243   1.685   5.856  14.256  0.2140 -0.7773 -0.0500
   49DOPE   H8R 6244   1.624   5.823  14.169 -2.0684 -1.7526  1.8045
   49DOPE   H8S 6245   1.687   5.967  14.262  1.8570 -0.8225  0.8406
   49DOPE   C29 6246   1.619   5.804  14.379 -0.2174  0.4093  0.5521
   49DOPE   H9R 6247   1.574   5.704  14.371  1.0423 -0.0954 -0.5800
   49DOPE  C210 6248   1.602   5.871  14.498 -0.3646  0.4819  0.2180
   49DOPE  H10R 6249   1.566   5.806  14.579  4.1096 -2.6850  0.0111
   49DOPE  C211 6250   1.649   6.009  14.530  0.2544  0.3881 -0.4958
   49DOPE  H11R 6251   1.564   6.068  14.571 -0.7764 -0.7675 -0.9079
   49DOPE  H11S 6252   1.675   6.072  14.442 -0.4224 -1.4722 -2.1274
   49DOPE  C212 6253   1.765   6.010  14.633 -0.0225  0.5125 -0.2180
   49DOPE  H12R 6254   1.748   5.943  14.719  1.4746  0.1882 -0.1614
   49DOPE  H12S 6255   1.773   6.115  14.670  1.2535  0.3209  0.0732
   49DOPE  C213 6256   1.899   5.973  14.569  0.0031 -0.0175 -0.1037
   49DOPE  H13R 6257   1.929   6.048  14.493 -0.5481 -0.5447 -0.8472
   49DOPE  H13S 6258   1.878   5.876  14.520  0.6375 -1.3233  2.0431
   49DOPE  C214 6259   2.006   5.936  14.677  0.0830 -0.6631  0.1240
   49DOPE  H14R 6260   2.009   6.016  14.754  0.7530 -0.4471 -0.1155
   49DOPE  H14S 6261   2.106   5.922  14.630  0.0892  1.6699 -0.6928
   49DOPE  C215 6262   1.975   5.805  14.745  0.0208  0.7116  0.0053
   49DOPE  H15R 6263   1.946   5.728  14.671  0.7732 -0.7223  1.1563
   49DOPE  H15S 6264   1.890   5.818  14.816 -0.9775 -1.1065 -0.8030
   49DOPE  C216 6265   2.090   5.747  14.822 -0.2483 -0.0279 -1.0036
   49DOPE  H16R 6266   2.171   5.717  14.752  2.0038 -0.9490  1.8071
   49DOPE  H16S 6267   2.050   5.657  14.873  1.5915 -0.8223 -0.8970
   49DOPE  C217 6268   2.145   5.841  14.929  0.4895  0.0758  0.7744
   49DOPE  H17R 6269   2.066   5.884  14.995  1.0416 -0.4793  1.8170
   49DOPE  H17S 6270   2.182   5.935  14.882  1.2422  0.3975  1.9906
   49DOPE  C218 6271   2.244   5.770  15.018  0.3480  0.0155  0.1791
   49DOPE  H18R 6272   2.317   5.704  14.967 -0.0891  0.4125 -0.9891
   49DOPE  H18S 6273   2.198   5.702  15.092  1.5595 -1.4931 -0.4071
   49DOPE  H18T 6274   2.302   5.852  15.067 -0.0766  1.0471 -0.9850
   49DOPE   C33 6275   2.647   6.528  13.707 -0.1034 -0.1319 -0.1102
   49DOPE   H3X 6276   2.646   6.636  13.733  0.0511  0.0474 -0.8332
   49DOPE   H3Y 6277   2.752   6.492  13.694 -0.5274 -1.5190  0.1780
   49DOPE   C34 6278   2.587   6.468  13.832 -0.0303 -0.2356 -0.4912
   49DOPE   H4X 6279   2.593   6.359  13.813 -0.1837  0.0679 -2.4305
   49DOPE   H4Y 6280   2.651   6.488  13.920 -0.0408 -0.8701 -0.3307
   49DOPE   C35 6281   2.445   6.509  13.876  0.0704  0.4998 -0.3576
   49DOPE   H5X 6282   2.381   6.516  13.785 -2.2016  1.6762  1.2308
   49DOPE   H5Y 6283   2.465   6.609  13.919  2.6601  0.3034 -0.9274
   49DOPE   C36 6284   2.367   6.417  13.973 -0.0274 -0.5452 -0.5925
   49DOPE   H6X 6285   2.356   6.311  13.940 -2.7084 -0.5749  0.1815
   49DOPE   H6Y 6286   2.263   6.454  13.989 -0.3518 -1.4099 -0.6625
   49DOPE   C37 6287   2.445   6.414  14.110  0.4255 -0.3429  0.4847
   49DOPE   H7X 6288   2.552   6.392  14.094  0.1800 -1.5508  0.4095
   49DOPE   H7Y 6289   2.443   6.516  14.155 -0.1634  0.2398 -0.7795
   49DOPE   C38 6290   2.381   6.313  14.208  0.0597 -0.2843 -0.0272
   49DOPE   H8X 6291   2.272   6.327  14.199 -0.1284 -1.7358 -0.3020
   49DOPE   H8Y 6292   2.404   6.319  14.317  0.0417 -4.2915  0.3403
   49DOPE   C39 6293   2.412   6.165  14.174  0.9837  0.4787 -0.5506
   49DOPE   H9X 6294   2.395   6.128  14.072 -0.4299  1.0473 -0.5458
   49DOPE  C310 6295   2.471   6.076  14.255 -0.0665 -0.0679  0.1304
   49DOPE  H10X 6296   2.477   5.971  14.223  1.6693 -0.1179  0.5437
   49DOPE  C311 6297   2.524   6.092  14.390  0.8549 -0.2371  0.0078
   49DOPE  H11X 6298   2.634   6.076  14.387  0.6655 -1.9165  0.8998
   49DOPE  H11Y 6299   2.494   6.189  14.435 -0.8449 -1.6188  2.0720
   49DOPE  C312 6300   2.456   5.987  14.482  0.3183 -0.2253 -0.8076
   49DOPE  H12X 6301   2.465   5.881  14.448 -1.5459 -1.2358  1.5246
   49DOPE  H12Y 6302   2.346   6.005  14.481  0.5941  1.6197 -1.5309
   49DOPE  C313 6303   2.497   5.997  14.629 -0.1405 -0.5453 -1.2400
   49DOPE  H13X 6304   2.607   5.996  14.616 -0.0599  1.9836 -1.2264
   49DOPE  H13Y 6305   2.462   6.099  14.656 -1.5895 -0.9783 -1.3945
   49DOPE  C314 6306   2.422   5.896  14.721  0.5889  0.2804 -0.0286
   49DOPE  H14X 6307   2.315   5.893  14.692  0.4088  0.9195  0.5447
   49DOPE  H14Y 6308   2.425   5.939  14.823 -1.9478 -0.2753  0.3350
   49DOPE  C315 6309   2.470   5.752  14.721 -0.2811  0.4747 -0.5622
   49DOPE  H15X 6310   2.489   5.715  14.618 -0.0766 -0.5448 -0.1772
   49DOPE  H15Y 6311   2.396   5.680  14.763  0.7669  0.0975  0.7060
   49DOPE  C316 6312   2.602   5.736  14.797 -0.9518  0.4894  0.2138
   49DOPE  H16X 6313   2.599   5.749  14.908  3.3440  1.0074  0.4449
   49DOPE  H16Y 6314   2.678   5.803  14.750 -0.8640 -0.0244 -0.3868
   49DOPE  C317 6315   2.668   5.592  14.786  0.0270  0.5843 -0.1231
   49DOPE  H17X 6316   2.590   5.519  14.815  0.4463  0.5565  0.9566
   49DOPE  H17Y 6317   2.696   5.562  14.682 -1.2535  1.7880 -0.8438
   49DOPE  C318 6318   2.786   5.577  14.879 -0.3288 -0.1801  0.2280
   49DOPE  H18X 6319   2.864   5.644  14.838 -0.5485  0.6369  1.1278
   49DOPE  H18Y 6320   2.772   5.596  14.987  0.0129 -1.3710  0.4973
   49DOPE  H18Z 6321   2.820   5.471  14.877 -1.1053 -0.4421  0.3840
   50DOPE     N 6322   0.308   4.026  12.911  0.2081 -0.0815  0.6484
   50DOPE   HN1 6323   0.385   4.096  12.900  0.7541 -0.6733  0.6092
   50DOPE   HN2 6324   0.330   3.931  12.873 -2.6195 -0.7448  0.4971
   50DOPE   HN3 6325   0.225   4.062  12.860  0.3018  1.3244  1.4359
   50DOPE   C12 6326   0.263   4.015  13.051 -0.9130  0.0805 -0.1447
   50DOPE  H12A 6327   0.342   3.953  13.098  0.6309  1.3316 -0.9707
   50DOPE  H12B 6328   0.163   3.969  13.040  0.6827 -3.4970 -1.3924
   50DOPE   C11 6329   0.267   4.146  13.136 -0.1408 -0.4319 -0.0367
   50DOPE  H11A 6330   0.371   4.173  13.164  0.0370 -1.2548  0.1238
   50DOPE  H11B 6331   0.200   4.116  13.219 -2.5710  0.6297 -1.4938
   50DOPE     P 6332   0.059   4.304  13.098 -0.2392  0.5615  0.1945
   50DOPE   O13 6333  -0.034   4.196  13.058  0.0946  0.0984 -0.0909
   50DOPE   O14 6334   0.038   4.440  13.043  0.2978  0.8291 -0.1005
   50DOPE   O11 6335   0.062   4.314  13.256  0.1731  0.0046 -0.5640
   50DOPE   O12 6336   0.209   4.257  13.060  0.4909  0.1493  0.1948
   50DOPE    C1 6337   0.157   4.400  13.323  0.4324  0.4460  0.5342
   50DOPE    HA 6338   0.124   4.506  13.310  0.5611  0.1977 -2.3510
   50DOPE    HB 6339   0.257   4.391  13.276  0.1036 -0.9581  0.0795
   50DOPE    C2 6340   0.165   4.366  13.469 -1.0176  0.4179  0.0728
   50DOPE    HS 6341   0.178   4.256  13.469 -2.6810  0.1832  0.7043
   50DOPE   O21 6342   0.043   4.398  13.534 -0.2257 -0.3728 -0.4344
   50DOPE   C21 6343   0.000   4.298  13.612  0.2868 -0.5178  0.2467
   50DOPE   O22 6344   0.043   4.185  13.624 -0.0205 -0.4010 -0.1223
   50DOPE   C22 6345  -0.119   4.359  13.695  0.6752  0.3651  0.4730
   50DOPE   H2R 6346  -0.201   4.377  13.622 -0.4009  1.3992  1.8815
   50DOPE   H2S 6347  -0.082   4.451  13.744  1.3096  1.7681 -2.4021
   50DOPE    C3 6348   0.279   4.442  13.538  0.0886 -0.1777  0.1143
   50DOPE    HX 6349   0.240   4.544  13.517 -1.9460 -0.9466 -0.0564
   50DOPE    HY 6350   0.378   4.443  13.489 -0.3674  4.1734 -1.1524
   50DOPE   O31 6351   0.284   4.433  13.682  0.4076  0.4912 -0.3396
   50DOPE   C31 6352   0.365   4.340  13.722 -0.0175  0.0180  0.1815
   50DOPE   O32 6353   0.438   4.271  13.649  0.1193 -0.1081  0.1932
   50DOPE   C32 6354   0.364   4.340  13.872 -0.5558  0.0090  0.2128
   50DOPE   H2X 6355   0.300   4.416  13.921 -1.7286  0.2542 -1.6312
   50DOPE   H2Y 6356   0.324   4.238  13.891 -0.5141 -0.4344 -1.8903
   50DOPE   C23 6357  -0.167   4.260  13.805 -0.3117  0.0577  0.0787
   50DOPE   H3R 6358  -0.155   4.158  13.762  0.3119  1.5328 -3.6931
   50DOPE   H3S 6359  -0.277   4.270  13.809 -0.2647  0.0681  2.1041
   50DOPE   C24 6360  -0.109   4.293  13.944  0.0204  0.3815 -0.2878
   50DOPE   H4R 6361  -0.156   4.220  14.014 -2.8717 -0.3828 -2.8188
   50DOPE   H4S 6362  -0.142   4.392  13.981  0.8977  0.2703  0.8544
   50DOPE   C25 6363   0.041   4.286  13.956 -0.2138 -0.3872  0.8349
   50DOPE   H5R 6364   0.095   4.350  13.883 -0.3823 -2.7737 -1.5174
   50DOPE   H5S 6365   0.073   4.183  13.929  0.0710  0.0650 -0.6348
   50DOPE   C26 6366   0.097   4.321  14.098  0.1866 -0.4204  0.2042
   50DOPE   H6R 6367   0.038   4.407  14.134 -1.5674 -0.8385 -1.5248
   50DOPE   H6S 6368   0.206   4.343  14.101 -0.1095  1.0961  1.3092
   50DOPE   C27 6369   0.085   4.194  14.192  0.0533 -0.3287  0.9689
   50DOPE   H7R 6370   0.100   4.097  14.140 -2.6019 -0.8805  1.0911
   50DOPE   H7S 6371  -0.015   4.187  14.240 -1.2593  1.9737 -1.2232
   50DOPE   C28 6372   0.195   4.198  14.303 -0.2385  0.1932 -0.5862
   50DOPE   H8R 6373   0.175   4.283  14.372  0.2383 -0.0351 -0.1547
   50DOPE   H8S 6374   0.293   4.216  14.254 -0.5242  0.8467 -0.9160
   50DOPE   C29 6375   0.188   4.070  14.391  0.3400 -0.0614 -0.3756
   50DOPE   H9R 6376   0.088   4.023  14.392  0.1337  0.3663 -0.3474
   50DOPE  C210 6377   0.279   4.006  14.468  0.3639 -0.0910 -0.0816
   50DOPE  H10R 6378   0.246   3.925  14.533  1.4776 -0.3490  0.1913
   50DOPE  C211 6379   0.421   4.055  14.479 -0.1369 -0.4103 -0.3618
   50DOPE  H11R 6380   0.450   4.147  14.423 -1.2160  0.5178  0.5594
   50DOPE  H11S 6381   0.479   3.977  14.425  0.0926  0.4920 -1.4791
   50DOPE  C212 6382   0.480   4.074  14.623  0.2292  0.0608  0.3045
   50DOPE  H12R 6383   0.586   4.106  14.614 -0.0267  1.2950  1.4314
   50DOPE  H12S 6384   0.485   3.984  14.688  1.7289 -0.6696 -0.7354
   50DOPE  C213 6385   0.402   4.185  14.696 -0.4519  0.1562 -0.8011
   50DOPE  H13R 6386   0.305   4.138  14.723 -0.6163  0.1714 -1.3694
   50DOPE  H13S 6387   0.378   4.263  14.621 -2.1263  1.2293  0.7520
   50DOPE  C214 6388   0.485   4.224  14.823 -0.8905 -0.1386 -0.9618
   50DOPE  H14R 6389   0.590   4.252  14.800 -0.1565 -1.2722  0.7764
   50DOPE  H14S 6390   0.481   4.131  14.884  0.8975 -0.6520 -1.5584
   50DOPE  C215 6391   0.437   4.341  14.903  0.5676  0.0061 -0.4418
   50DOPE  H15R 6392   0.333   4.314  14.932  0.8677 -1.4951 -0.7070
   50DOPE  H15S 6393   0.433   4.435  14.844  1.3983 -0.0857 -0.6521
   50DOPE  C216 6394   0.521   4.365  15.030  0.6679  0.9674  1.4594
   50DOPE  H16R 6395   0.503   4.277  15.095  2.8572 -1.6995 -1.2409
   50DOPE  H16S 6396   0.473   4.450  15.083 -2.9058  0.3811 -0.5516
   50DOPE  C217 6397   0.675   4.392  15.007  0.1227  0.1532 -0.0320
   50DOPE  H17R 6398   0.674   4.479  14.938  0.1125  0.3956  0.2731
   50DOPE  H17S 6399   0.728   4.304  14.964 -2.3593 -1.2549 -0.4046
   50DOPE  C218 6400   0.749   4.431  15.133 -0.2962  0.8769  0.1313
   50DOPE  H18R 6401   0.689   4.506  15.190  0.8502  2.4299 -0.6140
   50DOPE  H18S 6402   0.845   4.474  15.098  1.8047 -3.2206  0.3685
   50DOPE  H18T 6403   0.782   4.345  15.194  1.2667 -0.8911 -2.9603
   50DOPE   C33 6404   0.502   4.363  13.929  0.4914 -0.0918  0.0484
   50DOPE   H3X 6405   0.532   4.470  13.929 -3.2914  1.2314  3.6622
   50DOPE   H3Y 6406   0.588   4.311  13.880 -0.3612 -0.4898 -1.0748
   50DOPE   C34 6407   0.501   4.333  14.077  0.9027  1.0248 -0.2077
   50DOPE   H4X 6408   0.427   4.394  14.134  1.0066  1.4087 -0.4797
   50DOPE   H4Y 6409   0.478   4.233  14.118 -1.9125  2.5637  2.4358
   50DOPE   C35 6410   0.641   4.360  14.135  1.1530  0.2303  0.2422
   50DOPE   H5X 6411   0.661   4.468  14.152  0.3608  0.5880 -1.0047
   50DOPE   H5Y 6412   0.719   4.321  14.066  1.1203 -0.9671  0.8483
   50DOPE   C36 6413   0.672   4.286  14.268  0.3212 -0.0475  0.2506
   50DOPE   H6X 6414   0.633   4.183  14.260 -0.0215  0.0702  0.4057
   50DOPE   H6Y 6415   0.608   4.339  14.342 -1.5734 -0.8961 -0.7166
   50DOPE   C37 6416   0.829   4.276  14.300 -0.1299 -0.0019 -0.5940
   50DOPE   H7X 6417   0.886   4.235  14.214 -2.1159  1.6627 -2.8212
   50DOPE   H7Y 6418   0.869   4.380  14.302  1.7414 -0.6231 -2.0418
   50DOPE   C38 6419   0.860   4.202  14.435  0.2491 -0.5238  0.5007
   50DOPE   H8X 6420   0.969   4.183  14.432  1.1696  3.3468  2.9100
   50DOPE   H8Y 6421   0.808   4.104  14.444  0.6403 -0.9488 -1.3591
   50DOPE   C39 6422   0.842   4.299  14.551  0.3427 -0.2200  0.1959
   50DOPE   H9X 6423   0.773   4.384  14.537  0.0208 -0.4989  0.0569
   50DOPE  C310 6424   0.908   4.292  14.665 -0.4228 -0.5115 -0.4445
   50DOPE  H10X 6425   0.871   4.357  14.746  2.4234  0.7081 -0.0048
   50DOPE  C311 6426   1.017   4.196  14.707  0.3554  0.0278 -0.1285
   50DOPE  H11X 6427   1.042   4.117  14.632 -0.3327  0.5671 -0.9416
   50DOPE  H11Y 6428   1.112   4.251  14.727 -0.0983  1.8819 -2.5539
   50DOPE  C312 6429   0.978   4.127  14.836 -0.1453 -0.2111 -0.2106
   50DOPE  H12X 6430   0.967   4.195  14.923  1.7959  1.1283 -0.9386
   50DOPE  H12Y 6431   1.061   4.066  14.878 -0.1666 -0.0801  0.0239
   50DOPE  C313 6432   0.852   4.044  14.820 -0.2106 -0.0158  0.4411
   50DOPE  H13X 6433   0.770   4.114  14.793  0.0533  0.3411  0.5525
   50DOPE  H13Y 6434   0.865   3.969  14.740 -2.0945  0.7076 -0.6204
   50DOPE  C314 6435   0.816   3.967  14.946 -0.0635 -0.4239 -0.1784
   50DOPE  H14X 6436   0.800   4.047  15.021  0.5146 -0.0234 -0.4804
   50DOPE  H14Y 6437   0.905   3.914  14.988  1.7594  2.3855 -0.2604
   50DOPE  C315 6438   0.700   3.874  14.933  0.0008 -0.4588 -0.2579
   50DOPE  H15X 6439   0.733   3.781  14.882 -0.1870 -0.1218 -1.0068
   50DOPE  H15Y 6440   0.620   3.913  14.866 -2.4237 -1.9054  1.6187
   50DOPE  C316 6441   0.626   3.845  15.058 -0.7489 -0.1609  0.2483
   50DOPE  H16X 6442   0.609   3.939  15.115 -1.2750  1.7544 -2.7845
   50DOPE  H16Y 6443   0.686   3.776  15.121  0.2116  0.1416 -0.3153
   50DOPE  C317 6444   0.490   3.778  15.019  0.1498  0.5902 -0.8050
   50DOPE  H17X 6445   0.429   3.852  14.962 -1.3462  0.5565  0.6805
   50DOPE  H17Y 6446   0.498   3.696  14.945 -1.1717 -2.3272  2.0428
   50DOPE  C318 6447   0.420   3.726  15.149 -0.6018  0.4800  0.0953
   50DOPE  H18X 6448   0.490   3.665  15.210  1.9957  2.4692 -0.7182
   50DOPE  H18Y 6449   0.395   3.822  15.198 -0.7845  0.9978 -0.9757
   50DOPE  H18Z 6450   0.332   3.662  15.126  0.1394  0.3585 -2.7712
   51DOPE     N 6451   3.816   7.294  12.672  0.0857  0.2699  0.4150
   51DOPE   HN1 6452   3.819   7.302  12.569  4.7086 -1.6555  0.1581
   51DOPE   HN2 6453   3.909   7.276  12.716  0.7320  2.8884  0.2885
   51DOPE   HN3 6454   3.733   7.234  12.690 -1.7026  2.5471  0.2362
   51DOPE   C12 6455   3.769   7.431  12.727  1.0482 -0.5548 -0.3820
   51DOPE  H12A 6456   3.667   7.451  12.689  1.1056 -2.5814 -1.7425
   51DOPE  H12B 6457   3.833   7.516  12.696  0.9123 -0.8771 -1.5860
   51DOPE   C11 6458   3.763   7.420  12.882  0.0713 -0.3593  0.5092
   51DOPE  H11A 6459   3.722   7.510  12.932  0.1611 -0.6922  1.1998
   51DOPE  H11B 6460   3.867   7.406  12.918 -0.6094  0.6183  3.0437
   51DOPE     P 6461   3.680   7.240  13.061  0.5990  0.3906 -0.1467
   51DOPE   O13 6462   3.791   7.142  13.072 -0.2210  0.2524  0.6195
   51DOPE   O14 6463   3.538   7.194  13.091 -0.1171 -0.4253 -0.0632
   51DOPE   O11 6464   3.711   7.361  13.153  0.1799  0.1476  0.2716
   51DOPE   O12 6465   3.686   7.306  12.916  0.2977  0.4573  0.3713
   51DOPE    C1 6466   3.635   7.478  13.171 -0.1462 -0.0999 -0.4003
   51DOPE    HA 6467   3.547   7.481  13.103 -0.3341 -1.2115 -0.2177
   51DOPE    HB 6468   3.702   7.564  13.152  0.2296  0.1495  1.7537
   51DOPE    C2 6469   3.581   7.485  13.326 -0.0092  0.6663  0.4444
   51DOPE    HS 6470   3.536   7.585  13.344  0.1941  0.7588  0.4401
   51DOPE   O21 6471   3.688   7.456  13.418 -0.0311  0.1207  0.6956
   51DOPE   C21 6472   3.796   7.522  13.412  0.0713  0.6951  0.2171
   51DOPE   O22 6473   3.810   7.626  13.352  0.2742 -0.3804  0.2685
   51DOPE   C22 6474   3.906   7.439  13.487  0.6366  0.1958 -0.8803
   51DOPE   H2R 6475   3.978   7.516  13.521  2.7735 -1.3660 -1.6638
   51DOPE   H2S 6476   3.950   7.369  13.412 -0.0054 -3.5860  2.0080
   51DOPE    C3 6477   3.476   7.371  13.345 -0.1992 -0.0880 -0.5060
   51DOPE    HX 6478   3.530   7.274  13.345  2.2930  1.2305 -0.2599
   51DOPE    HY 6479   3.410   7.379  13.256  0.1551  0.0890 -0.7524
   51DOPE   O31 6480   3.405   7.381  13.467  0.2756 -0.0579 -0.5414
   51DOPE   C31 6481   3.308   7.287  13.467  0.7370 -0.2750 -1.0422
   51DOPE   O32 6482   3.262   7.232  13.370  0.3809  0.5674 -0.7389
   51DOPE   C32 6483   3.271   7.250  13.610  0.1654  0.0299 -0.2112
   51DOPE   H2X 6484   3.201   7.322  13.657 -0.8702 -0.2393 -1.3106
   51DOPE   H2Y 6485   3.206   7.160  13.609 -0.1695  0.2686 -1.2626
   51DOPE   C23 6486   3.862   7.366  13.614  0.3205 -0.0278  0.7622
   51DOPE   H3R 6487   3.938   7.288  13.637  0.6280  0.2563  0.7155
   51DOPE   H3S 6488   3.769   7.312  13.586  0.9342 -0.0723 -1.3724
   51DOPE   C24 6489   3.866   7.471  13.723 -0.4817  0.2300 -0.3409
   51DOPE   H4R 6490   3.803   7.557  13.693 -0.9591 -0.0971 -0.2707
   51DOPE   H4S 6491   3.966   7.512  13.750 -0.2540 -0.5780  0.0829
   51DOPE   C25 6492   3.818   7.429  13.859  0.3014 -0.2897  0.6532
   51DOPE   H5R 6493   3.716   7.389  13.842 -0.1541  1.6328 -1.7385
   51DOPE   H5S 6494   3.802   7.516  13.925 -1.7797 -0.2671  0.1841
   51DOPE   C26 6495   3.905   7.323  13.925  0.1162  0.1786 -0.4239
   51DOPE   H6R 6496   4.011   7.357  13.918 -0.0682  0.3485 -3.6249
   51DOPE   H6S 6497   3.904   7.233  13.861  0.0689  0.1861 -0.4333
   51DOPE   C27 6498   3.847   7.284  14.060  1.0810  0.6891  0.9198
   51DOPE   H7R 6499   3.768   7.206  14.054  2.0137 -0.3974  2.1760
   51DOPE   H7S 6500   3.791   7.369  14.105  1.0741 -0.8296  4.1051
   51DOPE   C28 6501   3.956   7.234  14.158 -0.0687 -0.0712  0.2091
   51DOPE   H8R 6502   4.021   7.165  14.100 -0.9706 -0.7999  0.0472
   51DOPE   H8S 6503   3.913   7.162  14.231  0.0344 -0.0814  0.2607
   51DOPE   C29 6504   4.049   7.332  14.230 -0.2599  0.7667  0.9008
   51DOPE   H9R 6505   4.156   7.326  14.205 -0.4246 -1.0446  0.5378
   51DOPE  C210 6506   4.015   7.426  14.325  0.0161 -0.2509 -0.0081
   51DOPE  H10R 6507   4.101   7.484  14.360 -0.0600 -0.8884  1.3213
   51DOPE  C211 6508   3.879   7.445  14.386 -0.0070  0.0365  0.4143
   51DOPE  H11R 6509   3.810   7.363  14.357  1.0767 -0.6953 -0.1711
   51DOPE  H11S 6510   3.847   7.544  14.346  1.8260  0.1698 -0.8857
   51DOPE  C212 6511   3.893   7.455  14.537  0.3312 -0.4331  0.1514
   51DOPE  H12R 6512   3.971   7.525  14.573 -1.9491  1.9966  0.6931
   51DOPE  H12S 6513   3.915   7.356  14.582 -0.9490  0.2880  2.5547
   51DOPE  C213 6514   3.762   7.522  14.592  0.0445  0.4999  0.1406
   51DOPE  H13R 6515   3.673   7.479  14.541  1.9582 -0.0130 -3.0305
   51DOPE  H13S 6516   3.747   7.628  14.561 -3.2933 -0.2963 -1.4173
   51DOPE  C214 6517   3.755   7.497  14.745 -0.0590  0.3350 -0.0948
   51DOPE  H14R 6518   3.835   7.558  14.792  0.8732  0.3952 -1.6864
   51DOPE  H14S 6519   3.776   7.390  14.765 -2.1830 -0.2509 -0.7420
   51DOPE  C215 6520   3.623   7.540  14.810  0.2748  0.3062 -0.0623
   51DOPE  H15R 6521   3.575   7.474  14.886  1.7041 -2.1781 -1.2018
   51DOPE  H15S 6522   3.550   7.555  14.727  2.1133  2.3521 -1.4029
   51DOPE  C216 6523   3.641   7.676  14.877  0.3336 -0.4640 -0.0671
   51DOPE  H16R 6524   3.669   7.751  14.800 -1.6597  0.5079  0.0918
   51DOPE  H16S 6525   3.719   7.672  14.955  0.9035 -0.5895 -0.6389
   51DOPE  C217 6526   3.514   7.730  14.952 -0.1690  0.2877  0.3683
   51DOPE  H17R 6527   3.415   7.716  14.904 -1.1532 -1.2807  2.6212
   51DOPE  H17S 6528   3.529   7.840  14.957 -3.9007  1.0192 -0.7551
   51DOPE  C218 6529   3.494   7.664  15.096  0.3888 -0.7170 -0.1981
   51DOPE  H18R 6530   3.473   7.555  15.096 -0.4734 -0.5924  1.6776
   51DOPE  H18S 6531   3.415   7.704  15.163 -0.0178  0.6460 -1.4514
   51DOPE  H18T 6532   3.588   7.666  15.156 -1.0450  1.3543  2.1929
   51DOPE   C33 6533   3.394   7.223  13.702 -0.7169 -0.6941  0.2259
   51DOPE   H3X 6534   3.479   7.294  13.695  0.5617 -1.8440  2.7329
   51DOPE   H3Y 6535   3.449   7.135  13.662 -0.7077 -1.1132  1.1239
   51DOPE   C34 6536   3.371   7.200  13.849 -0.2072  0.4658  0.0855
   51DOPE   H4X 6537   3.270   7.156  13.861  0.1051 -0.6165 -1.0453
   51DOPE   H4Y 6538   3.452   7.136  13.891 -0.0532 -0.4219 -1.5096
   51DOPE   C35 6539   3.384   7.333  13.924  0.5665  0.5833 -0.2126
   51DOPE   H5X 6540   3.319   7.412  13.883  0.2213  0.7014  0.5510
   51DOPE   H5Y 6541   3.490   7.364  13.936  1.0131 -1.4374  1.8265
   51DOPE   C36 6542   3.342   7.321  14.075  0.2497 -0.0212  0.2690
   51DOPE   H6X 6543   3.231   7.308  14.075  0.4406 -1.8759 -0.0398
   51DOPE   H6Y 6544   3.374   7.419  14.117  2.6165 -1.0123  0.9346
   51DOPE   C37 6545   3.407   7.205  14.157  0.1655  0.1743  0.4792
   51DOPE   H7X 6546   3.368   7.113  14.109 -1.4031  0.9159  0.2412
   51DOPE   H7Y 6547   3.518   7.207  14.157  0.2047  1.2485 -2.0538
   51DOPE   C38 6548   3.351   7.214  14.301 -0.0545 -0.3434  0.0250
   51DOPE   H8X 6549   3.241   7.226  14.299 -0.1116 -0.7882  0.4568
   51DOPE   H8Y 6550   3.385   7.316  14.329 -0.7867 -0.0175 -0.2423
   51DOPE   C39 6551   3.396   7.100  14.393 -0.2318  0.1604  0.7023
   51DOPE   H9X 6552   3.406   7.000  14.349  3.3050  0.6819 -0.0295
   51DOPE  C310 6553   3.434   7.110  14.521 -0.8285  0.2956 -0.6218
   51DOPE  H10X 6554   3.444   7.022  14.586 -0.0568 -0.0749 -1.2244
   51DOPE  C311 6555   3.442   7.237  14.607  0.4478  0.1333  0.2824
   51DOPE  H11X 6556   3.521   7.238  14.685 -0.7355 -0.6409  1.5247
   51DOPE  H11Y 6557   3.456   7.323  14.539  0.7443  0.4811  0.7748
   51DOPE  C312 6558   3.310   7.252  14.673  0.3824  0.3070 -0.2023
   51DOPE  H12X 6559   3.229   7.240  14.598  0.5520 -1.1345 -0.1793
   51DOPE  H12Y 6560   3.304   7.357  14.710  1.5789  0.4274 -0.3077
   51DOPE  C313 6561   3.288   7.156  14.790 -0.3262 -0.2376 -0.6590
   51DOPE  H13X 6562   3.207   7.200  14.852 -0.4790 -0.0213 -1.0132
   51DOPE  H13Y 6563   3.240   7.069  14.740  0.4910  0.2042 -2.2897
   51DOPE  C314 6564   3.409   7.118  14.884 -0.0588 -0.1080 -0.3887
   51DOPE  H14X 6565   3.454   7.211  14.925 -1.6198  0.1736  0.7990
   51DOPE  H14Y 6566   3.475   7.061  14.816  0.5666 -1.1846  1.0665
   51DOPE  C315 6567   3.363   7.031  14.995 -0.8872  0.8812  0.1991
   51DOPE  H15X 6568   3.319   6.938  14.954 -0.0671  0.1202  0.9867
   51DOPE  H15Y 6569   3.292   7.077  15.067 -0.5736  0.3549  0.8541
   51DOPE  C316 6570   3.485   6.986  15.081 -0.4489 -0.0044 -0.2026
   51DOPE  H16X 6571   3.535   7.080  15.111  0.1497 -0.8322  1.5895
   51DOPE  H16Y 6572   3.561   6.934  15.018 -0.0773 -0.2353  0.4271
   51DOPE  C317 6573   3.457   6.889  15.196 -0.2184  0.3515 -0.5485
   51DOPE  H17X 6574   3.548   6.871  15.257 -0.8213  0.1693  0.3172
   51DOPE  H17Y 6575   3.372   6.930  15.256  0.2317  1.2855 -0.5270
   51DOPE  C318 6576   3.412   6.751  15.138 -0.2005 -0.1481  0.0211
   51DOPE  H18X 6577   3.322   6.759  15.074  0.3932  0.7205 -0.7262
   51DOPE  H18Y 6578   3.489   6.705  15.072 -1.5102 -1.2654 -0.7954
   51DOPE  H18Z 6579   3.388   6.686  15.226 -0.2786  1.6782  1.3987
   52DOPE     N 6580   7.158   4.625  12.754  0.2490 -0.0987  0.0458
   52DOPE   HN1 6581   7.128   4.538  12.803  1.0372 -2.6713 -3.6516
   52DOPE   HN2 6582   7.178   4.597  12.656  3.2034 -0.4128  0.6554
   52DOPE   HN3 6583   7.245   4.651  12.806 -1.3796  0.4704  2.6957
   52DOPE   C12 6584   7.079   4.756  12.759  0.6652  0.6202 -0.9423
   52DOPE  H12A 6585   6.986   4.750  12.698  0.1954  1.1627 -0.2905
   52DOPE  H12B 6586   7.145   4.836  12.719  0.8522  1.2297  0.5313
   52DOPE   C11 6587   7.043   4.794  12.904 -0.1149 -0.1100  0.0353
   52DOPE  H11A 6588   6.984   4.713  12.952 -0.3991  0.3609  0.4934
   52DOPE  H11B 6589   6.976   4.882  12.896  2.4553  2.0033  0.2520
   52DOPE     P 6590   7.134   4.926  13.101 -0.1817 -0.0439  0.1230
   52DOPE   O13 6591   6.991   4.965  13.100  0.2112  0.1902 -0.0823
   52DOPE   O14 6592   7.232   5.038  13.107  0.4002  0.2873  0.5984
   52DOPE   O11 6593   7.159   4.824  13.224  0.4260 -0.7378  0.1796
   52DOPE   O12 6594   7.160   4.824  12.982  0.2481 -0.6081  0.7695
   52DOPE    C1 6595   7.289   4.810  13.285 -0.0672  0.0834 -0.4631
   52DOPE    HA 6596   7.373   4.866  13.240  1.2529 -0.9454  0.6435
   52DOPE    HB 6597   7.319   4.703  13.284 -1.1208 -0.4173  3.4615
   52DOPE    C2 6598   7.279   4.843  13.437  0.1050  0.3155  0.2745
   52DOPE    HS 6599   7.214   4.763  13.480  1.1350  0.0497  1.4156
   52DOPE   O21 6600   7.232   4.976  13.444 -0.1066 -0.0410 -0.1913
   52DOPE   C21 6601   7.149   4.999  13.545 -0.8775  0.4171  0.2891
   52DOPE   O22 6602   7.123   4.915  13.631  1.0583  0.5591 -0.7710
   52DOPE   C22 6603   7.113   5.145  13.557  0.3569 -0.4303  0.3545
   52DOPE   H2R 6604   7.013   5.165  13.513  1.5245  1.1773 -1.7686
   52DOPE   H2S 6605   7.182   5.206  13.495 -1.4472 -0.1574 -1.4844
   52DOPE    C3 6606   7.416   4.830  13.504  0.1017  0.3718 -0.4502
   52DOPE    HX 6607   7.485   4.914  13.483 -0.2242  0.4562 -1.2042
   52DOPE    HY 6608   7.468   4.740  13.466 -0.5158 -0.3508  0.3661
   52DOPE   O31 6609   7.414   4.820  13.647  0.2391 -0.3025 -0.3851
   52DOPE   C31 6610   7.357   4.714  13.696  0.4885 -0.2761  1.0411
   52DOPE   O32 6611   7.320   4.609  13.635  0.2214  0.2016 -0.5234
   52DOPE   C32 6612   7.335   4.721  13.849  0.6263  0.7656 -0.8626
   52DOPE   H2X 6613   7.439   4.733  13.885  0.2696  1.5221 -0.0437
   52DOPE   H2Y 6614   7.274   4.809  13.880 -0.6707 -1.0604  2.2391
   52DOPE   C23 6615   7.120   5.197  13.705  0.2803  0.0102 -0.4013
   52DOPE   H3R 6616   7.136   5.307  13.703  1.3695 -0.0322  2.0343
   52DOPE   H3S 6617   7.217   5.166  13.749  0.6154 -0.0729 -1.1835
   52DOPE   C24 6618   6.999   5.170  13.797  0.0252 -0.2369 -0.1224
   52DOPE   H4R 6619   6.986   5.062  13.817 -1.2984 -0.9964 -4.1891
   52DOPE   H4S 6620   6.909   5.207  13.743 -0.4551 -0.7254  0.3383
   52DOPE   C25 6621   7.012   5.256  13.929  0.0458 -0.1063  0.2144
   52DOPE   H5R 6622   6.913   5.260  13.979 -0.8925 -1.5063 -1.3945
   52DOPE   H5S 6623   7.036   5.360  13.900  2.4365 -0.3823  0.9739
   52DOPE   C26 6624   7.121   5.222  14.029 -0.1664 -0.2228 -0.6276
   52DOPE   H6R 6625   7.219   5.241  13.981  0.5386 -0.8410  0.5336
   52DOPE   H6S 6626   7.135   5.115  14.056 -0.6011 -0.5867 -1.7663
   52DOPE   C27 6627   7.114   5.304  14.156  0.6286 -0.4882 -0.1523
   52DOPE   H7R 6628   7.011   5.308  14.198  0.6918  2.2754 -0.0944
   52DOPE   H7S 6629   7.132   5.409  14.124 -2.3710 -0.3198 -1.7314
   52DOPE   C28 6630   7.213   5.276  14.272 -0.2288  0.4030  0.2892
   52DOPE   H8R 6631   7.187   5.341  14.358 -4.0448  0.8830 -1.0045
   52DOPE   H8S 6632   7.318   5.296  14.244 -0.0480 -0.0203  0.6614
   52DOPE   C29 6633   7.195   5.138  14.326 -0.6708 -0.3439  0.0740
   52DOPE   H9R 6634   7.211   5.058  14.251  0.1947  1.4333 -1.7244
   52DOPE  C210 6635   7.169   5.101  14.454 -0.6999 -0.5545  0.6938
   52DOPE  H10R 6636   7.152   4.994  14.471 -3.3050  0.0716  2.5586
   52DOPE  C211 6637   7.150   5.187  14.578  0.3528 -0.5989 -0.7274
   52DOPE  H11R 6638   7.063   5.143  14.632  0.1012  1.3523  0.5652
   52DOPE  H11S 6639   7.117   5.290  14.549  0.1081 -0.9064 -1.5890
   52DOPE  C212 6640   7.275   5.189  14.667 -0.4991 -0.6745  0.0151
   52DOPE  H12R 6641   7.355   5.250  14.621 -1.6186 -0.2379 -1.4342
   52DOPE  H12S 6642   7.314   5.085  14.675  1.2889 -0.0711 -0.4216
   52DOPE  C213 6643   7.251   5.233  14.809 -0.0371  0.3048 -0.1521
   52DOPE  H13R 6644   7.348   5.258  14.855  0.3578 -3.5864  1.5805
   52DOPE  H13S 6645   7.217   5.137  14.854 -0.6276  0.5967  0.0326
   52DOPE  C214 6646   7.145   5.332  14.835  0.3103  0.7367 -0.0183
   52DOPE  H14R 6647   7.054   5.300  14.779  0.3310  0.0155  0.3524
   52DOPE  H14S 6648   7.172   5.431  14.793 -1.8553  0.8196 -1.3645
   52DOPE  C215 6649   7.109   5.339  14.983 -0.1974  1.2285  0.2703
   52DOPE  H15R 6650   7.190   5.374  15.050 -0.1053 -1.0386  1.4326
   52DOPE  H15S 6651   7.103   5.236  15.024 -1.2004  1.6163  1.1362
   52DOPE  C216 6652   6.990   5.436  15.010 -0.5394  0.6899  0.1653
   52DOPE  H16R 6653   6.899   5.401  14.956 -1.6832  0.7047  2.0096
   52DOPE  H16S 6654   7.020   5.538  14.978  2.2398  0.2077  0.9823
   52DOPE  C217 6655   6.958   5.438  15.154  0.1834  0.9309  0.4494
   52DOPE  H17R 6656   7.047   5.460  15.216  0.4233 -0.5837  0.6958
   52DOPE  H17S 6657   6.927   5.337  15.190  1.4033  0.6537  0.7642
   52DOPE  C218 6658   6.844   5.532  15.183  0.0561  0.3201  0.2150
   52DOPE  H18R 6659   6.815   5.522  15.290 -0.3831 -0.8364  0.0009
   52DOPE  H18S 6660   6.868   5.635  15.148 -0.1722  0.7321  1.2323
   52DOPE  H18T 6661   6.746   5.514  15.134 -0.1289  1.1059  0.2814
   52DOPE   C33 6662   7.288   4.585  13.911  0.0434  0.0246 -0.1232
   52DOPE   H3X 6663   7.346   4.495  13.880  1.0112 -0.1223  1.9785
   52DOPE   H3Y 6664   7.187   4.575  13.865 -0.6031  1.4602  0.9201
   52DOPE   C34 6665   7.298   4.579  14.061  0.4000  0.2845 -0.1356
   52DOPE   H4X 6666   7.402   4.596  14.097 -0.3358  0.7885  1.9017
   52DOPE   H4Y 6667   7.231   4.658  14.101 -0.8340 -1.2422  0.9208
   52DOPE   C35 6668   7.247   4.453  14.131 -0.6929  0.1148  0.1596
   52DOPE   H5X 6669   7.305   4.370  14.085 -1.1754  0.7902 -1.7748
   52DOPE   H5Y 6670   7.143   4.430  14.101 -0.4489 -0.1088 -0.5497
   52DOPE   C36 6671   7.244   4.460  14.284  0.5378  0.8176  0.0463
   52DOPE   H6X 6672   7.195   4.380  14.343  3.2292 -1.0036 -0.0157
   52DOPE   H6Y 6673   7.197   4.553  14.323  0.7250  0.1301  2.0177
   52DOPE   C37 6674   7.388   4.451  14.332 -0.1682  0.8223 -0.6251
   52DOPE   H7X 6675   7.441   4.365  14.285  1.2875  0.2990  1.7656
   52DOPE   H7Y 6676   7.437   4.544  14.297 -0.8954  0.2775 -3.2452
   52DOPE   C38 6677   7.402   4.428  14.482 -0.2696  0.8664  0.2695
   52DOPE   H8X 6678   7.356   4.334  14.516 -2.2520  1.6996  0.0151
   52DOPE   H8Y 6679   7.333   4.504  14.524  0.5157  1.4905  0.4563
   52DOPE   C39 6680   7.542   4.447  14.540 -0.3405  0.2832 -0.7384
   52DOPE   H9X 6681   7.604   4.532  14.509 -0.4668  0.1373 -1.4115
   52DOPE  C310 6682   7.611   4.361  14.615  0.3841  0.7077  0.1243
   52DOPE  H10X 6683   7.707   4.384  14.662  0.9940 -0.4685 -0.4899
   52DOPE  C311 6684   7.560   4.221  14.656 -0.8725 -0.3335 -0.4840
   52DOPE  H11X 6685   7.452   4.213  14.629 -0.9271  0.1717 -0.4325
   52DOPE  H11Y 6686   7.612   4.132  14.615 -0.0541 -0.3554  0.5929
   52DOPE  C312 6687   7.562   4.208  14.810 -0.4560  0.4275  0.1212
   52DOPE  H12X 6688   7.491   4.126  14.835  0.8347  0.2932  4.1332
   52DOPE  H12Y 6689   7.535   4.300  14.865  0.4122  0.3849  0.6392
   52DOPE  C313 6690   7.696   4.161  14.875  0.0231  0.3034  1.1590
   52DOPE  H13X 6691   7.706   4.054  14.848  1.3352  0.8605 -0.8507
   52DOPE  H13Y 6692   7.784   4.202  14.821  0.2644 -1.9193 -0.2770
   52DOPE  C314 6693   7.704   4.175  15.025  0.0557 -0.1548  0.4785
   52DOPE  H14X 6694   7.781   4.098  15.047  0.8783 -0.0558 -1.7774
   52DOPE  H14Y 6695   7.618   4.124  15.073 -1.0000 -0.0967 -1.2721
   52DOPE  C315 6696   7.731   4.322  15.062  0.4435  0.2127 -0.0327
   52DOPE  H15X 6697   7.633   4.375  15.061  0.0800 -0.4472 -1.2489
   52DOPE  H15Y 6698   7.800   4.382  14.998 -0.3273  1.9160  0.6544
   52DOPE  C316 6699   7.784   4.346  15.201  0.5738 -0.1061 -0.3645
   52DOPE  H16X 6700   7.895   4.350  15.205  0.5316  1.0096  0.6012
   52DOPE  H16Y 6701   7.742   4.261  15.259 -2.6413  0.9469 -0.9601
   52DOPE  C317 6702   7.741   4.469  15.282  0.0456  0.0532 -0.4672
   52DOPE  H17X 6703   7.633   4.486  15.264 -0.3899 -1.2373  0.7766
   52DOPE  H17Y 6704   7.741   4.458  15.393 -3.3683 -2.0693 -0.5458
   52DOPE  C318 6705   7.827   4.595  15.256  0.6013  0.4101  0.1804
   52DOPE  H18X 6706   7.933   4.584  15.287  1.3475  1.2508 -1.8825
   52DOPE  H18Y 6707   7.818   4.616  15.147 -3.0775 -1.5234 -0.0637
   52DOPE  H18Z 6708   7.788   4.682  15.314  1.0223  1.0179 -0.4283
   53DOPE     N 6709   6.243   6.941  12.997  0.2738  0.1575 -0.6811
   53DOPE   HN1 6710   6.332   6.956  12.946 -1.2946  2.3021 -3.0611
   53DOPE   HN2 6711   6.180   6.876  12.945 -1.0280  1.2474 -0.5031
   53DOPE   HN3 6712   6.189   7.029  13.011 -1.0072 -0.9343  1.9446
   53DOPE   C12 6713   6.264   6.882  13.132 -0.7405  0.3815 -0.6171
   53DOPE  H12A 6714   6.325   6.957  13.188  0.9693  0.0332 -1.9384
   53DOPE  H12B 6715   6.324   6.789  13.133  0.7724  1.3236  0.5757
   53DOPE   C11 6716   6.130   6.850  13.205  0.7431 -0.2202 -0.1273
   53DOPE  H11A 6717   6.146   6.850  13.314 -3.0738  0.6121  0.6052
   53DOPE  H11B 6718   6.102   6.749  13.168  1.4963 -0.0997 -1.0617
   53DOPE     P 6719   5.885   6.900  13.134  0.3039  0.1338  0.4996
   53DOPE   O13 6720   5.901   6.794  13.030  0.0761  0.2856 -0.2881
   53DOPE   O14 6721   5.793   7.014  13.096  0.3028 -0.2922  0.5660
   53DOPE   O11 6722   5.834   6.835  13.260 -0.1170  0.1755  0.0012
   53DOPE   O12 6723   6.033   6.956  13.177  0.1995  0.3623 -0.0758
   53DOPE    C1 6724   5.817   6.905  13.380  0.7093 -0.3225 -0.7303
   53DOPE    HA 6725   5.710   6.909  13.408  0.8952  0.9038 -0.0921
   53DOPE    HB 6726   5.841   7.013  13.368 -1.3659  0.2477 -0.1733
   53DOPE    C2 6727   5.896   6.834  13.490  0.3477 -0.1898 -0.6449
   53DOPE    HS 6728   6.004   6.823  13.466  0.2783 -0.9470 -0.6333
   53DOPE   O21 6729   5.826   6.712  13.527 -0.9492  0.6638  0.7210
   53DOPE   C21 6730   5.862   6.616  13.441 -0.5941 -0.2829  0.2715
   53DOPE   O22 6731   5.950   6.617  13.358 -0.3606  0.1974  0.1311
   53DOPE   C22 6732   5.787   6.488  13.477  0.6479  0.2140 -0.7167
   53DOPE   H2R 6733   5.834   6.405  13.420 -0.4565 -0.9090 -0.0461
   53DOPE   H2S 6734   5.684   6.509  13.439 -0.0497 -0.8262  0.5265
   53DOPE    C3 6735   5.905   6.928  13.617 -0.2034  0.0861 -0.4254
   53DOPE    HX 6736   5.801   6.960  13.638 -0.1159  0.4778 -0.5930
   53DOPE    HY 6737   5.972   7.008  13.580  0.5995 -1.1728 -1.8107
   53DOPE   O31 6738   5.958   6.864  13.737 -0.0029 -0.0585  0.8670
   53DOPE   C31 6739   6.077   6.804  13.747  0.1289 -0.3024 -0.2438
   53DOPE   O32 6740   6.160   6.795  13.659 -0.2571 -0.0806  0.5831
   53DOPE   C32 6741   6.097   6.780  13.893  0.1443 -0.8211 -0.2188
   53DOPE   H2X 6742   6.102   6.884  13.933  2.1255  0.0368 -2.4623
   53DOPE   H2Y 6743   6.011   6.722  13.933  0.3587 -1.0244 -0.0537
   53DOPE   C23 6744   5.799   6.454  13.631  0.7588  0.8648 -1.2106
   53DOPE   H3R 6745   5.902   6.472  13.669  0.4233  1.0709 -0.3543
   53DOPE   H3S 6746   5.784   6.344  13.639  0.5604  1.0009  1.2460
   53DOPE   C24 6747   5.693   6.521  13.719  0.6236 -0.4805  0.0752
   53DOPE   H4R 6748   5.595   6.490  13.675  0.6478  2.1731 -2.0387
   53DOPE   H4S 6749   5.701   6.631  13.716  2.9034 -0.6326 -1.7064
   53DOPE   C25 6750   5.687   6.461  13.863 -0.6376  0.0520  0.3880
   53DOPE   H5R 6751   5.693   6.350  13.864 -2.4465 -0.0728  1.8185
   53DOPE   H5S 6752   5.586   6.482  13.904 -1.6101  0.3765 -1.9842
   53DOPE   C26 6753   5.792   6.522  13.952 -0.5805  0.1329 -0.0274
   53DOPE   H6R 6754   5.751   6.621  13.981  0.6408  0.3959  0.8956
   53DOPE   H6S 6755   5.877   6.543  13.884 -0.5831  1.3591  0.3222
   53DOPE   C27 6756   5.845   6.452  14.084  0.0610 -0.8822  0.1472
   53DOPE   H7R 6757   5.770   6.470  14.163  0.8655  1.0879  0.5282
   53DOPE   H7S 6758   5.933   6.515  14.109  1.2118 -2.3320 -0.0782
   53DOPE   C28 6759   5.879   6.309  14.084 -0.2601 -0.6572  0.6509
   53DOPE   H8R 6760   5.959   6.299  14.008 -1.7219  1.4715 -1.2774
   53DOPE   H8S 6761   5.794   6.247  14.051 -0.8318 -0.5783  1.9177
   53DOPE   C29 6762   5.920   6.253  14.216  0.2166  0.0577  0.6755
   53DOPE   H9R 6763   6.023   6.215  14.220  0.7790  1.3646 -0.4672
   53DOPE  C210 6764   5.837   6.230  14.318  0.9590 -0.0260  0.1983
   53DOPE  H10R 6765   5.872   6.171  14.404 -0.7171 -2.8971 -0.9310
   53DOPE  C211 6766   5.685   6.258  14.328 -0.1265 -0.6737 -0.5808
   53DOPE  H11R 6767   5.621   6.168  14.327  2.3099 -2.5151 -0.2473
   53DOPE  H11S 6768   5.645   6.325  14.248 -2.5882 -0.0481  1.0625
   53DOPE  C212 6769   5.655   6.335  14.460 -0.2089  0.1472  0.2623
   53DOPE  H12R 6770   5.547   6.362  14.455 -0.3291 -0.2645  0.6288
   53DOPE  H12S 6771   5.719   6.425  14.475  1.5902 -1.2929  1.6998
   53DOPE  C213 6772   5.679   6.241  14.573  0.7210 -0.0539 -0.1216
   53DOPE  H13R 6773   5.787   6.226  14.592  0.2497 -2.7182  0.8056
   53DOPE  H13S 6774   5.635   6.142  14.552  0.2758  0.3897 -1.3879
   53DOPE  C214 6775   5.633   6.291  14.715 -0.1972 -0.8205 -0.6346
   53DOPE  H14R 6776   5.529   6.329  14.704  0.0319  0.0161  0.0260
   53DOPE  H14S 6777   5.716   6.362  14.735 -2.1308  1.4532 -0.2871
   53DOPE  C215 6778   5.627   6.182  14.829 -0.4717 -0.6711 -0.4465
   53DOPE  H15R 6779   5.541   6.117  14.801 -0.4499 -0.6921 -0.4639
   53DOPE  H15S 6780   5.615   6.239  14.923  0.4168  0.5728 -1.0536
   53DOPE  C216 6781   5.760   6.105  14.822  0.4508 -0.0515 -0.7450
   53DOPE  H16R 6782   5.842   6.176  14.845 -0.8688  1.0750  0.6964
   53DOPE  H16S 6783   5.782   6.059  14.723  0.0050  0.5217 -1.1124
   53DOPE  C217 6784   5.766   5.989  14.931  0.1333 -0.1784  0.0112
   53DOPE  H17R 6785   5.679   5.921  14.920  1.4365 -1.9221 -0.1642
   53DOPE  H17S 6786   5.772   6.036  15.032  1.0115 -0.5905  0.1623
   53DOPE  C218 6787   5.898   5.905  14.923 -0.7183  0.0974 -0.1097
   53DOPE  H18R 6788   5.987   5.968  14.947 -1.1502  0.6685  0.0153
   53DOPE  H18S 6789   5.908   5.851  14.827  0.4029  0.5576 -0.2647
   53DOPE  H18T 6790   5.899   5.824  14.999  0.6950 -1.6130 -1.8504
   53DOPE   C33 6791   6.220   6.694  13.923  0.5523 -1.2429  0.0524
   53DOPE   H3X 6792   6.250   6.722  14.027 -1.7195 -0.9969  0.7060
   53DOPE   H3Y 6793   6.300   6.730  13.855 -0.7388  2.8960  0.4695
   53DOPE   C34 6794   6.204   6.547  13.901  0.5040  0.6588 -0.2552
   53DOPE   H4X 6795   6.128   6.501  13.968  0.2698  2.3091  0.6534
   53DOPE   H4Y 6796   6.167   6.517  13.800  3.0452 -1.9360 -0.5546
   53DOPE   C35 6797   6.336   6.469  13.912  0.1959  0.1674  0.1741
   53DOPE   H5X 6798   6.419   6.533  13.873  0.5597 -0.4959 -0.1553
   53DOPE   H5Y 6799   6.332   6.376  13.852  0.7259 -1.1629  2.1153
   53DOPE   C36 6800   6.375   6.427  14.059  0.2697  0.4689  0.8103
   53DOPE   H6X 6801   6.297   6.354  14.089 -0.8480  0.6208 -1.5049
   53DOPE   H6Y 6802   6.378   6.511  14.131  2.6180 -0.2788  1.6780
   53DOPE   C37 6803   6.512   6.358  14.060 -0.3481 -0.6273 -0.6079
   53DOPE   H7X 6804   6.524   6.277  13.986 -0.7997 -1.0912 -0.1831
   53DOPE   H7Y 6805   6.590   6.428  14.022 -1.6876  0.4312 -1.4933
   53DOPE   C38 6806   6.540   6.281  14.187  0.5875  0.3185  0.0293
   53DOPE   H8X 6807   6.549   6.355  14.269  3.6822 -0.5455  0.5806
   53DOPE   H8Y 6808   6.641   6.234  14.185 -0.0884 -1.2095  0.4096
   53DOPE   C39 6809   6.438   6.172  14.234  0.5456  0.6313  0.3253
   53DOPE   H9X 6810   6.453   6.075  14.183 -1.5980  0.6113 -0.3701
   53DOPE  C310 6811   6.346   6.190  14.337 -0.3869 -0.3629  0.4516
   53DOPE  H10X 6812   6.287   6.104  14.372 -0.0238 -0.5087  0.7243
   53DOPE  C311 6813   6.334   6.328  14.412  0.2088 -0.1999 -0.3740
   53DOPE  H11X 6814   6.402   6.323  14.500 -0.7123 -1.9268  0.2819
   53DOPE  H11Y 6815   6.365   6.410  14.343 -3.1480 -0.3622 -2.2654
   53DOPE  C312 6816   6.192   6.345  14.456 -0.3758  0.1109  0.5133
   53DOPE  H12X 6817   6.150   6.257  14.509 -0.8973 -0.7728 -1.2727
   53DOPE  H12Y 6818   6.133   6.368  14.365  1.3864 -2.0998 -1.2965
   53DOPE  C313 6819   6.175   6.461  14.544  0.6576 -1.0048 -0.3224
   53DOPE  H13X 6820   6.215   6.447  14.647 -0.1996  1.5646  0.4367
   53DOPE  H13Y 6821   6.227   6.552  14.506  1.1857 -1.6291 -1.1178
   53DOPE  C314 6822   6.019   6.496  14.558  0.4615  0.0759 -0.0150
   53DOPE  H14X 6823   5.963   6.412  14.604  1.4788 -0.1284  0.9158
   53DOPE  H14Y 6824   5.979   6.500  14.455  0.2636  0.5784  0.0751
   53DOPE  C315 6825   5.998   6.630  14.628  0.0051  0.2373 -0.0547
   53DOPE  H15X 6826   6.025   6.720  14.569  1.4404 -0.1042  0.0477
   53DOPE  H15Y 6827   6.053   6.634  14.725 -1.2543 -1.4543  0.7861
   53DOPE  C316 6828   5.848   6.631  14.660 -0.0157  0.6757 -0.1263
   53DOPE  H16X 6829   5.804   6.533  14.689 -2.0338  0.7900 -2.4182
   53DOPE  H16Y 6830   5.803   6.663  14.563  0.2224  1.3796 -0.0074
   53DOPE  C317 6831   5.815   6.739  14.770  0.3942 -0.1389 -0.0323
   53DOPE  H17X 6832   5.871   6.719  14.864  3.0458  0.9923 -1.2786
   53DOPE  H17Y 6833   5.837   6.842  14.735 -0.9751  0.2195  0.0956
   53DOPE  C318 6834   5.662   6.742  14.791  1.2489  0.6664 -0.5112
   53DOPE  H18X 6835   5.633   6.650  14.847 -1.8822  1.8860  0.0397
   53DOPE  H18Y 6836   5.640   6.833  14.850 -2.7594  0.0486 -0.7844
   53DOPE  H18Z 6837   5.611   6.754  14.694 -0.4209 -2.9904 -0.2451
   54DOPE     N 6838   6.620   3.908  12.756  0.3584 -0.3787 -0.8496
   54DOPE   HN1 6839   6.642   4.007  12.779  0.9402 -0.9425  1.2437
   54DOPE   HN2 6840   6.531   3.906  12.703 -1.4866  0.3616  1.9997
   54DOPE   HN3 6841   6.600   3.864  12.848 -0.1885 -0.1806 -0.8735
   54DOPE   C12 6842   6.736   3.842  12.691  0.6987 -0.6215  0.3198
   54DOPE  H12A 6843   6.747   3.891  12.592 -2.2105 -0.7808 -0.1852
   54DOPE  H12B 6844   6.702   3.739  12.668 -0.6078 -0.2469  0.4553
   54DOPE   C11 6845   6.854   3.849  12.784 -0.6607  0.3867 -0.5087
   54DOPE  H11A 6846   6.939   3.795  12.736 -1.4819  0.3473 -1.9861
   54DOPE  H11B 6847   6.828   3.802  12.881  1.1084  0.8654  0.2389
   54DOPE     P 6848   7.032   4.018  12.894  0.0916 -0.0236  0.2464
   54DOPE   O13 6849   7.025   4.157  12.944  0.6186 -0.0578  0.8207
   54DOPE   O14 6850   7.149   3.976  12.814  0.2318 -0.2079 -0.8813
   54DOPE   O11 6851   7.021   3.918  13.024  0.0872 -0.1376  0.1696
   54DOPE   O12 6852   6.898   3.984  12.810 -0.6296  0.0179 -0.0279
   54DOPE    C1 6853   6.913   3.942  13.113 -0.6625 -0.2608  0.6380
   54DOPE    HA 6854   6.890   3.849  13.168 -1.9184 -0.1660  0.2896
   54DOPE    HB 6855   6.820   3.975  13.063  0.2382  1.1971 -0.1485
   54DOPE    C2 6856   6.945   4.052  13.220 -0.0084 -0.1933 -0.1338
   54DOPE    HS 6857   6.960   4.151  13.173 -0.5245  0.8776  1.8191
   54DOPE   O21 6858   7.055   4.001  13.296  0.4960 -0.4122  0.0102
   54DOPE   C21 6859   7.101   4.090  13.380  0.0404  0.5773  0.6806
   54DOPE   O22 6860   7.076   4.210  13.392 -0.5748  0.2573 -0.2468
   54DOPE   C22 6861   7.224   4.028  13.455  0.4862 -0.3682  0.2811
   54DOPE   H2R 6862   7.315   4.043  13.394  1.2042 -2.2010  0.8143
   54DOPE   H2S 6863   7.211   3.917  13.450  1.3812 -0.5202  1.0501
   54DOPE    C3 6864   6.821   4.075  13.318 -0.4223 -0.6539 -0.3549
   54DOPE    HX 6865   6.733   4.092  13.252 -0.4671 -0.9331 -0.3687
   54DOPE    HY 6866   6.840   4.162  13.385 -2.9001 -0.5615  0.3298
   54DOPE   O31 6867   6.806   3.958  13.404 -0.3693  0.5423 -0.2726
   54DOPE   C31 6868   6.711   3.874  13.383 -0.0729 -0.3299  0.2096
   54DOPE   O32 6869   6.624   3.872  13.300  0.2517 -0.4509  0.8241
   54DOPE   C32 6870   6.728   3.763  13.490 -0.0367  0.3443 -0.7979
   54DOPE   H2X 6871   6.716   3.662  13.444  0.6719  0.1227 -0.4961
   54DOPE   H2Y 6872   6.831   3.774  13.530 -0.6421  3.2045  0.1773
   54DOPE   C23 6873   7.241   4.080  13.600 -0.0492  0.1950  0.2557
   54DOPE   H3R 6874   7.206   4.185  13.610  0.3157  0.4213 -0.7334
   54DOPE   H3S 6875   7.349   4.075  13.622 -0.2660 -0.5588  1.2149
   54DOPE   C24 6876   7.168   3.999  13.710 -0.2336  0.1969  0.9291
   54DOPE   H4R 6877   7.214   3.898  13.718  0.2907  0.3494  0.0481
   54DOPE   H4S 6878   7.062   3.990  13.680  0.3068 -1.0228 -0.8171
   54DOPE   C25 6879   7.174   4.066  13.850 -0.5717  0.6404  0.0624
   54DOPE   H5R 6880   7.131   4.169  13.851 -0.1356  0.8680 -1.2576
   54DOPE   H5S 6881   7.279   4.083  13.883 -0.3969 -0.1161 -0.0827
   54DOPE   C26 6882   7.117   3.985  13.968 -0.4992 -0.0696  0.5020
   54DOPE   H6R 6883   7.168   3.888  13.981 -1.1637 -0.2103  2.2474
   54DOPE   H6S 6884   7.009   3.964  13.949 -0.2280  0.7373 -2.5314
   54DOPE   C27 6885   7.121   4.069  14.096 -0.4652  0.2422  0.7990
   54DOPE   H7R 6886   7.064   4.164  14.082  0.2802  0.7844  1.3880
   54DOPE   H7S 6887   7.227   4.094  14.117  0.1113 -2.0544  0.9121
   54DOPE   C28 6888   7.056   3.992  14.206 -0.2948  0.0171  0.1871
   54DOPE   H8R 6889   7.119   3.908  14.241 -1.2042  0.4265  3.0816
   54DOPE   H8S 6890   6.959   3.951  14.171 -0.7847  0.2778  1.2040
   54DOPE   C29 6891   7.053   4.077  14.332  0.4540  0.0907 -0.6700
   54DOPE   H9R 6892   7.154   4.118  14.347  0.4105 -0.5281  1.7021
   54DOPE  C210 6893   6.953   4.107  14.419 -0.6524  0.4462  0.5125
   54DOPE  H10R 6894   6.989   4.153  14.512  4.8445 -2.5470  0.2663
   54DOPE  C211 6895   6.809   4.068  14.418 -0.0862  0.2627 -0.1544
   54DOPE  H11R 6896   6.781   4.010  14.509 -4.8272  0.7848 -1.0171
   54DOPE  H11S 6897   6.788   4.003  14.330  0.4806  1.1808 -0.9831
   54DOPE  C212 6898   6.731   4.197  14.418 -0.5342  0.3553 -0.1189
   54DOPE  H12R 6899   6.625   4.163  14.423  0.0284 -1.9476 -1.9265
   54DOPE  H12S 6900   6.729   4.262  14.328 -0.2128  0.9446  0.2945
   54DOPE  C213 6901   6.753   4.293  14.540  0.2467  0.5157  0.6692
   54DOPE  H13R 6902   6.689   4.382  14.529  1.2077  1.1063 -0.3481
   54DOPE  H13S 6903   6.860   4.324  14.536  0.4449 -0.2386 -0.4708
   54DOPE  C214 6904   6.719   4.230  14.677 -0.2929  0.4930  0.2572
   54DOPE  H14R 6905   6.808   4.179  14.718  0.5841  2.8353  1.4834
   54DOPE  H14S 6906   6.635   4.157  14.672  0.1144  0.1083 -2.5569
   54DOPE  C215 6907   6.673   4.339  14.781 -0.0031 -0.5564 -0.0438
   54DOPE  H15R 6908   6.611   4.413  14.726 -1.6720  0.7790  3.3272
   54DOPE  H15S 6909   6.767   4.386  14.815 -0.2416 -0.3446  0.3271
   54DOPE  C216 6910   6.592   4.272  14.899  0.1302  0.1453  0.3472
   54DOPE  H16R 6911   6.498   4.224  14.867 -0.0470  1.3041 -0.9922
   54DOPE  H16S 6912   6.564   4.357  14.966 -0.5801  1.4865 -1.5859
   54DOPE  C217 6913   6.675   4.165  14.972  0.2411 -0.0865  0.5457
   54DOPE  H17R 6914   6.724   4.099  14.897  2.5105  1.0801  0.9412
   54DOPE  H17S 6915   6.604   4.100  15.029 -0.2875 -1.4275 -1.5008
   54DOPE  C218 6916   6.784   4.216  15.057 -0.1616 -0.4625 -0.0496
   54DOPE  H18R 6917   6.846   4.300  15.018  2.2579 -1.0588  2.1951
   54DOPE  H18S 6918   6.861   4.136  15.065 -0.9900 -1.2000  0.8377
   54DOPE  H18T 6919   6.747   4.236  15.160 -1.1072 -0.6779 -0.3435
   54DOPE   C33 6920   6.637   3.774  13.613  0.0939 -0.5130  0.4899
   54DOPE   H3X 6921   6.533   3.751  13.581  0.4742  0.8182 -1.9853
   54DOPE   H3Y 6922   6.641   3.876  13.656  1.3834  0.1248 -1.0250
   54DOPE   C34 6923   6.682   3.691  13.732 -0.4713  0.5616 -0.6889
   54DOPE   H4X 6924   6.590   3.653  13.781 -0.1055 -1.9592 -1.8162
   54DOPE   H4Y 6925   6.726   3.597  13.692 -0.1355  1.0024 -1.3805
   54DOPE   C35 6926   6.776   3.772  13.816 -0.2160  0.1285  0.4942
   54DOPE   H5X 6927   6.743   3.875  13.842  1.4791  0.2000  2.7313
   54DOPE   H5Y 6928   6.870   3.771  13.757 -0.3560 -2.5594  0.1768
   54DOPE   C36 6929   6.797   3.703  13.948  0.2431 -0.0141  0.0703
   54DOPE   H6X 6930   6.872   3.763  14.004  0.2061 -1.0175  1.2111
   54DOPE   H6Y 6931   6.845   3.604  13.931  0.9128  0.0688  1.3771
   54DOPE   C37 6932   6.664   3.699  14.034 -0.1905 -0.4560  0.1392
   54DOPE   H7X 6933   6.618   3.800  14.027 -0.6589 -0.6115  0.8341
   54DOPE   H7Y 6934   6.607   3.621  13.979  1.8702 -1.5994 -0.4573
   54DOPE   C38 6935   6.698   3.664  14.185 -0.2727 -0.4506  0.4403
   54DOPE   H8X 6936   6.740   3.756  14.230 -0.4743 -0.5131  0.7587
   54DOPE   H8Y 6937   6.786   3.596  14.179 -1.0140 -1.3787 -0.2285
   54DOPE   C39 6938   6.588   3.620  14.271 -0.3740  0.0947 -0.1469
   54DOPE   H9X 6939   6.499   3.676  14.237 -0.1573  0.2470 -0.4686
   54DOPE  C310 6940   6.603   3.540  14.375 -0.0627  0.5993 -0.0804
   54DOPE  H10X 6941   6.516   3.515  14.439 -0.0394 -0.2585 -0.3688
   54DOPE  C311 6942   6.725   3.468  14.434  0.2080 -0.4125  0.4355
   54DOPE  H11X 6943   6.716   3.369  14.385 -0.9055  0.8046 -2.0022
   54DOPE  H11Y 6944   6.820   3.509  14.392  0.3610 -1.6956 -0.5161
   54DOPE  C312 6945   6.736   3.458  14.588 -0.4568 -0.0999 -0.0534
   54DOPE  H12X 6946   6.823   3.395  14.617 -0.2899  0.7958  1.4911
   54DOPE  H12Y 6947   6.639   3.415  14.622 -0.5268  0.6471  0.6993
   54DOPE  C313 6948   6.760   3.592  14.663  0.6683  0.4499  0.4147
   54DOPE  H13X 6949   6.669   3.655  14.650 -1.2223 -2.4399 -1.5174
   54DOPE  H13Y 6950   6.771   3.568  14.771 -0.7698 -1.1313  0.2602
   54DOPE  C314 6951   6.882   3.677  14.619  0.1336  0.0667  0.6286
   54DOPE  H14X 6952   6.855   3.720  14.520  0.6991  0.5924  0.6950
   54DOPE  H14Y 6953   6.970   3.611  14.611  0.2773  0.3310  0.0102
   54DOPE  C315 6954   6.902   3.791  14.722 -0.3513 -0.0708  0.0229
   54DOPE  H15X 6955   6.914   3.733  14.816  0.1721 -1.5361 -0.9201
   54DOPE  H15Y 6956   6.823   3.867  14.737  0.1863  0.3308  0.8570
   54DOPE  C316 6957   7.031   3.874  14.687  0.0869  0.2899  0.0600
   54DOPE  H16X 6958   7.010   3.926  14.591 -0.0702 -1.4260 -0.8743
   54DOPE  H16Y 6959   7.109   3.799  14.666  0.2697  0.5847 -0.3253
   54DOPE  C317 6960   7.073   3.970  14.799  0.4588  0.0656  0.1992
   54DOPE  H17X 6961   7.003   4.056  14.806  0.2618  0.0150 -0.9780
   54DOPE  H17Y 6962   7.070   3.916  14.896  1.5974 -1.4442 -0.5692
   54DOPE  C318 6963   7.212   4.023  14.790  0.2937 -0.0526 -0.5979
   54DOPE  H18X 6964   7.282   3.957  14.845 -0.6772  0.5096  1.3921
   54DOPE  H18Y 6965   7.244   4.040  14.685 -2.1895 -0.4064 -1.4770
   54DOPE  H18Z 6966   7.210   4.118  14.848 -0.5650  0.0481 -0.7839
   55DOPE     N 6967   0.149   6.167  12.866  0.0325 -0.6918 -0.0248
   55DOPE   HN1 6968   0.101   6.076  12.852 -0.8485  0.1355 -3.2035
   55DOPE   HN2 6969   0.126   6.212  12.957  2.2903  2.2514 -0.7136
   55DOPE   HN3 6970   0.120   6.232  12.790 -1.0295  0.0848  1.0221
   55DOPE   C12 6971   0.299   6.152  12.867  0.0563 -0.0343  0.5605
   55DOPE  H12A 6972   0.346   6.253  12.867  1.2930 -0.5916  0.7620
   55DOPE  H12B 6973   0.326   6.094  12.776 -1.5270 -1.1951  0.7943
   55DOPE   C11 6974   0.341   6.091  12.996 -0.5450 -0.4111 -0.5372
   55DOPE  H11A 6975   0.289   5.996  13.019  0.2309 -0.6226  0.4401
   55DOPE  H11B 6976   0.311   6.152  13.084 -0.2413  1.0674 -1.4207
   55DOPE     P 6977   0.550   5.951  12.949 -0.0612 -0.2038 -0.2459
   55DOPE   O13 6978   0.679   5.985  12.893  0.3472 -0.0935 -0.3449
   55DOPE   O14 6979   0.463   5.882  12.853 -0.0701  0.5990  0.0805
   55DOPE   O11 6980   0.565   5.859  13.077 -0.0755 -0.0098  0.5948
   55DOPE   O12 6981   0.485   6.083  13.005  0.1293  0.2840  0.5660
   55DOPE    C1 6982   0.594   5.892  13.211  0.4992 -0.7243 -0.0584
   55DOPE    HA 6983   0.635   5.995  13.217 -0.3979 -0.2605 -1.4060
   55DOPE    HB 6984   0.670   5.822  13.253  0.5265 -0.3038  0.6172
   55DOPE    C2 6985   0.467   5.870  13.304 -0.2390 -0.3516 -0.6081
   55DOPE    HS 6986   0.396   5.955  13.294  1.7199  1.6853  1.6743
   55DOPE   O21 6987   0.515   5.851  13.441 -0.6068 -0.3920 -0.4729
   55DOPE   C21 6988   0.597   5.943  13.485 -1.1907  0.1988 -0.3933
   55DOPE   O22 6989   0.616   6.052  13.438 -0.6293 -0.3896 -0.6888
   55DOPE   C22 6990   0.671   5.880  13.612 -0.8341  0.2392 -0.2309
   55DOPE   H2R 6991   0.724   5.790  13.575  1.5661  2.2314 -2.0188
   55DOPE   H2S 6992   0.584   5.850  13.674 -2.1678  0.6233 -1.8360
   55DOPE    C3 6993   0.382   5.750  13.251 -0.6026 -0.5294 -0.2793
   55DOPE    HX 6994   0.455   5.678  13.207 -0.6033 -0.5969 -0.1709
   55DOPE    HY 6995   0.313   5.783  13.170 -1.0035 -0.4857  0.0773
   55DOPE   O31 6996   0.301   5.703  13.354  0.3723 -0.4670 -0.4012
   55DOPE   C31 6997   0.337   5.597  13.420  0.6171  0.1653  0.5735
   55DOPE   O32 6998   0.407   5.505  13.375 -0.3885  1.1270 -0.2825
   55DOPE   C32 6999   0.278   5.592  13.561  0.3599 -0.4199  0.0078
   55DOPE   H2X 7000   0.333   5.674  13.613 -1.6672  1.3897 -0.5440
   55DOPE   H2Y 7001   0.171   5.621  13.550  0.9246  1.4710 -0.9955
   55DOPE   C23 7002   0.756   5.984  13.689  0.1664  0.5411  0.5389
   55DOPE   H3R 7003   0.768   5.940  13.791  0.0268  0.2176  0.4193
   55DOPE   H3S 7004   0.685   6.068  13.706 -1.7684 -0.4044 -2.1290
   55DOPE   C24 7005   0.886   6.016  13.627  0.7271 -0.6534  0.6274
   55DOPE   H4R 7006   0.939   6.092  13.689  2.1374  0.7663 -2.1094
   55DOPE   H4S 7007   0.862   6.069  13.533 -1.2294 -0.7219  1.0298
   55DOPE   C25 7008   0.985   5.905  13.610  0.3040 -0.3823  0.4798
   55DOPE   H5R 7009   1.072   5.942  13.552  0.5435 -0.2489  0.9127
   55DOPE   H5S 7010   0.944   5.819  13.553 -1.4119  1.6985 -1.6457
   55DOPE   C26 7011   1.036   5.840  13.745  0.2139  0.4623 -0.2951
   55DOPE   H6R 7012   0.970   5.865  13.831 -0.5192  0.3538 -0.8247
   55DOPE   H6S 7013   1.136   5.886  13.764 -0.7796  4.0093 -2.6427
   55DOPE   C27 7014   1.043   5.686  13.739 -0.6363 -0.5668 -0.4940
   55DOPE   H7R 7015   1.119   5.664  13.661 -0.5205  0.7207 -0.7707
   55DOPE   H7S 7016   0.947   5.644  13.700  0.0654 -2.0054 -0.7476
   55DOPE   C28 7017   1.088   5.612  13.865  0.3359 -0.1987 -0.8691
   55DOPE   H8R 7018   1.046   5.510  13.852  0.6386 -0.2080 -1.7745
   55DOPE   H8S 7019   1.036   5.653  13.955  1.8680  1.5897 -0.7429
   55DOPE   C29 7020   1.243   5.607  13.881  0.3356 -0.1075 -0.1941
   55DOPE   H9R 7021   1.296   5.589  13.786 -0.9585 -0.8006 -0.8143
   55DOPE  C210 7022   1.311   5.605  13.998 -0.0818 -0.0759  0.4951
   55DOPE  H10R 7023   1.420   5.599  13.989 -0.0979 -1.3425  1.0313
   55DOPE  C211 7024   1.258   5.610  14.140  0.2270  0.3851 -0.0910
   55DOPE  H11R 7025   1.148   5.624  14.155  0.0155  0.9879 -1.9146
   55DOPE  H11S 7026   1.304   5.696  14.194  0.9594  1.6720 -2.6095
   55DOPE  C212 7027   1.293   5.485  14.225 -0.5301  0.5916 -0.1643
   55DOPE  H12R 7028   1.245   5.394  14.181  4.9426 -2.0374 -1.6791
   55DOPE  H12S 7029   1.249   5.497  14.326  0.7650  1.3956  0.3247
   55DOPE  C213 7030   1.436   5.452  14.245 -0.0209  0.1396  0.5193
   55DOPE  H13R 7031   1.493   5.536  14.291  1.1826 -0.2112 -0.2863
   55DOPE  H13S 7032   1.487   5.420  14.152 -1.8126 -1.5356  0.0698
   55DOPE  C214 7033   1.465   5.322  14.327  0.0260 -0.2430  1.0231
   55DOPE  H14R 7034   1.390   5.329  14.409 -0.6574 -0.1683  0.4025
   55DOPE  H14S 7035   1.570   5.329  14.363  0.0779  0.4779  0.7369
   55DOPE  C215 7036   1.446   5.182  14.271 -0.1351  0.1153  0.0052
   55DOPE  H15R 7037   1.496   5.177  14.172 -0.6207 -0.2761 -0.2243
   55DOPE  H15S 7038   1.342   5.167  14.237  0.0450  1.3286 -1.1559
   55DOPE  C216 7039   1.479   5.064  14.365 -0.2688  0.2536  0.0553
   55DOPE  H16R 7040   1.420   5.087  14.455 -0.8920  1.2977 -0.5972
   55DOPE  H16S 7041   1.588   5.053  14.387 -0.2474 -1.0195 -0.5722
   55DOPE  C217 7042   1.442   4.926  14.300  0.3201 -0.1028  0.2296
   55DOPE  H17R 7043   1.524   4.856  14.273  0.5523 -0.5975  2.1050
   55DOPE  H17S 7044   1.396   4.942  14.200  0.0148 -0.7292  0.2650
   55DOPE  C218 7045   1.347   4.842  14.383 -0.0598 -0.7061  0.0772
   55DOPE  H18R 7046   1.410   4.806  14.467  2.2024 -0.7872 -1.5525
   55DOPE  H18S 7047   1.328   4.748  14.327  1.1410 -0.5786 -0.5735
   55DOPE  H18T 7048   1.258   4.904  14.409  0.7491  1.2252 -1.5133
   55DOPE   C33 7049   0.298   5.457  13.643 -0.1194  0.0264 -0.0734
   55DOPE   H3X 7050   0.405   5.434  13.624 -0.4766 -2.2498  0.3657
   55DOPE   H3Y 7051   0.243   5.374  13.593 -1.0947 -0.9393  2.4627
   55DOPE   C34 7052   0.258   5.461  13.791 -0.5922 -0.3745  0.4977
   55DOPE   H4X 7053   0.315   5.548  13.829  0.0125 -0.2679 -0.6042
   55DOPE   H4Y 7054   0.148   5.479  13.788 -0.3107  1.4573 -2.5822
   55DOPE   C35 7055   0.290   5.330  13.866 -0.4965  0.1897 -0.4437
   55DOPE   H5X 7056   0.395   5.293  13.862 -0.4745  0.1148  0.6114
   55DOPE   H5Y 7057   0.220   5.256  13.822 -0.7072  0.6956 -0.9796
   55DOPE   C36 7058   0.271   5.364  14.013  0.3220  0.0953  0.5333
   55DOPE   H6X 7059   0.349   5.439  14.034  0.5588  0.4134 -1.2915
   55DOPE   H6Y 7060   0.293   5.273  14.074  1.1567 -0.5625 -0.6976
   55DOPE   C37 7061   0.141   5.439  14.047  0.1870  0.4862  0.6755
   55DOPE   H7X 7062   0.127   5.540  14.002  0.5950 -0.0973 -0.7954
   55DOPE   H7Y 7063   0.062   5.376  14.002  1.9264 -0.2430 -1.5176
   55DOPE   C38 7064   0.125   5.457  14.203  0.3661 -0.9471 -0.4151
   55DOPE   H8X 7065   0.131   5.356  14.248 -0.6472 -1.5658 -1.6166
   55DOPE   H8Y 7066   0.025   5.502  14.225  0.6005 -0.4088 -0.4241
   55DOPE   C39 7067   0.233   5.541  14.263 -0.1969  0.3517  0.2432
   55DOPE   H9X 7068   0.211   5.647  14.245 -0.1786  0.0743 -1.6125
   55DOPE  C310 7069   0.341   5.506  14.336  0.1314  0.5718  0.8399
   55DOPE  H10X 7070   0.417   5.579  14.366  2.5090 -0.9180 -1.1030
   55DOPE  C311 7071   0.378   5.363  14.374 -1.1263  0.1484 -0.1402
   55DOPE  H11X 7072   0.295   5.293  14.398 -1.0785  0.7916  2.1392
   55DOPE  H11Y 7073   0.434   5.313  14.292 -1.9643  2.4516 -2.2652
   55DOPE  C312 7074   0.483   5.367  14.489  0.9687 -0.4805  1.4908
   55DOPE  H12X 7075   0.442   5.420  14.577  0.1055 -0.4297  1.0703
   55DOPE  H12Y 7076   0.579   5.417  14.465 -0.0953  1.3074  0.7560
   55DOPE  C313 7077   0.498   5.224  14.540 -0.2066  0.4581  0.5204
   55DOPE  H13X 7078   0.399   5.176  14.549 -0.0349 -0.0382 -0.1957
   55DOPE  H13Y 7079   0.550   5.161  14.465 -2.9461 -1.4889  0.1151
   55DOPE  C314 7080   0.568   5.220  14.671  0.4933 -0.4924 -0.1631
   55DOPE  H14X 7081   0.498   5.271  14.740  0.8267 -1.6640  1.0867
   55DOPE  H14Y 7082   0.662   5.279  14.670  0.4787 -0.4709 -0.6607
   55DOPE  C315 7083   0.605   5.074  14.723  0.2086 -0.0709  0.4047
   55DOPE  H15X 7084   0.706   5.047  14.683  0.2459  1.4866 -0.6701
   55DOPE  H15Y 7085   0.523   5.010  14.685 -1.4676  1.9553  0.4422
   55DOPE  C316 7086   0.592   5.072  14.877 -0.1942 -0.4817 -0.1090
   55DOPE  H16X 7087   0.491   5.101  14.914 -0.2794 -1.2331  0.2572
   55DOPE  H16Y 7088   0.661   5.154  14.908 -1.1832  0.5062 -0.4209
   55DOPE  C317 7089   0.643   4.954  14.945  0.2946 -0.9105  0.3935
   55DOPE  H17X 7090   0.659   4.872  14.872  0.0423 -0.2648 -0.4143
   55DOPE  H17Y 7091   0.747   4.984  14.969  0.4444 -0.8128 -0.3349
   55DOPE  C318 7092   0.577   4.910  15.076 -0.6527  0.4073  0.0595
   55DOPE  H18X 7093   0.588   4.998  15.143  1.2018  0.9258 -0.8540
   55DOPE  H18Y 7094   0.470   4.884  15.062 -0.9217 -0.0063  2.4553
   55DOPE  H18Z 7095   0.637   4.828  15.121 -0.0443  1.7833  1.8616
   56DOPE     N 7096   0.777   6.219  12.983 -0.1228 -0.4215 -0.6643
   56DOPE   HN1 7097   0.738   6.131  12.944 -1.5416  0.1009 -0.4849
   56DOPE   HN2 7098   0.847   6.254  12.915  2.1328 -0.5361  1.4168
   56DOPE   HN3 7099   0.833   6.188  13.065  1.2994 -0.3430 -1.5671
   56DOPE   C12 7100   0.667   6.319  13.012  0.2834 -0.3806  0.1413
   56DOPE  H12A 7101   0.602   6.295  13.098  0.1506  1.7642  0.7148
   56DOPE  H12B 7102   0.604   6.329  12.921  2.7783  2.1939 -1.5060
   56DOPE   C11 7103   0.730   6.452  13.051  0.4300  0.9380  0.0877
   56DOPE  H11A 7104   0.775   6.440  13.152 -0.3518  0.9779  0.4528
   56DOPE  H11B 7105   0.645   6.523  13.058 -0.5237 -0.2790  1.7987
   56DOPE     P 7106   0.898   6.641  13.010 -0.2461 -0.1110  0.0038
   56DOPE   O13 7107   0.815   6.743  12.943 -0.0114  0.8703  0.8264
   56DOPE   O14 7108   1.043   6.642  12.979  0.4500  0.5076 -0.0122
   56DOPE   O11 7109   0.890   6.641  13.169  0.2174  0.3244  0.1662
   56DOPE   O12 7110   0.836   6.496  12.965  0.2737 -0.0066  0.1816
   56DOPE    C1 7111   0.798   6.731  13.235 -0.2694 -0.6282  0.0239
   56DOPE    HA 7112   0.784   6.698  13.341  0.7650  0.0778  0.3904
   56DOPE    HB 7113   0.693   6.720  13.200 -0.8299  1.6949  0.8432
   56DOPE    C2 7114   0.850   6.875  13.240  0.0931 -0.5427  0.6832
   56DOPE    HS 7115   0.875   6.908  13.137 -1.8671 -1.5836 -0.1756
   56DOPE   O21 7116   0.966   6.877  13.328 -0.2337  0.1358 -0.6368
   56DOPE   C21 7117   1.074   6.923  13.280  0.2708  0.9241 -0.1777
   56DOPE   O22 7118   1.092   6.973  13.169 -0.4084  0.2530 -0.4530
   56DOPE   C22 7119   1.198   6.893  13.370 -0.7592 -0.4013  0.0099
   56DOPE   H2R 7120   1.271   6.851  13.297 -2.0969 -0.8265 -1.1255
   56DOPE   H2S 7121   1.167   6.822  13.451 -0.2750  1.1329  1.6065
   56DOPE    C3 7122   0.748   6.981  13.288  0.0343 -0.1615 -0.5216
   56DOPE    HX 7123   0.671   6.985  13.208 -2.4666 -0.7788  1.7007
   56DOPE    HY 7124   0.772   7.088  13.300  0.2873 -0.0882 -1.5694
   56DOPE   O31 7125   0.687   6.936  13.407 -0.4440  0.1063  0.2889
   56DOPE   C31 7126   0.748   6.976  13.519  0.0086  0.0108  0.0033
   56DOPE   O32 7127   0.825   7.070  13.529 -0.4210 -0.4295  0.2659
   56DOPE   C32 7128   0.690   6.906  13.640  0.2814  0.7766 -0.2039
   56DOPE   H2X 7129   0.630   6.984  13.692 -0.4077 -0.4319  0.8862
   56DOPE   H2Y 7130   0.629   6.817  13.613 -0.8157  1.8724 -1.4919
   56DOPE   C23 7131   1.247   7.020  13.436  0.2352 -0.3290  0.1894
   56DOPE   H3R 7132   1.165   7.094  13.448  1.4302  1.0696 -0.0418
   56DOPE   H3S 7133   1.326   7.071  13.377 -0.1937  0.0821 -0.0289
   56DOPE   C24 7134   1.307   6.992  13.579  0.2835 -0.5598  0.5630
   56DOPE   H4R 7135   1.395   6.925  13.572  0.8891  0.1573  1.0933
   56DOPE   H4S 7136   1.233   6.943  13.645  1.3619 -1.2821  1.2668
   56DOPE   C25 7137   1.354   7.122  13.643  0.1710 -0.2632 -0.0969
   56DOPE   H5R 7138   1.414   7.184  13.574 -0.2797 -1.8076 -1.9706
   56DOPE   H5S 7139   1.423   7.101  13.728  1.1451  0.9439 -0.5689
   56DOPE   C26 7140   1.246   7.206  13.714 -0.4150  0.6496 -0.0744
   56DOPE   H6R 7141   1.166   7.227  13.640 -0.3551  1.1127 -0.0115
   56DOPE   H6S 7142   1.302   7.299  13.738  1.0273  0.1943 -1.5351
   56DOPE   C27 7143   1.194   7.137  13.841 -0.1876  0.7507 -0.0196
   56DOPE   H7R 7144   1.282   7.082  13.880  1.5180  2.9378 -0.6047
   56DOPE   H7S 7145   1.116   7.060  13.824 -1.3866  0.9347  3.7031
   56DOPE   C28 7146   1.135   7.234  13.941  0.3114  0.1724 -0.0593
   56DOPE   H8R 7147   1.087   7.172  14.019  3.4986 -2.1676  0.2068
   56DOPE   H8S 7148   1.046   7.289  13.901 -0.5625  0.8897  2.6584
   56DOPE   C29 7149   1.227   7.332  13.995  0.0011  1.2123 -0.4792
   56DOPE   H9R 7150   1.243   7.429  13.947  3.2972  1.6370  1.1365
   56DOPE  C210 7151   1.288   7.321  14.119  0.0357 -0.0145 -0.9306
   56DOPE  H10R 7152   1.351   7.404  14.156 -1.9273 -0.1149  3.2236
   56DOPE  C211 7153   1.284   7.212  14.229  0.3717 -0.3783 -1.0132
   56DOPE  H11R 7154   1.385   7.194  14.271  0.5801  1.7706 -0.4587
   56DOPE  H11S 7155   1.248   7.119  14.181  2.2875 -0.9463 -1.4035
   56DOPE  C212 7156   1.191   7.250  14.350  0.1243  0.0945  1.1142
   56DOPE  H12R 7157   1.093   7.285  14.309  0.2940 -0.8121 -0.1144
   56DOPE  H12S 7158   1.227   7.332  14.416  1.2089 -0.7980  1.6552
   56DOPE  C213 7159   1.154   7.120  14.433 -0.3144  0.7512 -0.2455
   56DOPE  H13R 7160   1.102   7.045  14.369 -1.4038  1.4730 -0.2339
   56DOPE  H13S 7161   1.095   7.151  14.522  0.0324  0.3605  0.1248
   56DOPE  C214 7162   1.271   7.044  14.491 -0.5042  0.6422 -0.1702
   56DOPE  H14R 7163   1.319   7.109  14.567  2.4908 -0.3184 -1.1179
   56DOPE  H14S 7164   1.335   7.014  14.406 -1.7528  1.4999 -1.4713
   56DOPE  C215 7165   1.227   6.911  14.557  0.1635 -0.5049 -0.2951
   56DOPE  H15R 7166   1.190   6.837  14.483 -1.1283  0.3104 -0.4883
   56DOPE  H15S 7167   1.144   6.939  14.625  0.1282  0.9411 -0.8957
   56DOPE  C216 7168   1.325   6.846  14.659  0.5171  0.4504 -0.5830
   56DOPE  H16R 7169   1.296   6.886  14.759  0.1757 -0.9564 -0.1005
   56DOPE  H16S 7170   1.422   6.894  14.635 -0.2436  2.6175  0.4038
   56DOPE  C217 7171   1.307   6.693  14.664 -0.2607  0.4230 -0.8858
   56DOPE  H17R 7172   1.201   6.663  14.647 -0.0844 -1.6728  1.1934
   56DOPE  H17S 7173   1.321   6.649  14.765 -0.1643 -0.4308 -1.2620
   56DOPE  C218 7174   1.405   6.627  14.575 -0.3374  0.3828  0.4700
   56DOPE  H18R 7175   1.411   6.686  14.480  1.9174  2.0319  1.5268
   56DOPE  H18S 7176   1.372   6.523  14.555 -2.6474  1.1294  0.0475
   56DOPE  H18T 7177   1.508   6.630  14.616 -0.1464 -0.5162  0.0818
   56DOPE   C33 7178   0.803   6.847  13.727  0.1276 -0.1169 -0.5414
   56DOPE   H3X 7179   0.757   6.779  13.803  0.9458 -0.8805 -0.7128
   56DOPE   H3Y 7180   0.845   6.929  13.790 -4.4597  0.3463  2.4176
   56DOPE   C34 7181   0.913   6.777  13.645  0.2673 -0.1241  0.2804
   56DOPE   H4X 7182   0.872   6.738  13.549  0.8985  0.2389 -0.1454
   56DOPE   H4Y 7183   0.990   6.849  13.610 -0.2568  0.2513 -0.1122
   56DOPE   C35 7184   0.988   6.674  13.731 -0.2267  0.4215  0.2781
   56DOPE   H5X 7185   0.929   6.580  13.736 -0.3381  0.5457  1.8763
   56DOPE   H5Y 7186   0.991   6.713  13.836 -0.5795  1.0502  0.0612
   56DOPE   C36 7187   1.134   6.652  13.683 -0.0346  0.5771  0.6623
   56DOPE   H6X 7188   1.191   6.745  13.701  0.8376  0.2800 -0.4231
   56DOPE   H6Y 7189   1.136   6.635  13.573  0.5352  2.3552  0.3710
   56DOPE   C37 7190   1.200   6.524  13.744  0.1645  0.1420  1.0453
   56DOPE   H7X 7191   1.307   6.517  13.715 -0.2934 -2.5684 -0.3176
   56DOPE   H7Y 7192   1.184   6.535  13.853  1.2787  1.0339  1.1422
   56DOPE   C38 7193   1.140   6.387  13.703  0.0445  0.3179  0.9592
   56DOPE   H8X 7194   1.118   6.388  13.594 -1.4760 -0.4582  1.2242
   56DOPE   H8Y 7195   1.039   6.393  13.750 -1.1580 -1.8656 -1.1154
   56DOPE   C39 7196   1.222   6.270  13.756 -0.2517 -0.0027  0.1943
   56DOPE   H9X 7197   1.307   6.244  13.691  0.5761  0.1468  1.1882
   56DOPE  C310 7198   1.196   6.189  13.863 -0.2643 -0.3903  0.0062
   56DOPE  H10X 7199   1.250   6.098  13.892 -3.1461 -1.9433  0.8911
   56DOPE  C311 7200   1.074   6.210  13.950  0.0745  0.0595 -0.2325
   56DOPE  H11X 7201   1.016   6.296  13.911  2.1757  1.2614 -0.9197
   56DOPE  H11Y 7202   1.012   6.120  13.935  2.1479 -1.1718 -2.0775
   56DOPE  C312 7203   1.109   6.253  14.098 -0.0911  0.8077  0.0074
   56DOPE  H12X 7204   1.193   6.190  14.135  0.6111  1.0784 -1.0772
   56DOPE  H12Y 7205   1.019   6.231  14.160 -0.0313 -2.6359 -0.8970
   56DOPE  C313 7206   1.138   6.401  14.100 -0.1073 -0.1129 -0.4880
   56DOPE  H13X 7207   1.215   6.415  14.021 -0.2725 -1.5112 -0.9065
   56DOPE  H13Y 7208   1.046   6.455  14.068 -0.2513 -0.2455 -0.2977
   56DOPE  C314 7209   1.176   6.453  14.241 -0.0144 -0.2694 -0.0597
   56DOPE  H14X 7210   1.278   6.415  14.264 -0.4744 -1.8964 -0.5860
   56DOPE  H14Y 7211   1.098   6.423  14.314  0.2416  2.4999  1.5208
   56DOPE  C315 7212   1.174   6.603  14.249 -0.5766  0.6992 -0.3559
   56DOPE  H15X 7213   1.188   6.644  14.351  0.6049 -0.0276 -0.1986
   56DOPE  H15Y 7214   1.076   6.645  14.217 -0.1430  0.7988 -1.6353
   56DOPE  C316 7215   1.284   6.654  14.161 -0.3053  0.6556 -0.4008
   56DOPE  H16X 7216   1.256   6.652  14.053  1.7109 -3.6632 -1.0346
   56DOPE  H16Y 7217   1.373   6.588  14.164  0.0123  1.1127  1.6349
   56DOPE  C317 7218   1.328   6.799  14.191  0.2026  0.2666 -0.8725
   56DOPE  H17X 7219   1.244   6.864  14.159 -0.3844 -1.3455 -2.7810
   56DOPE  H17Y 7220   1.349   6.807  14.300 -0.7010 -1.8706 -0.4921
   56DOPE  C318 7221   1.448   6.850  14.111 -0.2600  0.4660 -0.0656
   56DOPE  H18X 7222   1.427   6.831  14.003 -0.7546 -0.4178  0.1760
   56DOPE  H18Y 7223   1.450   6.960  14.126  1.4674  0.4947 -0.2900
   56DOPE  H18Z 7224   1.538   6.799  14.150 -0.6433 -1.8382 -1.9575
   57DOPE     N 7225   7.541   3.114  12.968  0.0582 -0.7094 -0.0895
   57DOPE   HN1 7226   7.437   3.118  12.960  0.1981  1.8185 -1.6143
   57DOPE   HN2 7227   7.572   3.208  12.938 -2.0454  0.2050  0.4225
   57DOPE   HN3 7228   7.576   3.046  12.898  3.0867 -0.2944  0.8824
   57DOPE   C12 7229   7.578   3.064  13.111  0.5247 -1.0845 -0.2568
   57DOPE  H12A 7230   7.519   3.134  13.175  0.0376  0.1249 -1.9618
   57DOPE  H12B 7231   7.687   3.081  13.121  0.2467  1.8190 -1.1124
   57DOPE   C11 7232   7.534   2.922  13.139  0.4502  0.3172  0.3103
   57DOPE  H11A 7233   7.424   2.914  13.131  0.5171  0.7021 -1.5601
   57DOPE  H11B 7234   7.557   2.888  13.242 -1.8238 -1.2499  0.3584
   57DOPE     P 7235   7.720   2.747  13.053 -0.4580  0.2000 -0.0517
   57DOPE   O13 7236   7.828   2.847  13.087 -0.0054  0.1639  0.0609
   57DOPE   O14 7237   7.741   2.667  12.930 -0.3952 -0.0572 -0.0504
   57DOPE   O11 7238   7.715   2.661  13.181  0.2526  0.0219  0.4976
   57DOPE   O12 7239   7.583   2.828  13.045 -0.0882  0.6408  0.2471
   57DOPE    C1 7240   7.814   2.583  13.236  0.0765  0.5078  0.0410
   57DOPE    HA 7241   7.906   2.589  13.173  1.9882  0.7079  2.6781
   57DOPE    HB 7242   7.784   2.478  13.257  1.7208  0.2328  1.2241
   57DOPE    C2 7243   7.841   2.635  13.383 -0.5431 -0.4151  0.1313
   57DOPE    HS 7244   7.921   2.581  13.438 -0.1787 -2.0919 -1.9629
   57DOPE   O21 7245   7.717   2.635  13.455 -0.4737 -0.1282  0.4175
   57DOPE   C21 7246   7.677   2.517  13.498  0.4875  0.1275 -0.8313
   57DOPE   O22 7247   7.723   2.405  13.476 -0.2970 -0.1580 -0.1767
   57DOPE   C22 7248   7.560   2.549  13.595  0.3974  0.2875  0.1003
   57DOPE   H2R 7249   7.480   2.474  13.580 -1.6106  2.2564  0.5366
   57DOPE   H2S 7250   7.511   2.646  13.574  1.1484  0.8941  1.0188
   57DOPE    C3 7251   7.906   2.777  13.375  0.4968 -0.3776 -0.4937
   57DOPE    HX 7252   7.842   2.848  13.318  0.4300 -0.6211 -0.7264
   57DOPE    HY 7253   8.003   2.763  13.324  1.3444  4.4653 -0.6867
   57DOPE   O31 7254   7.929   2.815  13.510 -0.0613 -0.8037 -0.2389
   57DOPE   C31 7255   7.832   2.896  13.569  0.3945 -0.4501  0.1750
   57DOPE   O32 7256   7.730   2.929  13.512 -0.4355  0.2830 -0.3931
   57DOPE   C32 7257   7.882   2.957  13.701 -0.1463  0.7081 -0.4275
   57DOPE   H2X 7258   7.985   2.917  13.715 -0.4547  0.3071  0.7570
   57DOPE   H2Y 7259   7.889   3.068  13.698 -3.5683  1.0205 -2.1890
   57DOPE   C23 7260   7.605   2.538  13.741 -0.2625 -0.0178 -0.4212
   57DOPE   H3R 7261   7.678   2.617  13.768  1.2708 -2.0935  2.0022
   57DOPE   H3S 7262   7.670   2.447  13.748 -0.6375 -0.2784 -0.2634
   57DOPE   C24 7263   7.492   2.538  13.842  0.3359  0.3848 -0.5446
   57DOPE   H4R 7264   7.433   2.631  13.830 -1.1064 -0.1566  1.7152
   57DOPE   H4S 7265   7.535   2.565  13.941 -0.8829  1.9672 -0.4191
   57DOPE   C25 7266   7.406   2.415  13.843 -1.1052  0.2989  0.2121
   57DOPE   H5R 7267   7.460   2.318  13.842 -1.1272  0.2618  1.3130
   57DOPE   H5S 7268   7.348   2.412  13.748 -3.0879 -1.5522  1.3811
   57DOPE   C26 7269   7.304   2.405  13.955  0.4120  0.1376 -0.0161
   57DOPE   H6R 7270   7.233   2.487  13.932  0.7633 -0.1559 -2.4141
   57DOPE   H6S 7271   7.344   2.413  14.058 -0.6318 -1.6790  0.5873
   57DOPE   C27 7272   7.215   2.271  13.962  0.2880 -0.3832  0.7259
   57DOPE   H7R 7273   7.283   2.198  14.011  2.8197  0.9388 -0.6329
   57DOPE   H7S 7274   7.185   2.248  13.857 -2.0064  0.6103  1.1029
   57DOPE   C28 7275   7.087   2.292  14.049 -0.2835 -0.1971  1.0930
   57DOPE   H8R 7276   7.017   2.352  13.986 -1.5724 -1.9998  0.7166
   57DOPE   H8S 7277   7.107   2.352  14.140 -1.1631  1.5897  0.1569
   57DOPE   C29 7278   7.012   2.163  14.083 -0.1756 -0.2032 -0.5280
   57DOPE   H9R 7279   6.948   2.127  14.001 -1.8705  0.0396  0.6526
   57DOPE  C210 7280   7.019   2.101  14.200  0.0344 -0.5359 -0.4838
   57DOPE  H10R 7281   6.964   2.006  14.211 -0.6401 -0.1780 -0.6904
   57DOPE  C211 7282   7.097   2.148  14.322  0.1900 -0.2778  0.4207
   57DOPE  H11R 7283   7.136   2.252  14.318  1.7123 -0.8025  0.7903
   57DOPE  H11S 7284   7.183   2.079  14.341  0.3464  0.2325  1.6673
   57DOPE  C212 7285   7.003   2.148  14.446 -0.7394 -0.0374  0.2461
   57DOPE  H12R 7286   6.898   2.171  14.419 -0.0231  2.1434 -0.9203
   57DOPE  H12S 7287   7.031   2.230  14.517 -0.9587 -0.3060  0.6482
   57DOPE  C213 7288   7.003   2.019  14.524  0.3832  0.1793 -1.3057
   57DOPE  H13R 7289   7.001   1.948  14.439 -0.0905 -0.9200 -0.4080
   57DOPE  H13S 7290   6.916   2.026  14.594  1.7694  0.4842  0.4672
   57DOPE  C214 7291   7.135   2.001  14.600  0.0826  1.0390  0.1468
   57DOPE  H14R 7292   7.144   2.078  14.680  2.3819  0.6412  0.3495
   57DOPE  H14S 7293   7.223   2.030  14.538 -1.8254  3.0109 -1.7866
   57DOPE  C215 7294   7.146   1.856  14.658 -0.3251  0.3916 -0.2548
   57DOPE  H15R 7295   7.052   1.832  14.712 -1.8708 -0.0094 -2.9721
   57DOPE  H15S 7296   7.225   1.837  14.733 -0.7306 -1.2562 -0.2172
   57DOPE  C216 7297   7.161   1.751  14.549  0.4783 -0.2290 -0.0523
   57DOPE  H16R 7298   7.257   1.745  14.494  0.8933  0.1794  0.6187
   57DOPE  H16S 7299   7.080   1.764  14.474  0.2666 -0.2009  0.1795
   57DOPE  C217 7300   7.132   1.618  14.623 -0.4348 -0.2487  0.0648
   57DOPE  H17R 7301   7.038   1.618  14.682  0.2311  0.9507  1.1747
   57DOPE  H17S 7302   7.206   1.604  14.704 -1.1561 -0.9414  0.6210
   57DOPE  C218 7303   7.136   1.494  14.534  0.0373  0.7701 -0.3539
   57DOPE  H18R 7304   7.043   1.488  14.473 -0.7816 -2.5500  1.0413
   57DOPE  H18S 7305   7.137   1.400  14.593  1.4836 -0.6663 -2.4908
   57DOPE  H18T 7306   7.216   1.492  14.457  1.3276 -0.0112  0.9635
   57DOPE   C33 7307   7.796   2.902  13.816  0.3805 -0.2473  0.0271
   57DOPE   H3X 7308   7.780   2.792  13.812 -0.8300 -0.1072  0.4245
   57DOPE   H3Y 7309   7.690   2.935  13.805  0.5359  0.4465  0.5376
   57DOPE   C34 7310   7.854   2.933  13.955  0.5948 -0.3649  0.4266
   57DOPE   H4X 7311   7.955   2.888  13.962  0.4795 -0.9427 -1.2367
   57DOPE   H4Y 7312   7.864   3.040  13.981 -1.4852  0.1907 -0.7782
   57DOPE   C35 7313   7.771   2.863  14.069 -0.1236  0.2611 -0.5384
   57DOPE   H5X 7314   7.730   2.769  14.027  0.7189 -1.7448  2.7120
   57DOPE   H5Y 7315   7.683   2.928  14.091 -0.7500 -0.7545  0.0674
   57DOPE   C36 7316   7.850   2.831  14.200  0.0834  0.5306  0.1147
   57DOPE   H6X 7317   7.941   2.776  14.169 -0.5639 -0.0346 -0.8119
   57DOPE   H6Y 7318   7.784   2.763  14.258 -1.3761  0.6114 -1.3612
   57DOPE   C37 7319   7.881   2.956  14.273 -0.7383 -0.7145  0.6588
   57DOPE   H7X 7320   7.962   2.992  14.207  0.5613 -2.1080  1.4372
   57DOPE   H7Y 7321   7.796   3.028  14.273  2.4329  3.4056 -1.1953
   57DOPE   C38 7322   7.930   2.923  14.421 -0.2587 -0.3414  0.0471
   57DOPE   H8X 7323   7.853   2.852  14.458 -0.9380 -0.5418 -1.6872
   57DOPE   H8Y 7324   7.915   3.011  14.488 -1.3706  0.1310 -0.7865
   57DOPE   C39 7325   8.071   2.868  14.426  0.3345  0.3659 -0.3046
   57DOPE   H9X 7326   8.090   2.780  14.364 -1.7917  0.0023 -0.5349
   57DOPE  C310 7327   8.177   2.914  14.493 -0.6308  0.5561 -0.3164
   57DOPE  H10X 7328   8.277   2.868  14.481 -0.6889  0.5226 -0.6683
   57DOPE  C311 7329   8.188   3.032  14.585 -0.3187  0.5228 -0.0256
   57DOPE  H11X 7330   8.285   3.082  14.565 -0.1396 -0.8633 -3.2726
   57DOPE  H11Y 7331   8.112   3.111  14.569 -1.1362 -0.3958 -0.9051
   57DOPE  C312 7332   8.188   2.994  14.739  0.1554  0.2353  0.8212
   57DOPE  H12X 7333   8.243   3.083  14.777  2.0347  1.1865 -3.4126
   57DOPE  H12Y 7334   8.257   2.908  14.749  1.1937  0.7496 -1.2790
   57DOPE  C313 7335   8.048   2.964  14.796 -0.3103 -0.1080  0.5161
   57DOPE  H13X 7336   7.984   3.054  14.784  1.0908  0.7241 -1.2256
   57DOPE  H13Y 7337   8.002   2.884  14.736 -2.4087  1.6606 -0.3687
   57DOPE  C314 7338   8.057   2.931  14.943 -0.6177  0.4857  1.1877
   57DOPE  H14X 7339   8.138   2.984  14.997 -0.2243  0.5363  0.5639
   57DOPE  H14Y 7340   8.088   2.825  14.954 -2.0481 -0.1571 -0.4340
   57DOPE  C315 7341   7.925   2.953  15.006  0.5065  0.1140 -0.0268
   57DOPE  H15X 7342   7.883   3.055  14.993  1.1563  0.2103 -1.5751
   57DOPE  H15Y 7343   7.954   2.946  15.113  0.3600  1.1926  0.0941
   57DOPE  C316 7344   7.820   2.852  14.968 -0.4949 -0.0871  0.1506
   57DOPE  H16X 7345   7.875   2.755  14.973  0.1229  0.3100  4.6452
   57DOPE  H16Y 7346   7.785   2.856  14.862 -0.1277 -0.0423  0.0290
   57DOPE  C317 7347   7.694   2.840  15.048  0.5512  0.0685  0.4682
   57DOPE  H17X 7348   7.634   2.930  15.022  1.8036  0.4373 -1.3328
   57DOPE  H17Y 7349   7.631   2.758  15.007 -0.1918  1.5127 -1.4749
   57DOPE  C318 7350   7.716   2.841  15.201  0.2130  0.0330 -0.2819
   57DOPE  H18X 7351   7.620   2.818  15.252  0.7873 -1.1051  0.3309
   57DOPE  H18Y 7352   7.774   2.750  15.228 -1.7182 -1.6594 -1.5101
   57DOPE  H18Z 7353   7.763   2.935  15.238  1.4202 -0.2662 -1.0086
   58DOPE     N 7354   7.179   6.210  12.752 -0.1060  0.1425  0.1637
   58DOPE   HN1 7355   7.129   6.218  12.661  1.1794  1.0188 -0.4968
   58DOPE   HN2 7356   7.112   6.152  12.807 -2.0153 -0.1522 -2.2622
   58DOPE   HN3 7357   7.180   6.307  12.791 -0.1308 -0.4003  1.5760
   58DOPE   C12 7358   7.321   6.153  12.744 -0.0517 -0.8149 -0.6591
   58DOPE  H12A 7359   7.380   6.231  12.692  0.2210  0.0931  0.9572
   58DOPE  H12B 7360   7.315   6.055  12.692  0.5850  0.2476 -2.8591
   58DOPE   C11 7361   7.375   6.137  12.892 -0.5363 -0.3844  0.4637
   58DOPE  H11A 7362   7.482   6.109  12.893 -0.1098  1.1075 -0.3747
   58DOPE  H11B 7363   7.315   6.057  12.940 -1.8410  1.4462  2.0864
   58DOPE     P 7364   7.458   6.365  13.016  0.0860  0.1272 -0.0968
   58DOPE   O13 7365   7.379   6.484  13.048  0.4309  0.4466 -0.0027
   58DOPE   O14 7366   7.566   6.379  12.917  0.2585 -0.8341  0.0687
   58DOPE   O11 7367   7.519   6.302  13.140 -0.0071 -0.2568  0.1258
   58DOPE   O12 7368   7.355   6.257  12.967 -0.3734  0.1313 -0.2761
   58DOPE    C1 7369   7.498   6.164  13.193  0.0547 -0.0146  0.4571
   58DOPE    HA 7370   7.561   6.090  13.140  2.9995  0.6213  2.7475
   58DOPE    HB 7371   7.391   6.137  13.195 -0.4513  1.8522  0.4123
   58DOPE    C2 7372   7.551   6.151  13.341 -0.6392 -0.3732 -0.5282
   58DOPE    HS 7373   7.552   6.043  13.368  0.6129  0.5258  3.9479
   58DOPE   O21 7374   7.456   6.212  13.424 -0.5523 -0.2647 -0.0371
   58DOPE   C21 7375   7.444   6.164  13.549  1.0867 -0.2313 -1.3083
   58DOPE   O22 7376   7.509   6.073  13.593  0.1195  0.5094  0.2157
   58DOPE   C22 7377   7.339   6.238  13.629  0.2943 -0.1538 -0.4798
   58DOPE   H2R 7378   7.252   6.269  13.567 -0.3603  1.3117  1.0735
   58DOPE   H2S 7379   7.399   6.326  13.659 -2.3781  0.6111  3.3611
   58DOPE    C3 7380   7.689   6.215  13.346 -0.6493  0.3231 -0.2986
   58DOPE    HX 7381   7.682   6.322  13.315 -1.8299 -0.2678 -2.2655
   58DOPE    HY 7382   7.746   6.163  13.266  0.4219 -1.6187  1.6139
   58DOPE   O31 7383   7.751   6.223  13.474 -0.8845  0.2447  0.2019
   58DOPE   C31 7384   7.812   6.111  13.512 -0.4529  0.4084  0.6717
   58DOPE   O32 7385   7.819   6.013  13.441  0.4210  0.6327 -0.3793
   58DOPE   C32 7386   7.863   6.121  13.656  0.0078 -0.3687  0.2473
   58DOPE   H2X 7387   7.914   6.217  13.676 -2.7864  1.5207 -1.1160
   58DOPE   H2Y 7388   7.774   6.115  13.722 -0.5340 -0.0618 -0.4485
   58DOPE   C23 7389   7.283   6.173  13.758 -0.1427 -0.8480 -0.2183
   58DOPE   H3R 7390   7.281   6.062  13.751 -1.4701 -0.7421 -2.0160
   58DOPE   H3S 7391   7.182   6.208  13.785  0.1734  0.0885 -0.2113
   58DOPE   C24 7392   7.365   6.211  13.877  0.0360 -0.2070 -0.0288
   58DOPE   H4R 7393   7.354   6.315  13.915 -0.9669 -0.7555  1.2462
   58DOPE   H4S 7394   7.472   6.190  13.858  0.4286  2.1097 -0.7061
   58DOPE   C25 7395   7.305   6.137  13.998 -0.0966 -0.2265 -0.2116
   58DOPE   H5R 7396   7.364   6.046  14.021  2.0487  1.0576 -0.3606
   58DOPE   H5S 7397   7.199   6.116  13.974 -0.0579  0.0460 -0.6327
   58DOPE   C26 7398   7.320   6.221  14.126  0.9564 -0.1855 -0.6590
   58DOPE   H6R 7399   7.291   6.328  14.120 -1.1184 -0.6304  0.4444
   58DOPE   H6S 7400   7.428   6.233  14.147  0.4460 -0.1347  2.3640
   58DOPE   C27 7401   7.270   6.159  14.251 -0.4526  0.4289 -0.2990
   58DOPE   H7R 7402   7.319   6.063  14.276  1.1566  1.6374  1.5021
   58DOPE   H7S 7403   7.164   6.129  14.240 -0.5206  0.8685 -0.9312
   58DOPE   C28 7404   7.299   6.261  14.373  0.5853 -0.2210  0.5473
   58DOPE   H8R 7405   7.241   6.234  14.464  0.6350  2.7392  1.5603
   58DOPE   H8S 7406   7.261   6.361  14.341  1.4775 -0.0948 -0.1675
   58DOPE   C29 7407   7.450   6.271  14.408  0.2222 -0.4061  0.0101
   58DOPE   H9R 7408   7.507   6.336  14.341 -1.7876  0.5339 -0.8767
   58DOPE  C210 7409   7.509   6.217  14.513  0.3232  0.5885 -0.5543
   58DOPE  H10R 7410   7.615   6.234  14.532  0.3243 -0.2232  0.2447
   58DOPE  C211 7411   7.446   6.131  14.625  0.1874  0.1736 -0.3985
   58DOPE  H11R 7412   7.513   6.045  14.647 -2.6231 -2.0104  0.2378
   58DOPE  H11S 7413   7.343   6.100  14.598  0.3136 -0.7841  0.1591
   58DOPE  C212 7414   7.435   6.210  14.758  1.0485  0.5172  1.1696
   58DOPE  H12R 7415   7.522   6.224  14.826  0.3243 -1.1192  2.4685
   58DOPE  H12S 7416   7.359   6.162  14.822  0.7601  1.2921  1.4235
   58DOPE  C213 7417   7.380   6.355  14.748  0.1028  0.0966  0.2118
   58DOPE  H13R 7418   7.353   6.373  14.642  2.5847 -1.6123 -0.7968
   58DOPE  H13S 7419   7.452   6.426  14.793  0.7296 -0.6702  0.4469
   58DOPE  C214 7420   7.251   6.366  14.829 -0.2770  0.1636 -0.2325
   58DOPE  H14R 7421   7.269   6.328  14.932 -3.1928 -0.4278  0.1487
   58DOPE  H14S 7422   7.171   6.305  14.783 -0.0003 -0.4341  0.0728
   58DOPE  C215 7423   7.216   6.520  14.831  1.0968  0.0612 -0.5974
   58DOPE  H15R 7424   7.197   6.541  14.723  1.7465  1.3553 -0.4836
   58DOPE  H15S 7425   7.303   6.572  14.876 -0.5054  2.3819 -0.0555
   58DOPE  C216 7426   7.096   6.545  14.925  0.4163 -1.1641 -0.0466
   58DOPE  H16R 7427   7.121   6.500  15.023 -1.7657 -1.0806  0.5939
   58DOPE  H16S 7428   7.003   6.491  14.897 -0.5080 -0.1232  0.9268
   58DOPE  C217 7429   7.061   6.697  14.948  0.1037  0.1516  1.3620
   58DOPE  H17R 7430   7.154   6.757  14.958 -0.4596  1.3399 -0.0629
   58DOPE  H17S 7431   6.993   6.703  15.036  0.1101  0.1958  1.3643
   58DOPE  C218 7432   6.989   6.757  14.823 -0.2733  0.1301 -0.0773
   58DOPE  H18R 7433   7.052   6.739  14.733  1.6760 -2.2347  1.6038
   58DOPE  H18S 7434   6.969   6.865  14.838  0.1952  0.3228 -0.7739
   58DOPE  H18T 7435   6.900   6.693  14.807  0.5130 -1.0618  0.1664
   58DOPE   C33 7436   7.961   6.012  13.697  0.3886 -0.2694  0.6818
   58DOPE   H3X 7437   8.060   6.033  13.650  0.7807  0.4501  1.7959
   58DOPE   H3Y 7438   7.928   5.914  13.658 -0.9920  1.0795 -1.8317
   58DOPE   C34 7439   7.988   6.015  13.843  0.7696 -0.2143  0.4629
   58DOPE   H4X 7440   7.969   6.108  13.900  1.9494 -0.1863  0.8331
   58DOPE   H4Y 7441   7.919   5.939  13.886 -0.9812  0.5247 -0.8977
   58DOPE   C35 7442   8.120   5.962  13.883  0.1995  0.2782  0.3431
   58DOPE   H5X 7443   8.202   6.031  13.855 -0.2625  0.1049 -1.5307
   58DOPE   H5Y 7444   8.142   5.868  13.828  0.2556  0.3825  0.1858
   58DOPE   C36 7445   8.143   5.933  14.037 -0.1722  0.5877  0.2375
   58DOPE   H6X 7446   8.065   5.860  14.067  0.8497 -0.8992 -0.6240
   58DOPE   H6Y 7447   8.138   6.026  14.097  0.0029 -0.3923  1.8177
   58DOPE   C37 7448   8.278   5.865  14.059  0.5054  0.4735 -1.2023
   58DOPE   H7X 7449   8.365   5.930  14.037 -0.0980  1.6152 -0.3008
   58DOPE   H7Y 7450   8.293   5.839  14.166 -0.3168  0.4074 -1.0982
   58DOPE   C38 7451   8.312   5.728  13.996 -0.9273 -0.0834 -0.0024
   58DOPE   H8X 7452   8.297   5.747  13.887  0.7316 -1.0389 -0.4326
   58DOPE   H8Y 7453   8.226   5.659  14.012  1.3224 -3.4216 -1.0793
   58DOPE   C39 7454   8.449   5.666  14.035  0.2649  0.2873  0.3843
   58DOPE   H9X 7455   8.534   5.737  14.032 -0.7619  1.5439 -0.1107
   58DOPE  C310 7456   8.457   5.541  14.083 -0.8828  0.8079  0.6972
   58DOPE  H10X 7457   8.557   5.502  14.111 -1.3213 -0.0342  1.1440
   58DOPE  C311 7458   8.347   5.440  14.105  0.1610  0.1972 -0.4805
   58DOPE  H11X 7459   8.321   5.421  14.211  0.6379 -4.6351 -0.9656
   58DOPE  H11Y 7460   8.250   5.465  14.058  0.1159  0.4325 -0.2628
   58DOPE  C312 7461   8.393   5.304  14.046 -0.6223 -0.2331 -0.3019
   58DOPE  H12X 7462   8.328   5.221  14.082 -1.2742  0.0004 -0.9024
   58DOPE  H12Y 7463   8.489   5.271  14.091 -0.9457  0.2136  0.7399
   58DOPE  C313 7464   8.397   5.312  13.889 -0.8098 -0.3935  0.1724
   58DOPE  H13X 7465   8.294   5.332  13.855  0.6126  4.4592 -2.2148
   58DOPE  H13Y 7466   8.461   5.399  13.863  1.4029 -1.7861  0.6043
   58DOPE  C314 7467   8.447   5.181  13.830 -0.1716  0.2247  0.0872
   58DOPE  H14X 7468   8.386   5.095  13.864 -3.0052  2.2492  0.4479
   58DOPE  H14Y 7469   8.551   5.157  13.859 -0.4607 -0.5054  0.5359
   58DOPE  C315 7470   8.431   5.178  13.677  0.3027 -0.3858 -0.3929
   58DOPE  H15X 7471   8.342   5.236  13.645  0.8849 -0.8170 -3.0404
   58DOPE  H15Y 7472   8.418   5.078  13.630 -0.1373  0.2409 -1.6835
   58DOPE  C316 7473   8.558   5.222  13.611 -0.8453 -0.4605  0.0984
   58DOPE  H16X 7474   8.633   5.140  13.616 -1.5060 -1.3595 -2.7512
   58DOPE  H16Y 7475   8.587   5.320  13.655 -0.9030  0.1196 -1.1291
   58DOPE  C317 7476   8.547   5.249  13.461 -0.4709 -0.1241  0.2169
   58DOPE  H17X 7477   8.484   5.338  13.438 -0.4287 -0.3845 -0.9907
   58DOPE  H17Y 7478   8.648   5.283  13.430 -0.6175 -0.8062 -1.1020
   58DOPE  C318 7479   8.511   5.129  13.374 -0.2132 -0.3479  0.9590
   58DOPE  H18X 7480   8.607   5.074  13.361  0.1366  0.7285 -1.4865
   58DOPE  H18Y 7481   8.423   5.074  13.415 -1.6834  0.6243 -0.7162
   58DOPE  H18Z 7482   8.485   5.173  13.276  0.1287 -1.2450  0.4531
   59DOPE     N 7483   7.298   0.803  12.976  0.0521 -0.7822 -0.0790
   59DOPE   HN1 7484   7.359   0.811  12.892  1.3018  2.9165  1.0211
   59DOPE   HN2 7485   7.203   0.845  12.970  0.2513 -0.4142 -0.6880
   59DOPE   HN3 7486   7.346   0.871  13.038 -1.2248  2.1810 -2.0847
   59DOPE   C12 7487   7.267   0.663  13.019  0.0070  0.4716  0.2019
   59DOPE  H12A 7488   7.198   0.624  12.941 -1.7446  1.0104  1.4066
   59DOPE  H12B 7489   7.206   0.673  13.112 -2.0160 -1.6091 -0.8106
   59DOPE   C11 7490   7.395   0.577  13.039 -0.2071 -0.7688 -0.1091
   59DOPE  H11A 7491   7.450   0.563  12.943 -0.7218 -0.8091 -0.4062
   59DOPE  H11B 7492   7.372   0.476  13.081 -0.1770 -0.1555  1.4252
   59DOPE     P 7493   7.620   0.623  13.176 -0.2530  0.1597 -0.0802
   59DOPE   O13 7494   7.666   0.722  13.276 -0.0886  0.4394  0.7740
   59DOPE   O14 7495   7.705   0.600  13.058 -0.7529  0.1813 -0.3170
   59DOPE   O11 7496   7.598   0.479  13.242 -0.0642  0.1866  0.7686
   59DOPE   O12 7497   7.469   0.656  13.135 -0.2553 -0.3417 -0.5887
   59DOPE    C1 7498   7.506   0.460  13.347 -0.6133 -0.1365  0.0918
   59DOPE    HA 7499   7.438   0.376  13.321 -0.7560  1.0361 -3.9670
   59DOPE    HB 7500   7.436   0.546  13.360 -0.7925 -0.2879  0.1319
   59DOPE    C2 7501   7.571   0.440  13.487  0.1381 -0.4997 -0.1394
   59DOPE    HS 7502   7.495   0.400  13.556 -0.2489  2.1825  1.1202
   59DOPE   O21 7503   7.611   0.563  13.533  0.0699  0.3585  0.3072
   59DOPE   C21 7504   7.582   0.591  13.661 -0.1303 -0.0503 -0.3299
   59DOPE   O22 7505   7.511   0.528  13.733 -0.1668  0.3006  0.9519
   59DOPE   C22 7506   7.645   0.718  13.707  0.2209  0.3260 -0.4213
   59DOPE   H2R 7507   7.575   0.795  13.668  2.1705  2.0986 -0.6182
   59DOPE   H2S 7508   7.747   0.723  13.662  0.4035 -2.6520 -0.5295
   59DOPE    C3 7509   7.693   0.345  13.482 -0.2250  0.0832  0.1739
   59DOPE    HX 7510   7.771   0.383  13.412 -0.4568 -1.2633 -0.8540
   59DOPE    HY 7511   7.668   0.249  13.433  1.4507  0.1520 -0.8849
   59DOPE   O31 7512   7.750   0.305  13.609  0.5233  0.3707 -1.0338
   59DOPE   C31 7513   7.861   0.376  13.647 -0.6086  0.8715 -0.3496
   59DOPE   O32 7514   7.915   0.459  13.576  0.8723 -0.1571  0.2469
   59DOPE   C32 7515   7.908   0.343  13.786  0.0905 -0.0877 -0.2159
   59DOPE   H2X 7516   7.911   0.233  13.802  1.8799 -0.1406 -0.7378
   59DOPE   H2Y 7517   8.014   0.376  13.795  0.4462 -1.4115  0.7939
   59DOPE   C23 7518   7.636   0.738  13.862 -0.6641  0.6058 -0.1368
   59DOPE   H3R 7519   7.689   0.653  13.910 -1.9090  0.4242  0.9677
   59DOPE   H3S 7520   7.529   0.741  13.891 -1.0453  0.5503 -1.4525
   59DOPE   C24 7521   7.709   0.866  13.916 -0.0142 -0.5961 -0.3852
   59DOPE   H4R 7522   7.682   0.902  14.018 -0.9129 -0.3222 -0.7052
   59DOPE   H4S 7523   7.668   0.946  13.851  0.2487  0.0809  0.2583
   59DOPE   C25 7524   7.862   0.877  13.899 -0.0703  0.2821 -0.1625
   59DOPE   H5R 7525   7.881   0.868  13.790  0.0282  0.6922 -0.1793
   59DOPE   H5S 7526   7.912   0.791  13.948 -1.0911 -0.7007 -0.7797
   59DOPE   C26 7527   7.914   1.014  13.950  0.6019  0.3907 -0.0899
   59DOPE   H6R 7528   8.025   1.004  13.952  0.7278  1.6400  2.1358
   59DOPE   H6S 7529   7.875   1.026  14.053  1.1937  0.8780  0.0844
   59DOPE   C27 7530   7.866   1.134  13.856 -1.0809 -0.5213 -0.0051
   59DOPE   H7R 7531   7.755   1.139  13.859 -1.1485  2.2691 -2.5861
   59DOPE   H7S 7532   7.898   1.107  13.753  0.3958 -0.5823  0.4428
   59DOPE   C28 7533   7.915   1.271  13.895 -0.0580 -0.1250 -0.3264
   59DOPE   H8R 7534   7.888   1.291  14.002 -1.1432  0.8727 -0.7570
   59DOPE   H8S 7535   7.871   1.350  13.830  0.6039  2.2024  1.8466
   59DOPE   C29 7536   8.058   1.288  13.869 -0.9078 -0.1483  0.5981
   59DOPE   H9R 7537   8.084   1.314  13.766 -2.2526  1.7004  0.6780
   59DOPE  C210 7538   8.161   1.279  13.954  0.3660 -1.0983 -0.2841
   59DOPE  H10R 7539   8.263   1.312  13.929 -0.2108  0.2792 -0.9894
   59DOPE  C211 7540   8.142   1.252  14.102 -0.6757 -0.0393 -0.8744
   59DOPE  H11R 7541   8.180   1.148  14.119 -3.8452 -1.1777 -0.1343
   59DOPE  H11S 7542   8.036   1.243  14.135  0.2400 -0.6841  2.2629
   59DOPE  C212 7543   8.193   1.370  14.188  0.2287 -0.4256  0.2233
   59DOPE  H12R 7544   8.161   1.355  14.294 -0.5933 -0.5856 -0.0460
   59DOPE  H12S 7545   8.144   1.461  14.147  0.4542  0.0537  0.9869
   59DOPE  C213 7546   8.348   1.378  14.210  0.3295 -0.1110  0.2263
   59DOPE  H13R 7547   8.365   1.448  14.295  0.2731  0.1092  0.0591
   59DOPE  H13S 7548   8.387   1.426  14.117  0.0835 -0.4919 -0.0771
   59DOPE  C214 7549   8.425   1.248  14.217 -0.2976 -0.2039 -0.1749
   59DOPE  H14R 7550   8.531   1.276  14.198 -1.3217  2.2238 -3.2406
   59DOPE  H14S 7551   8.402   1.182  14.131 -1.7652 -1.4300  1.1007
   59DOPE  C215 7552   8.407   1.173  14.351  0.0096 -0.4106  0.7329
   59DOPE  H15R 7553   8.301   1.170  14.385 -1.3505  2.6053 -2.6189
   59DOPE  H15S 7554   8.470   1.225  14.426 -1.2597 -1.0579  2.3201
   59DOPE  C216 7555   8.466   1.033  14.338  0.0209 -0.0294 -0.0257
   59DOPE  H16R 7556   8.574   1.037  14.311  0.8636 -1.6766  2.7805
   59DOPE  H16S 7557   8.411   0.982  14.256 -1.4171  0.7555  0.4096
   59DOPE  C217 7558   8.461   0.954  14.465 -0.4141  0.3701  0.5001
   59DOPE  H17R 7559   8.494   0.853  14.435 -1.8242 -0.4404  1.5283
   59DOPE  H17S 7560   8.356   0.949  14.500  0.2365  0.7870  2.6544
   59DOPE  C218 7561   8.564   0.995  14.572 -0.0378  1.0942 -0.4632
   59DOPE  H18R 7562   8.528   1.086  14.624 -0.7139  0.7851 -0.3827
   59DOPE  H18S 7563   8.664   1.011  14.526 -0.6369 -1.9769 -3.2570
   59DOPE  H18T 7564   8.575   0.921  14.655  1.9140  3.1701  1.2730
   59DOPE   C33 7565   7.815   0.390  13.899 -0.4291 -0.2043 -0.6229
   59DOPE   H3X 7566   7.710   0.398  13.864 -1.2836 -0.1236  1.7618
   59DOPE   H3Y 7567   7.840   0.493  13.932  0.9381 -0.6385 -0.2313
   59DOPE   C34 7568   7.799   0.285  14.013  1.0327 -0.7005  0.1619
   59DOPE   H4X 7569   7.738   0.197  13.983  1.8113 -1.8235  1.7153
   59DOPE   H4Y 7570   7.902   0.248  14.030  0.3425 -1.8851  2.1398
   59DOPE   C35 7571   7.755   0.356  14.153  0.3639 -0.2679  0.5184
   59DOPE   H5X 7572   7.645   0.366  14.161  0.0897 -3.2823  1.8656
   59DOPE   H5Y 7573   7.811   0.452  14.158  1.3894 -0.8556  0.5499
   59DOPE   C36 7574   7.800   0.278  14.274  0.2653 -0.1840  0.3459
   59DOPE   H6X 7575   7.910   0.269  14.261  0.3688  0.2250  0.8778
   59DOPE   H6Y 7576   7.744   0.183  14.263 -3.0104  1.7353 -1.2042
   59DOPE   C37 7577   7.757   0.341  14.409  0.1385  0.9099 -0.5593
   59DOPE   H7X 7578   7.806   0.440  14.424  1.0991  0.7802 -2.5925
   59DOPE   H7Y 7579   7.647   0.357  14.422 -0.0428  1.1164 -2.1327
   59DOPE   C38 7580   7.819   0.257  14.529 -0.1669  0.5198 -0.3009
   59DOPE   H8X 7581   7.805   0.311  14.624  1.7070 -0.9535  0.8727
   59DOPE   H8Y 7582   7.929   0.268  14.522 -0.1939  0.2944 -1.3534
   59DOPE   C39 7583   7.769   0.113  14.540  0.4730  0.5409  0.0071
   59DOPE   H9X 7584   7.787   0.045  14.456 -2.0829  0.1111 -0.2480
   59DOPE  C310 7585   7.700   0.064  14.645 -0.1681  0.3950 -0.1887
   59DOPE  H10X 7586   7.660  -0.038  14.632 -0.5335  0.7163 -1.7530
   59DOPE  C311 7587   7.671   0.145  14.773 -0.0321 -0.0005  0.3271
   59DOPE  H11X 7588   7.659   0.254  14.756 -0.1339  0.1453  1.2640
   59DOPE  H11Y 7589   7.568   0.116  14.805 -0.5001  1.8872  0.6353
   59DOPE  C312 7590   7.761   0.112  14.894 -0.2773  0.4043 -0.4480
   59DOPE  H12X 7591   7.864   0.149  14.878 -0.1436 -0.0506 -0.6425
   59DOPE  H12Y 7592   7.788   0.005  14.902 -0.8421  0.2927  0.0990
   59DOPE  C313 7593   7.710   0.148  15.037 -0.1668 -0.1133 -0.1358
   59DOPE  H13X 7594   7.657   0.245  15.044  1.0341  0.5635 -0.0975
   59DOPE  H13Y 7595   7.650   0.067  15.084 -0.1612 -0.3103 -0.4652
   59DOPE  C314 7596   7.830   0.163  15.135  0.1661 -0.0632 -0.1954
   59DOPE  H14X 7597   7.890   0.248  15.095 -1.3767  0.8473 -0.6218
   59DOPE  H14Y 7598   7.899   0.075  15.134  2.1944  1.4118  1.5155
   59DOPE  C315 7599   7.793   0.172  15.285 -0.3145  0.3186  0.3572
   59DOPE  H15X 7600   7.717   0.092  15.297  0.1928  0.1568  3.1142
   59DOPE  H15Y 7601   7.752   0.274  15.300 -0.7845  0.1645  0.1405
   59DOPE  C316 7602   7.919   0.149  15.373 -0.5330 -0.3484 -0.0144
   59DOPE  H16X 7603   7.998   0.226  15.359 -0.6379  0.0324  1.3327
   59DOPE  H16Y 7604   7.966   0.058  15.330  0.2181 -0.1906  0.4580
   59DOPE  C317 7605   7.892   0.161  15.519 -0.3863 -0.4092  0.3969
   59DOPE  H17X 7606   7.791   0.116  15.528  0.0787 -1.2678  1.5819
   59DOPE  H17Y 7607   7.968   0.100  15.573  0.5290 -1.2580 -1.7749
   59DOPE  C318 7608   7.888   0.302  15.586 -0.4683  0.5052  0.1465
   59DOPE  H18X 7609   7.934   0.299  15.687 -0.3403  1.2343  0.1168
   59DOPE  H18Y 7610   7.944   0.377  15.526 -0.2429  1.2064  1.1995
   59DOPE  H18Z 7611   7.785   0.340  15.601  0.0464  1.6890  0.8492
   60DOPE     N 7612   7.552   7.102  12.752  0.4983  0.2450  0.4073
   60DOPE   HN1 7613   7.465   7.065  12.795  0.6485  0.6979  1.1057
   60DOPE   HN2 7614   7.532   7.173  12.679 -0.6416  0.4893  0.9317
   60DOPE   HN3 7615   7.598   7.018  12.709 -1.1659 -0.8571  0.6732
   60DOPE   C12 7616   7.644   7.155  12.860 -0.2173 -0.3899  0.6408
   60DOPE  H12A 7617   7.629   7.264  12.844 -1.6961 -0.8225 -1.4200
   60DOPE  H12B 7618   7.749   7.133  12.832 -0.3102 -0.3132  0.2262
   60DOPE   C11 7619   7.612   7.098  12.998  0.9066  0.5412  0.5688
   60DOPE  H11A 7620   7.515   7.139  13.032 -0.2288  0.2304 -2.0589
   60DOPE  H11B 7621   7.688   7.133  13.072  0.9195  3.8380 -0.8227
   60DOPE     P 7622   7.721   6.860  13.006  0.6219  0.0782 -0.3882
   60DOPE   O13 7623   7.846   6.921  12.958 -0.0351 -0.3125 -0.0340
   60DOPE   O14 7624   7.683   6.726  12.947  0.3330 -0.6597 -0.2385
   60DOPE   O11 7625   7.736   6.839  13.163  0.2756 -0.6309 -0.4165
   60DOPE   O12 7626   7.602   6.958  12.999 -0.1306  0.2204 -0.1815
   60DOPE    C1 7627   7.635   6.857  13.255 -0.8947  0.5794 -0.3989
   60DOPE    HA 7628   7.587   6.958  13.254  1.1040  1.5817  0.0042
   60DOPE    HB 7629   7.668   6.850  13.361 -1.9395 -0.7838 -0.1375
   60DOPE    C2 7630   7.536   6.744  13.245  0.6296  1.2371  0.2938
   60DOPE    HS 7631   7.493   6.742  13.143 -1.2277 -1.5417  1.0235
   60DOPE   O21 7632   7.430   6.770  13.337  0.2047 -0.0110  0.9877
   60DOPE   C21 7633   7.343   6.857  13.300  0.2998  0.7363 -0.0913
   60DOPE   O22 7634   7.338   6.928  13.201  0.2366  0.3649  0.3649
   60DOPE   C22 7635   7.233   6.856  13.410  0.0471  0.0693  0.0796
   60DOPE   H2R 7636   7.143   6.799  13.378  1.6618 -2.2000 -0.6307
   60DOPE   H2S 7637   7.209   6.964  13.426  3.7339  1.0632 -0.1366
   60DOPE    C3 7638   7.576   6.588  13.276 -0.3043  0.5601  0.0898
   60DOPE    HX 7639   7.636   6.547  13.192 -0.9520  1.2917 -0.7534
   60DOPE    HY 7640   7.484   6.527  13.281 -1.5391  2.1685 -1.7356
   60DOPE   O31 7641   7.647   6.587  13.402 -0.4189  0.2579 -0.0365
   60DOPE   C31 7642   7.593   6.548  13.511  0.1005 -0.1439 -0.7949
   60DOPE   O32 7643   7.478   6.513  13.525 -0.3171  0.7181 -0.4838
   60DOPE   C32 7644   7.692   6.560  13.625  0.5211  0.0500  0.6576
   60DOPE   H2X 7645   7.793   6.529  13.591 -0.4046 -1.6710 -0.6667
   60DOPE   H2Y 7646   7.685   6.664  13.663 -0.6292 -0.7090  2.6945
   60DOPE   C23 7647   7.278   6.791  13.546 -0.3159 -0.1620  0.1358
   60DOPE   H3R 7648   7.387   6.796  13.570 -0.2996  1.9357 -0.1764
   60DOPE   H3S 7649   7.259   6.681  13.549 -0.2301 -0.1846 -0.1346
   60DOPE   C24 7650   7.199   6.858  13.661 -0.1156  1.0260  0.0936
   60DOPE   H4R 7651   7.093   6.827  13.647  0.2134 -0.5909  0.9549
   60DOPE   H4S 7652   7.201   6.969  13.651  1.0435  1.0026 -0.0748
   60DOPE   C25 7653   7.235   6.811  13.806 -0.1711 -0.2626  0.4033
   60DOPE   H5R 7654   7.164   6.851  13.881 -1.9880 -0.4872 -1.1336
   60DOPE   H5S 7655   7.335   6.858  13.819 -0.3982  0.8017 -1.2965
   60DOPE   C26 7656   7.256   6.662  13.823  0.0859 -0.9202  0.6884
   60DOPE   H6R 7657   7.343   6.633  13.761 -0.9561  1.7426 -2.2700
   60DOPE   H6S 7658   7.170   6.606  13.780 -0.3143 -1.3181  1.9731
   60DOPE   C27 7659   7.276   6.633  13.973 -0.1751  0.2105 -0.2117
   60DOPE   H7R 7660   7.254   6.525  13.985 -1.0223  0.0997 -2.2369
   60DOPE   H7S 7661   7.193   6.688  14.022 -0.6625 -2.0297  1.6423
   60DOPE   C28 7662   7.409   6.674  14.025 -0.4892 -0.4220  0.5294
   60DOPE   H8R 7663   7.409   6.784  14.035 -2.7083 -0.3228  0.0198
   60DOPE   H8S 7664   7.482   6.657  13.943  1.3091 -1.1414  2.2087
   60DOPE   C29 7665   7.447   6.600  14.148  0.4485 -0.2070 -0.7254
   60DOPE   H9R 7666   7.469   6.494  14.129 -2.3556 -0.8527 -0.9097
   60DOPE  C210 7667   7.427   6.640  14.279 -0.6152 -0.2186 -0.1725
   60DOPE  H10R 7668   7.462   6.574  14.359  1.2015 -1.1579 -1.6558
   60DOPE  C211 7669   7.363   6.771  14.332  0.1802 -0.0051 -0.1176
   60DOPE  H11R 7670   7.274   6.784  14.266  1.0952  2.8002 -0.9448
   60DOPE  H11S 7671   7.434   6.854  14.314  0.6157 -0.4673 -0.5675
   60DOPE  C212 7672   7.326   6.763  14.485  0.1670  0.0898 -0.0219
   60DOPE  H12R 7673   7.417   6.748  14.545 -1.9515 -0.3869  3.3148
   60DOPE  H12S 7674   7.255   6.679  14.501 -3.1826  3.1781  2.9363
   60DOPE  C213 7675   7.253   6.895  14.536 -0.3127  0.1717  0.2557
   60DOPE  H13R 7676   7.187   6.881  14.624 -0.7290  0.4406 -0.0113
   60DOPE  H13S 7677   7.199   6.947  14.454  1.1486  1.3651 -0.0051
   60DOPE  C214 7678   7.349   7.002  14.571  0.0228 -0.0320 -0.0561
   60DOPE  H14R 7679   7.288   7.094  14.570 -0.8038 -0.5576  0.6927
   60DOPE  H14S 7680   7.421   7.013  14.487  0.0903 -1.1804 -0.1695
   60DOPE  C215 7681   7.422   7.001  14.705 -0.3369 -0.0780 -0.0222
   60DOPE  H15R 7682   7.513   6.937  14.703  0.4584  0.9060  2.0411
   60DOPE  H15S 7683   7.355   6.968  14.788  0.6569  0.8572  1.1799
   60DOPE  C216 7684   7.476   7.142  14.757  0.0084  0.1486 -0.3980
   60DOPE  H16R 7685   7.527   7.142  14.856  1.0882  1.9519 -0.9061
   60DOPE  H16S 7686   7.389   7.211  14.756  1.5540  2.1923  0.2977
   60DOPE  C217 7687   7.583   7.208  14.662  0.4484  0.1729  0.6187
   60DOPE  H17R 7688   7.517   7.246  14.581  0.1069 -1.7493 -0.0640
   60DOPE  H17S 7689   7.645   7.134  14.607 -3.7203 -1.7609 -1.9887
   60DOPE  C218 7690   7.672   7.313  14.733  0.7018 -0.0382  0.1309
   60DOPE  H18R 7691   7.599   7.386  14.774 -0.6390 -1.1813 -0.1393
   60DOPE  H18S 7692   7.734   7.361  14.655  1.0717 -0.0800  0.3962
   60DOPE  H18T 7693   7.726   7.256  14.812  0.4981 -1.0652 -0.4485
   60DOPE   C33 7694   7.650   6.464  13.735  0.6385 -0.3977 -0.5143
   60DOPE   H3X 7695   7.679   6.363  13.701 -2.4604 -0.6371 -2.8699
   60DOPE   H3Y 7696   7.545   6.478  13.769  0.6442 -0.7771 -0.3438
   60DOPE   C34 7697   7.726   6.491  13.862 -0.3102  0.4212 -0.0317
   60DOPE   H4X 7698   7.828   6.514  13.825 -0.9792  2.3981 -0.7725
   60DOPE   H4Y 7699   7.692   6.588  13.904 -1.9440  0.7142 -1.9033
   60DOPE   C35 7700   7.734   6.376  13.961 -0.2117  0.3485 -0.9143
   60DOPE   H5X 7701   7.804   6.299  13.923 -0.4743 -0.4299  0.1327
   60DOPE   H5Y 7702   7.637   6.325  13.981 -0.1558 -1.3013 -4.1785
   60DOPE   C36 7703   7.791   6.438  14.090 -0.0541 -0.3400 -0.6556
   60DOPE   H6X 7704   7.718   6.519  14.110  0.7519  0.1227  0.5777
   60DOPE   H6Y 7705   7.891   6.486  14.081  0.3051 -1.3059 -2.2586
   60DOPE   C37 7706   7.794   6.348  14.215  0.5610  0.4536  0.5515
   60DOPE   H7X 7707   7.700   6.298  14.244  0.3465  1.3922  1.5227
   60DOPE   H7Y 7708   7.860   6.262  14.189 -1.0141 -1.2548  1.9933
   60DOPE   C38 7709   7.850   6.415  14.343 -0.1162  0.2856  0.7647
   60DOPE   H8X 7710   7.953   6.442  14.313 -0.7430  1.0836 -0.7851
   60DOPE   H8Y 7711   7.846   6.344  14.429  2.0570  0.1405  0.8064
   60DOPE   C39 7712   7.760   6.532  14.373 -0.1510 -0.8780  0.0628
   60DOPE   H9X 7713   7.717   6.596  14.294 -2.0339 -1.1975  0.7742
   60DOPE  C310 7714   7.736   6.579  14.497  1.0201 -0.6089 -0.1194
   60DOPE  H10X 7715   7.678   6.670  14.518  1.8636 -0.0837 -0.0261
   60DOPE  C311 7716   7.792   6.524  14.631  0.0852  0.5661 -0.4818
   60DOPE  H11X 7717   7.703   6.489  14.687  0.2671  0.7391 -0.0848
   60DOPE  H11Y 7718   7.851   6.431  14.618  0.2800  0.5306  0.6124
   60DOPE  C312 7719   7.878   6.639  14.696  0.1831  0.7173  0.4187
   60DOPE  H12X 7720   7.810   6.725  14.714 -2.1261 -1.0594  0.7980
   60DOPE  H12Y 7721   7.965   6.680  14.641  1.9737 -0.5857  2.1377
   60DOPE  C313 7722   7.937   6.586  14.829 -0.2745 -1.0395  0.3337
   60DOPE  H13X 7723   7.978   6.672  14.885  0.5633 -0.5769 -0.9639
   60DOPE  H13Y 7724   7.861   6.538  14.894 -0.4469 -0.7850  0.3210
   60DOPE  C314 7725   8.036   6.478  14.797 -0.1934 -0.3575 -0.0616
   60DOPE  H14X 7726   8.092   6.504  14.704 -0.0993 -2.5895 -0.6815
   60DOPE  H14Y 7727   7.979   6.385  14.776 -0.9427 -0.0157  0.4312
   60DOPE  C315 7728   8.142   6.448  14.911 -0.0136 -0.7861 -0.4553
   60DOPE  H15X 7729   8.168   6.550  14.947  0.7020 -1.0583 -0.1742
   60DOPE  H15Y 7730   8.229   6.392  14.870  1.4717 -0.1547  1.6451
   60DOPE  C316 7731   8.083   6.375  15.036 -0.4303 -0.4619  0.2835
   60DOPE  H16X 7732   8.040   6.275  15.014 -0.1113 -0.5460  0.0291
   60DOPE  H16Y 7733   8.005   6.449  15.063 -2.0579 -2.6206  1.7830
   60DOPE  C317 7734   8.179   6.350  15.153  0.0105 -0.4422  0.1201
   60DOPE  H17X 7735   8.223   6.450  15.176 -0.2354 -0.3868  0.3394
   60DOPE  H17Y 7736   8.119   6.329  15.243  1.0364 -0.2640  0.8618
   60DOPE  C318 7737   8.294   6.245  15.122  0.8066  0.1741  0.1003
   60DOPE  H18X 7738   8.364   6.230  15.206  0.9359  3.2797  0.6806
   60DOPE  H18Y 7739   8.241   6.150  15.100 -1.2708  1.1667  0.5145
   60DOPE  H18Z 7740   8.356   6.282  15.038 -0.5419 -0.4668 -1.2413
   6123SM     N 7741   3.430   4.433  17.879 -0.2850 -0.5006  0.3225
   6123SM   C15 7742   3.286   4.475  17.871 -0.0099 -0.4209 -0.3140
   6123SM  H15A 7743   3.243   4.414  17.792 -0.4317 -0.9188  0.2925
   6123SM  H15B 7744   3.272   4.579  17.847  0.1603 -0.5577 -1.0261
   6123SM  H15C 7745   3.237   4.455  17.965  1.4126  2.1114  1.0781
   6123SM   C14 7746   3.493   4.512  17.985 -0.6488 -0.0343  0.3407
   6123SM  H14A 7747   3.488   4.613  17.948  2.8039 -0.5551 -2.0648
   6123SM  H14B 7748   3.598   4.494  18.000 -0.1390  2.6339  0.4298
   6123SM  H14C 7749   3.440   4.495  18.078 -3.2771  1.4492 -0.7726
   6123SM   C13 7750   3.447   4.292  17.912 -0.8818 -0.1818 -0.1753
   6123SM  H13A 7751   3.424   4.263  18.013  0.8559 -0.9911  0.0144
   6123SM  H13B 7752   3.553   4.273  17.905 -0.9992 -1.2554  0.7607
   6123SM  H13C 7753   3.403   4.227  17.838  0.3513 -0.0422 -1.0622
   6123SM   C12 7754   3.487   4.479  17.746 -0.3611 -0.0767 -0.2617
   6123SM  H12A 7755   3.593   4.457  17.746 -0.0756  1.0474  1.8020
   6123SM  H12B 7756   3.492   4.587  17.743 -1.4995  0.1249  2.4655
   6123SM   C11 7757   3.425   4.429  17.611  0.3736 -0.0726 -0.4985
   6123SM  H11A 7758   3.496   4.468  17.534  2.3457 -1.2835  0.6197
   6123SM  H11B 7759   3.324   4.471  17.592  0.4162  0.9017  1.2111
   6123SM     P 7760   3.548   4.200  17.571  0.0980 -0.4026  0.0384
   6123SM   O13 7761   3.671   4.279  17.602  0.2555 -0.0667  0.4431
   6123SM   O14 7762   3.538   4.078  17.649 -0.2798  0.3352 -0.2209
   6123SM   O11 7763   3.536   4.155  17.412 -0.5154  0.3658  0.2961
   6123SM   O12 7764   3.411   4.286  17.596 -0.8556 -0.0363  0.0059
   6123SM   C1S 7765   3.495   4.238  17.315  0.0427 -0.3454  0.4442
   6123SM   H1S 7766   3.560   4.328  17.322  0.0878 -0.3136 -0.3618
   6123SM   H1T 7767   3.393   4.278  17.337 -1.0275 -2.1085 -1.0091
   6123SM    NF 7768   3.392   4.244  17.088  0.1308 -0.6738 -0.2652
   6123SM   HNF 7769   3.293   4.241  17.098 -0.0697  2.3137 -0.3778
   6123SM   C2S 7770   3.472   4.165  17.177 -0.6855  0.0642 -0.2213
   6123SM   H2S 7771   3.575   4.148  17.139 -0.2807 -0.1456  0.9109
   6123SM   C3S 7772   3.412   4.023  17.194  0.3124 -0.3601 -0.6788
   6123SM   H3S 7773   3.304   4.031  17.218  0.1271 -0.6667 -1.3779
   6123SM    O3 7774   3.466   3.940  17.293  0.1304 -0.0648 -0.4996
   6123SM   HO3 7775   3.518   4.005  17.340  0.6014 -0.0922 -0.9799
   6123SM   C4S 7776   3.428   3.960  17.061  0.1705 -0.1034 -0.5286
   6123SM   H4S 7777   3.331   3.955  17.008 -0.4087 -0.2925  0.5063
   6123SM   C5S 7778   3.538   3.900  17.007  1.2141 -0.3524  0.2169
   6123SM   H5S 7779   3.639   3.914  17.048  0.0067  2.2769  2.6178
   6123SM   C6S 7780   3.544   3.841  16.863 -1.1232 -1.5450  0.1445
   6123SM   H6S 7781   3.576   3.736  16.875 -0.7979 -1.2650  2.2329
   6123SM   H6T 7782   3.621   3.894  16.804 -0.9727 -3.2005 -1.1903
   6123SM   C7S 7783   3.416   3.845  16.770  0.0144 -0.1669  0.2422
   6123SM   H7S 7784   3.398   3.954  16.758  0.5678 -0.0804  0.2039
   6123SM   H7T 7785   3.336   3.797  16.830 -0.0250 -1.9183 -1.1385
   6123SM   C8S 7786   3.434   3.774  16.642 -0.4813  0.5744  0.5832
   6123SM   H8S 7787   3.442   3.665  16.660 -0.6596  0.7454  1.7750
   6123SM   H8T 7788   3.518   3.808  16.577 -0.8101  1.2307  0.4882
   6123SM   C9S 7789   3.305   3.796  16.552  0.4037  0.1621  0.3646
   6123SM   H9S 7790   3.276   3.902  16.561 -0.2071  0.1172 -0.8767
   6123SM   H9T 7791   3.221   3.735  16.591  0.8768 -1.1421 -0.5652
   6123SM  C10S 7792   3.332   3.753  16.412 -0.0642  0.2516 -0.1292
   6123SM  H10S 7793   3.417   3.813  16.374  0.1901 -0.5296 -0.8301
   6123SM  H10T 7794   3.248   3.766  16.341 -1.2598 -0.0134  1.1967
   6123SM  C11S 7795   3.377   3.604  16.410 -0.1390 -0.4062 -0.5239
   6123SM  H11S 7796   3.314   3.551  16.484  1.9354  0.0545  1.7323
   6123SM  H11T 7797   3.483   3.609  16.444 -0.0711  0.4730 -0.8388
   6123SM  C12S 7798   3.386   3.526  16.274 -0.4583 -0.3206 -0.3919
   6123SM  H12S 7799   3.282   3.501  16.241 -0.0545 -2.1625 -0.3869
   6123SM  H12T 7800   3.424   3.424  16.297  0.5701 -0.9787 -4.2383
   6123SM  C13S 7801   3.474   3.598  16.176 -0.5811  0.3338 -0.5371
   6123SM  H13S 7802   3.580   3.593  16.209 -0.4483 -0.8029 -1.0884
   6123SM  H13T 7803   3.446   3.705  16.169 -1.4734  0.2820  1.5110
   6123SM  C14S 7804   3.470   3.527  16.048 -0.9679  0.4751  0.3878
   6123SM  H14S 7805   3.379   3.538  15.985  0.5353  3.9761 -1.4450
   6123SM  H14T 7806   3.502   3.424  16.072  1.9537  1.3779  0.7679
   6123SM  C15S 7807   3.586   3.569  15.955  0.5352 -0.2286  0.0743
   6123SM  H15S 7808   3.684   3.529  15.986  0.5584  0.6922  1.2491
   6123SM  H15T 7809   3.582   3.679  15.968 -2.3130 -0.4335  1.7645
   6123SM  C16S 7810   3.574   3.524  15.811 -0.5769 -0.2506  0.1126
   6123SM  H16S 7811   3.496   3.589  15.765 -2.8893 -1.7851  1.6343
   6123SM  H16T 7812   3.529   3.423  15.805 -3.0510  0.8533 -1.2326
   6123SM  C17S 7813   3.701   3.520  15.734  0.3147  0.8999 -0.5379
   6123SM  H17S 7814   3.695   3.437  15.660  2.0397 -0.4408  0.7552
   6123SM  H17T 7815   3.782   3.470  15.792  0.6327  0.4604 -1.3416
   6123SM  C18S 7816   3.757   3.649  15.675  0.1389 -0.1278 -0.4042
   6123SM  H18S 7817   3.834   3.626  15.598 -1.1920  2.0100 -2.5116
   6123SM  H18T 7818   3.801   3.710  15.757 -0.9969 -1.8558  1.6056
   6123SM  H18U 7819   3.677   3.702  15.618  0.5468 -1.6882 -2.5755
   6123SM   C1F 7820   3.446   4.351  17.016  0.0193  0.1820 -0.0061
   6123SM    OF 7821   3.568   4.359  17.000 -0.9731 -0.4257 -0.1575
   6123SM   C2F 7822   3.353   4.451  16.958  0.5308 -0.2824  0.4169
   6123SM   H2F 7823   3.388   4.556  16.968  3.0067 -0.8904 -1.0054
   6123SM   H2G 7824   3.249   4.440  16.994 -0.8373  0.9102 -2.8129
   6123SM   C3F 7825   3.355   4.448  16.800 -0.2954  0.0273 -0.3314
   6123SM   H3F 7826   3.451   4.484  16.755 -0.5749 -0.5154 -1.3833
   6123SM   H3G 7827   3.275   4.518  16.769 -0.7349 -0.0964  0.4867
   6123SM   C4F 7828   3.323   4.312  16.740  0.0148  0.5140  0.4039
   6123SM   H4F 7829   3.242   4.254  16.790 -1.1179  1.8272  0.1510
   6123SM   H4G 7830   3.413   4.247  16.752 -1.5434 -1.4535  2.3004
   6123SM   C5F 7831   3.279   4.333  16.597  0.0723  0.4175 -0.0443
   6123SM   H5F 7832   3.370   4.362  16.540  1.1422 -1.9825  0.3034
   6123SM   H5G 7833   3.198   4.409  16.592 -2.4813 -2.0410  1.2600
   6123SM   C6F 7834   3.239   4.206  16.522 -0.3171 -0.4222 -0.3075
   6123SM   H6F 7835   3.181   4.134  16.583 -1.0810  0.8510  0.5139
   6123SM   H6G 7836   3.333   4.151  16.501  0.4157  1.5786 -2.7957
   6123SM   C7F 7837   3.166   4.229  16.390 -0.6369  0.4825 -0.3804
   6123SM   H7F 7838   3.231   4.308  16.347 -1.4323 -0.0867 -2.7444
   6123SM   H7G 7839   3.067   4.277  16.402 -1.3186 -0.9933  0.1046
   6123SM   C8F 7840   3.175   4.113  16.284 -0.2573  0.6646 -0.5248
   6123SM   H8F 7841   3.124   4.020  16.317  0.0321  0.8185  0.3920
   6123SM   H8G 7842   3.281   4.086  16.261 -0.4813  0.1626 -0.9885
   6123SM   C9F 7843   3.128   4.159  16.147  0.6260  0.6249 -0.5688
   6123SM   H9F 7844   3.209   4.229  16.116  1.3243 -0.0289 -0.2341
   6123SM   H9G 7845   3.034   4.218  16.151  0.5792  0.4970  0.7093
   6123SM  C10F 7846   3.107   4.043  16.051 -0.3427 -0.2969  0.3659
   6123SM  H10F 7847   3.025   3.973  16.076  1.2340 -2.1496  0.6076
   6123SM  H10G 7848   3.195   3.975  16.055  1.0085  1.2072 -1.4687
   6123SM  C11F 7849   3.097   4.095  15.902  0.1283  0.2691 -0.4265
   6123SM  H11F 7850   3.163   4.183  15.889  0.0133  0.3091 -0.7571
   6123SM  H11G 7851   2.993   4.130  15.883  0.6176  2.4904  0.7067
   6123SM  C12F 7852   3.172   3.997  15.813  0.3421  0.2586 -0.8660
   6123SM  H12F 7853   3.279   4.004  15.844  0.2412 -0.2632 -0.3871
   6123SM  H12G 7854   3.156   4.046  15.715 -0.4697  2.1077  0.1394
   6123SM  C13F 7855   3.115   3.860  15.815 -0.6203  0.2126  1.0085
   6123SM  H13F 7856   3.024   3.866  15.752  0.2460  0.3032 -0.2690
   6123SM  H13G 7857   3.081   3.826  15.915 -1.8225 -0.4496  0.3961
   6123SM  C14F 7858   3.212   3.757  15.750 -0.1389 -0.4111 -0.6482
   6123SM  H14F 7859   3.182   3.653  15.772  2.6062 -1.8974 -3.2214
   6123SM  H14G 7860   3.309   3.790  15.794 -0.9745  1.9501 -0.4007
   6123SM  C15F 7861   3.230   3.784  15.597 -0.3745  0.6185 -0.1479
   6123SM  H15F 7862   3.274   3.885  15.586  1.7465 -0.2785 -0.5529
   6123SM  H15G 7863   3.132   3.767  15.547 -0.2420 -1.6027  0.2471
   6123SM  C16F 7864   3.329   3.681  15.525  0.5275  0.3574  0.1456
   6123SM  H16F 7865   3.283   3.580  15.537  1.1730  0.0706  0.2331
   6123SM  H16G 7866   3.421   3.677  15.586 -0.7654 -0.5209  2.1510
   6123SM  C17F 7867   3.353   3.708  15.379  0.9289 -0.3396  0.3815
   6123SM  H17F 7868   3.408   3.804  15.370  2.6369 -1.3610 -0.5235
   6123SM  H17G 7869   3.253   3.714  15.331  0.6901 -0.7827  0.8188
   6123SM  C18F 7870   3.437   3.615  15.290 -0.1927 -0.4843  0.1286
   6123SM  H18F 7871   3.542   3.622  15.325 -0.0455 -2.1309  0.1069
   6123SM  H18G 7872   3.430   3.642  15.182  0.0593  1.4943  0.5674
   6123SM  C19F 7873   3.390   3.466  15.306  0.5815 -0.1327 -0.1682
   6123SM  H19F 7874   3.286   3.454  15.268  0.2679 -0.6255  0.8248
   6123SM  H19G 7875   3.391   3.439  15.414 -0.6137 -4.0384 -1.0017
   6123SM  C20F 7876   3.485   3.371  15.233 -0.5726  0.7651 -0.4274
   6123SM  H20F 7877   3.454   3.272  15.271 -0.4170  0.4486 -1.1078
   6123SM  H20G 7878   3.590   3.380  15.266 -1.2661  1.3176  1.8010
   6123SM  C21F 7879   3.488   3.381  15.080  0.1961 -0.7218  0.3433
   6123SM  H21F 7880   3.551   3.297  15.043 -0.9838 -0.6327 -2.1170
   6123SM  H21G 7881   3.535   3.475  15.045 -1.9437  0.1471 -0.3800
   6123SM  C22F 7882   3.357   3.355  15.007  0.0918 -0.2298  0.1605
   6123SM  H22F 7883   3.284   3.433  15.038  1.2034 -0.4045  3.7071
   6123SM  H22G 7884   3.332   3.256  15.052 -0.9352 -0.7579 -1.5078
   6123SM  C23F 7885   3.383   3.332  14.855 -0.4337 -0.1853 -0.6598
   6123SM  H23F 7886   3.418   3.430  14.818  0.3599  0.8443  2.4626
   6123SM  H23G 7887   3.286   3.306  14.809 -1.2680  0.7621  0.4797
   6123SM  H23H 7888   3.461   3.254  14.841 -0.6290 -0.6701  0.7357
   6223SM     N 7889   3.067   2.946  17.391 -0.0304  0.3886 -0.2499
   6223SM   C15 7890   3.134   2.816  17.421 -0.1232  0.2132 -0.0594
   6223SM  H15A 7891   3.177   2.770  17.333  0.4207  0.6255 -0.0142
   6223SM  H15B 7892   3.081   2.741  17.479  0.9031 -0.7878 -0.3668
   6223SM  H15C 7893   3.227   2.838  17.470  1.6119 -2.6354 -1.7395
   6223SM   C14 7894   3.156   3.019  17.290 -0.4048  0.0423 -0.3869
   6223SM  H14A 7895   3.161   2.950  17.206 -2.0868 -0.2143 -0.3010
   6223SM  H14B 7896   3.256   3.029  17.329 -0.6062 -0.5321  0.2886
   6223SM  H14C 7897   3.115   3.116  17.268 -0.1605  0.4172  0.7692
   6223SM   C13 7898   2.934   2.927  17.323  0.0142  0.2484 -0.3472
   6223SM  H13A 7899   2.876   2.854  17.379  0.5885 -0.9378 -1.2441
   6223SM  H13B 7900   2.950   2.878  17.228  1.8524 -0.2233  0.1717
   6223SM  H13C 7901   2.875   3.017  17.320 -0.7792 -0.2005  0.9009
   6223SM   C12 7902   3.049   3.016  17.528 -0.2822  0.7161 -0.0653
   6223SM  H12A 7903   3.147   3.050  17.557  0.2748  0.4106 -1.5445
   6223SM  H12B 7904   3.015   2.942  17.600  0.3458  0.6804  0.1958
   6223SM   C11 7905   2.946   3.127  17.543 -0.5133  0.2057  0.1977
   6223SM  H11A 7906   2.945   3.167  17.646  0.7137  2.1147 -0.4745
   6223SM  H11B 7907   2.849   3.075  17.528  0.2584 -1.2163 -0.0757
   6223SM     P 7908   2.851   3.336  17.426 -0.0452  0.3964 -0.0760
   6223SM   O13 7909   2.723   3.303  17.487  0.0606 -0.7429  0.1245
   6223SM   O14 7910   2.916   3.468  17.446 -0.7944 -0.1602 -0.3666
   6223SM   O11 7911   2.826   3.315  17.270 -0.4305  0.5199  0.2472
   6223SM   O12 7912   2.961   3.225  17.446  0.7514 -0.7064 -0.4995
   6223SM   C1S 7913   2.916   3.374  17.173  0.0726 -0.5137 -0.2218
   6223SM   H1S 7914   3.022   3.384  17.207  0.1820 -0.1019 -0.6769
   6223SM   H1T 7915   2.879   3.472  17.135 -0.4964  0.1004  1.7846
   6223SM    NF 7916   3.010   3.348  16.936  0.4409 -0.3134  0.5879
   6223SM   HNF 7917   2.979   3.423  16.878 -0.2275 -1.6596 -0.8646
   6223SM   C2S 7918   2.918   3.290  17.038 -0.4004  0.8977  0.8431
   6223SM   H2S 7919   2.949   3.191  17.076  0.1961  0.4888 -0.6175
   6223SM   C3S 7920   2.773   3.280  16.979  0.8530 -0.1739  0.0300
   6223SM   H3S 7921   2.746   3.384  16.951  1.1770  0.1842  1.0165
   6223SM    O3 7922   2.674   3.233  17.079  0.2138 -0.8900 -0.0077
   6223SM   HO3 7923   2.732   3.253  17.152  0.2908 -2.6561  0.4711
   6223SM   C4S 7924   2.759   3.195  16.853  0.2867  0.0410  0.4389
   6223SM   H4S 7925   2.784   3.089  16.873  0.0668 -0.0579  0.1915
   6223SM   C5S 7926   2.737   3.238  16.729 -0.2544 -0.5463  0.2002
   6223SM   H5S 7927   2.727   3.347  16.713  0.7408 -0.3279  0.9491
   6223SM   C6S 7928   2.730   3.140  16.619 -0.2573 -0.6159  0.1325
   6223SM   H6S 7929   2.623   3.119  16.599 -0.4818 -1.1396  1.7457
   6223SM   H6T 7930   2.781   3.042  16.637  1.7835  0.1604 -1.0581
   6223SM   C7S 7931   2.799   3.204  16.494  0.7941  0.2483  0.8680
   6223SM   H7S 7932   2.904   3.232  16.518  1.3085 -0.9742  0.1383
   6223SM   H7T 7933   2.743   3.297  16.469 -0.1279 -0.5730 -0.2284
   6223SM   C8S 7934   2.795   3.109  16.381  0.1627  0.2762  0.3567
   6223SM   H8S 7935   2.687   3.087  16.371  0.0468  0.7377  0.5766
   6223SM   H8T 7936   2.851   3.022  16.421 -2.2596 -0.7343  1.7481
   6223SM   C9S 7937   2.848   3.178  16.251  0.2417  0.0530 -0.1757
   6223SM   H9S 7938   2.941   3.235  16.274  0.0672  0.9445 -1.5356
   6223SM   H9T 7939   2.774   3.256  16.223  0.3109 -0.1032 -0.8218
   6223SM  C10S 7940   2.873   3.080  16.137 -0.4464 -0.6634 -0.6028
   6223SM  H10S 7941   2.779   3.031  16.104 -0.8000 -0.7193  0.4509
   6223SM  H10T 7942   2.935   2.996  16.177 -0.7870 -0.4739  0.3557
   6223SM  C11S 7943   2.948   3.146  16.020 -0.2172 -0.0304 -0.1831
   6223SM  H11S 7944   3.042   3.197  16.051  0.1087 -1.5518  1.4914
   6223SM  H11T 7945   2.893   3.239  15.995 -0.0779  0.8746  2.5101
   6223SM  C12S 7946   2.967   3.058  15.891  0.3013  0.7168 -0.4132
   6223SM  H12S 7947   2.879   3.053  15.823  0.1771 -0.8311 -0.1630
   6223SM  H12T 7948   2.991   2.951  15.907 -0.8226  0.3594 -1.0310
   6223SM  C13S 7949   3.085   3.112  15.806 -0.3423 -0.3287  0.4333
   6223SM  H13S 7950   3.099   3.044  15.720 -0.5859  1.6282 -1.2338
   6223SM  H13T 7951   3.181   3.124  15.861 -0.0074 -2.9377  0.5235
   6223SM  C14S 7952   3.056   3.259  15.743  0.0914 -0.8343  0.2836
   6223SM  H14S 7953   3.073   3.337  15.821  0.2450  1.3892 -1.8389
   6223SM  H14T 7954   2.950   3.257  15.709  0.3275 -1.2400 -0.4414
   6223SM  C15S 7955   3.158   3.304  15.636 -0.2891 -0.0245 -0.0855
   6223SM  H15S 7956   3.249   3.241  15.630  1.1561  2.0911 -3.0694
   6223SM  H15T 7957   3.186   3.409  15.658 -0.6645  0.1431 -0.3874
   6223SM  C16S 7958   3.094   3.308  15.494 -0.0950  0.5490 -0.3746
   6223SM  H16S 7959   3.043   3.211  15.473 -0.0613  0.8586 -2.0170
   6223SM  H16T 7960   3.179   3.300  15.423  0.4019  1.1145  0.1516
   6223SM  C17S 7961   3.004   3.429  15.476 -0.0536 -0.2219  0.1335
   6223SM  H17S 7962   3.057   3.526  15.479 -1.0662  0.3864 -0.7782
   6223SM  H17T 7963   2.925   3.426  15.554 -0.4409  1.2145 -0.1770
   6223SM  C18S 7964   2.929   3.440  15.340  0.4934 -0.3135 -0.3144
   6223SM  H18S 7965   2.847   3.367  15.322  0.3367 -0.2772  0.2463
   6223SM  H18T 7966   2.986   3.431  15.245  0.5009  0.1339 -0.3519
   6223SM  H18U 7967   2.888   3.543  15.330 -0.0664 -0.4995  0.0349
   6223SM   C1F 7968   3.139   3.312  16.940  0.8618  0.5504 -0.0914
   6223SM    OF 7969   3.170   3.207  17.010  0.1635 -0.3508  0.9379
   6223SM   C2F 7970   3.247   3.390  16.871 -0.6955 -0.5668 -0.8728
   6223SM   H2F 7971   3.329   3.405  16.943  0.6066 -0.4937 -2.3138
   6223SM   H2G 7972   3.211   3.489  16.835 -0.7834  0.3308  1.5193
   6223SM   C3F 7973   3.309   3.302  16.759 -0.2072 -0.0274 -0.4444
   6223SM   H3F 7974   3.353   3.210  16.803  1.5131  0.6729 -0.5959
   6223SM   H3G 7975   3.390   3.367  16.719 -0.5587  1.2609  0.8234
   6223SM   C4F 7976   3.213   3.271  16.641 -0.7112  0.0789 -0.2030
   6223SM   H4F 7977   3.184   3.366  16.591 -1.0321  0.4836  0.7225
   6223SM   H4G 7978   3.119   3.227  16.681 -1.0486  0.0135 -1.0407
   6223SM   C5F 7979   3.282   3.190  16.531  0.5561 -0.2755 -0.4530
   6223SM   H5F 7980   3.302   3.094  16.583 -0.3540  0.7680  1.9849
   6223SM   H5G 7981   3.378   3.238  16.502  0.8951 -0.5112  0.2344
   6223SM   C6F 7982   3.198   3.181  16.405  0.3291 -0.4788 -0.5972
   6223SM   H6F 7983   3.190   3.281  16.357 -2.5077  1.0612  2.6490
   6223SM   H6G 7984   3.093   3.150  16.427  0.4044  0.4413  1.2764
   6223SM   C7F 7985   3.238   3.066  16.311 -0.2960 -0.6060 -0.2354
   6223SM   H7F 7986   3.151   3.017  16.262 -0.9394  0.1016  0.1706
   6223SM   H7G 7987   3.279   2.984  16.374  1.3626 -0.2732 -0.8357
   6223SM   C8F 7988   3.346   3.096  16.209  0.0630  0.3156  0.1658
   6223SM   H8F 7989   3.431   3.138  16.267  0.4609  1.5627 -1.2400
   6223SM   H8G 7990   3.317   3.184  16.147 -0.2307  0.6212  0.7344
   6223SM   C9F 7991   3.386   2.971  16.124  0.0268 -0.1787  0.0385
   6223SM   H9F 7992   3.309   2.945  16.048 -0.1668 -2.9025  1.0328
   6223SM   H9G 7993   3.392   2.880  16.188  3.7111 -0.4375 -0.4765
   6223SM  C10F 7994   3.514   3.002  16.045 -0.0434 -0.0229  0.3740
   6223SM  H10F 7995   3.595   3.030  16.116  1.6043 -0.4903 -1.2561
   6223SM  H10G 7996   3.493   3.088  15.978  1.1726 -1.4503 -1.9702
   6223SM  C11F 7997   3.553   2.873  15.967  0.9759  0.5400 -0.0245
   6223SM  H11F 7998   3.552   2.786  16.036 -0.2202  0.2333 -0.4105
   6223SM  H11G 7999   3.660   2.879  15.936  0.6279 -1.3496 -1.8647
   6223SM  C12F 8000   3.455   2.850  15.849 -0.3820  0.1178  0.3209
   6223SM  H12F 8001   3.425   2.936  15.785 -1.7020 -0.9975 -0.6035
   6223SM  H12G 8002   3.362   2.803  15.887 -0.0214 -0.2742  0.7355
   6223SM  C13F 8003   3.526   2.747  15.759  0.6173 -0.5392 -0.6245
   6223SM  H13F 8004   3.560   2.653  15.809  0.7348 -0.3231 -0.2980
   6223SM  H13G 8005   3.618   2.783  15.708  1.2863 -0.9172  0.2831
   6223SM  C14F 8006   3.431   2.727  15.637 -0.4507 -0.0384 -0.1032
   6223SM  H14F 8007   3.483   2.663  15.563 -0.7273  1.3304 -1.5477
   6223SM  H14G 8008   3.415   2.824  15.585  1.9472 -0.8794 -2.6805
   6223SM  C15F 8009   3.289   2.666  15.672  0.1153  0.2181 -1.3340
   6223SM  H15F 8010   3.226   2.741  15.725  0.8385 -1.0307  1.4843
   6223SM  H15G 8011   3.311   2.583  15.742 -0.0399  1.1357 -0.1539
   6223SM  C16F 8012   3.225   2.603  15.541  0.9835 -0.4287 -0.1366
   6223SM  H16F 8013   3.308   2.547  15.492  0.2511 -1.7798  0.1113
   6223SM  H16G 8014   3.197   2.668  15.456 -0.2958 -0.6526  0.0949
   6223SM  C17F 8015   3.114   2.507  15.589 -0.0921 -0.0298  0.2320
   6223SM  H17F 8016   3.034   2.564  15.640  1.3566 -0.5832  3.3317
   6223SM  H17G 8017   3.148   2.422  15.652 -0.9742 -0.7978 -0.3052
   6223SM  C18F 8018   3.040   2.430  15.475 -0.1403 -0.0524  0.2744
   6223SM  H18F 8019   2.979   2.350  15.522  2.1412 -1.2881  1.2881
   6223SM  H18G 8020   3.128   2.387  15.422  0.5891  2.0014 -0.2696
   6223SM  C19F 8021   2.973   2.514  15.365 -0.2514 -0.5650 -0.6633
   6223SM  H19F 8022   3.035   2.598  15.329  1.7334 -1.5516  0.2886
   6223SM  H19G 8023   2.879   2.560  15.403 -0.4466 -1.2505 -0.2981
   6223SM  C20F 8024   2.930   2.436  15.240  0.0148  0.2724 -0.1461
   6223SM  H20F 8025   2.904   2.336  15.281  0.0813 -0.1444 -1.1184
   6223SM  H20G 8026   3.017   2.416  15.175 -0.7706 -0.2442 -1.0675
   6223SM  C21F 8027   2.806   2.483  15.164 -0.3898 -0.5403 -0.3199
   6223SM  H21F 8028   2.721   2.507  15.231 -0.4411 -1.3413 -0.0952
   6223SM  H21G 8029   2.758   2.415  15.090 -2.6276  2.7849 -2.2280
   6223SM  C22F 8030   2.837   2.619  15.097 -0.1940  0.2061  0.1379
   6223SM  H22F 8031   2.920   2.601  15.025 -0.6068  1.0587 -0.5759
   6223SM  H22G 8032   2.876   2.683  15.179  1.9634 -0.7409 -0.0812
   6223SM  C23F 8033   2.714   2.667  15.020 -0.1636  0.3955 -0.8832
   6223SM  H23F 8034   2.720   2.776  14.999  0.5763  0.3561 -0.9276
   6223SM  H23G 8035   2.624   2.662  15.084 -0.6104 -1.0580 -1.5975
   6223SM  H23H 8036   2.692   2.611  14.927 -1.1265 -1.1015  0.2201
   6323SM     N 8037   4.360   4.543  17.717  0.2472 -0.0493  0.5452
   6323SM   C15 8038   4.434   4.599  17.836  0.0027 -0.0198 -0.7702
   6323SM  H15A 8039   4.379   4.684  17.876 -0.7478 -0.7784 -0.1431
   6323SM  H15B 8040   4.537   4.620  17.811  0.2505  1.1205  0.9982
   6323SM  H15C 8041   4.419   4.531  17.919 -3.1052  1.3594 -0.0501
   6323SM   C14 8042   4.215   4.555  17.741  0.6079  0.3741 -0.9365
   6323SM  H14A 8043   4.144   4.525  17.666 -1.2635 -0.4913  1.0937
   6323SM  H14B 8044   4.187   4.654  17.773 -1.4446 -0.2388 -0.7015
   6323SM  H14C 8045   4.192   4.495  17.828  0.6959 -0.7274 -1.6425
   6323SM   C13 8046   4.405   4.624  17.588  0.3622 -0.1460  0.4412
   6323SM  H13A 8047   4.344   4.712  17.572 -0.2874 -0.9122 -1.5797
   6323SM  H13B 8048   4.375   4.572  17.498 -1.4174  0.7498  0.4775
   6323SM  H13C 8049   4.511   4.647  17.590  0.4139  0.3727 -2.5067
   6323SM   C12 8050   4.406   4.397  17.701 -0.2796  0.4215 -0.3017
   6323SM  H12A 8051   4.400   4.339  17.792 -3.2775  1.2745  0.1705
   6323SM  H12B 8052   4.511   4.405  17.678 -0.6580  2.2700 -1.6946
   6323SM   C11 8053   4.333   4.312  17.596  0.3709 -0.2037 -0.1475
   6323SM  H11A 8054   4.227   4.309  17.627  0.0182  0.5708 -1.2245
   6323SM  H11B 8055   4.368   4.207  17.603  1.0681 -0.0831 -1.4386
   6323SM     P 8056   4.275   4.292  17.348 -0.1776 -0.4951 -0.4067
   6323SM   O13 8057   4.358   4.180  17.290  0.0123 -0.4059 -1.0222
   6323SM   O14 8058   4.136   4.258  17.385 -0.1600  0.2258  0.2595
   6323SM   O11 8059   4.258   4.409  17.249  0.4644  0.2334  0.9613
   6323SM   O12 8060   4.359   4.364  17.465  0.6451  0.2512  0.1155
   6323SM   C1S 8061   4.377   4.478  17.199 -0.3056  0.4534  0.2516
   6323SM   H1S 8062   4.458   4.408  17.173  0.0850  0.0558  2.3588
   6323SM   H1T 8063   4.424   4.545  17.273  0.9399  0.8097 -0.8315
   6323SM    NF 8064   4.483   4.602  17.017 -0.1097 -0.1668  1.2298
   6323SM   HNF 8065   4.518   4.687  17.056  0.1591 -0.6678  2.1253
   6323SM   C2S 8066   4.350   4.558  17.070 -0.3828  0.0935  0.2615
   6323SM   H2S 8067   4.299   4.496  16.993 -1.2425 -0.0945  0.9682
   6323SM   C3S 8068   4.251   4.672  17.102  0.1839  0.2396  0.4176
   6323SM   H3S 8069   4.304   4.732  17.179  0.0524 -1.6020  2.0095
   6323SM    O3 8070   4.122   4.634  17.153 -0.0299  0.0909  0.4710
   6323SM   HO3 8071   4.134   4.538  17.159  0.4523  0.0654 -0.6643
   6323SM   C4S 8072   4.224   4.748  16.973  0.4585 -0.8052  0.4269
   6323SM   H4S 8073   4.199   4.678  16.891 -3.6188 -2.2793  2.6267
   6323SM   C5S 8074   4.231   4.880  16.954 -0.2295  0.0529  0.5604
   6323SM   H5S 8075   4.244   4.928  17.052 -1.7890 -0.5593  1.1136
   6323SM   C6S 8076   4.196   4.942  16.822  0.7772 -0.1392 -0.2391
   6323SM   H6S 8077   4.187   5.052  16.833  1.6232 -0.1947  1.3945
   6323SM   H6T 8078   4.101   4.905  16.778 -1.0716  1.9997  1.6851
   6323SM   C7S 8079   4.313   4.928  16.729 -0.1880  0.4690 -0.2185
   6323SM   H7S 8080   4.282   4.985  16.639 -3.4722  0.5896  0.8706
   6323SM   H7T 8081   4.318   4.825  16.686 -1.0899 -0.4023  1.6938
   6323SM   C8S 8082   4.447   4.988  16.772 -0.9381 -0.0439 -0.3118
   6323SM   H8S 8083   4.474   4.934  16.865 -1.9544 -0.1916 -0.0896
   6323SM   H8T 8084   4.437   5.093  16.805 -1.2418  0.0570 -0.7066
   6323SM   C9S 8085   4.563   4.968  16.669  0.4216 -0.4644  0.1304
   6323SM   H9S 8086   4.656   5.010  16.714  0.1862  0.6859 -0.4084
   6323SM   H9T 8087   4.540   5.033  16.582 -0.9531 -0.0577  0.7811
   6323SM  C10S 8088   4.581   4.823  16.621 -0.7744  0.4296 -0.3009
   6323SM  H10S 8089   4.501   4.802  16.547 -1.1192  0.2964  0.1044
   6323SM  H10T 8090   4.561   4.758  16.709 -2.0356  1.1280 -0.0422
   6323SM  C11S 8091   4.721   4.798  16.571 -0.7840  0.2847  0.8135
   6323SM  H11S 8092   4.741   4.697  16.531  0.6691  1.4468 -1.5826
   6323SM  H11T 8093   4.772   4.799  16.670 -0.0472 -0.6713  0.4513
   6323SM  C12S 8094   4.760   4.904  16.471 -0.7116 -0.6691 -0.7861
   6323SM  H12S 8095   4.736   5.009  16.498  0.4322 -0.4052 -0.7528
   6323SM  H12T 8096   4.700   4.890  16.379 -0.9369  0.1213 -0.7700
   6323SM  C13S 8097   4.914   4.898  16.433  0.1791 -0.1104 -0.2357
   6323SM  H13S 8098   4.950   4.796  16.406 -1.2852  0.1038 -3.5263
   6323SM  H13T 8099   4.969   4.938  16.521 -0.9570  1.0095 -0.0186
   6323SM  C14S 8100   4.947   4.981  16.309  0.2556 -0.3974 -0.5751
   6323SM  H14S 8101   5.057   4.991  16.295  0.6735 -0.4531  2.1615
   6323SM  H14T 8102   4.899   5.078  16.331 -1.6383 -1.3925 -0.1124
   6323SM  C15S 8103   4.902   4.909  16.179 -0.4127  0.7829 -0.0761
   6323SM  H15S 8104   4.798   4.873  16.196 -0.4200  1.5007  1.5766
   6323SM  H15T 8105   4.959   4.814  16.179 -1.9867 -0.2051  0.7099
   6323SM  C16S 8106   4.939   4.992  16.065 -0.6481 -0.6144  0.5548
   6323SM  H16S 8107   5.040   5.033  16.086  0.2133 -1.6542 -1.2416
   6323SM  H16T 8108   4.871   5.078  16.050  0.2438  0.0458  0.2217
   6323SM  C17S 8109   4.959   4.905  15.932  0.2225  0.1601 -0.4122
   6323SM  H17S 8110   4.864   4.865  15.891 -0.1075  2.5155 -2.1623
   6323SM  H17T 8111   5.020   4.817  15.963 -0.6992 -0.4497 -0.2958
   6323SM  C18S 8112   5.031   4.983  15.815 -0.0594  0.7827 -0.4106
   6323SM  H18S 8113   5.137   5.004  15.843  0.3705 -1.2443 -0.3880
   6323SM  H18T 8114   4.975   5.079  15.803  0.5293  1.2349  0.3521
   6323SM  H18U 8115   5.029   4.929  15.718  1.7688  1.6323 -0.9564
   6323SM   C1F 8116   4.563   4.520  16.949  0.0708  0.2626 -0.2533
   6323SM    OF 8117   4.523   4.410  16.913  0.0710  0.6197  0.5713
   6323SM   C2F 8118   4.709   4.557  16.924 -0.4858  0.5591 -0.2483
   6323SM   H2F 8119   4.770   4.535  17.015 -0.1072 -0.7578 -0.7852
   6323SM   H2G 8120   4.719   4.666  16.912  3.6744  0.3642 -0.0431
   6323SM   C3F 8121   4.775   4.501  16.797  0.1610 -0.0790  0.0265
   6323SM   H3F 8122   4.715   4.543  16.713  0.7581  1.4969  0.3485
   6323SM   H3G 8123   4.755   4.392  16.790 -0.9894  0.0365  1.0351
   6323SM   C4F 8124   4.924   4.521  16.787  0.2348 -0.5695 -0.1207
   6323SM   H4F 8125   4.983   4.499  16.879 -0.5903  0.2163  0.6163
   6323SM   H4G 8126   4.949   4.629  16.778 -0.7147 -0.4683 -2.1364
   6323SM   C5F 8127   4.993   4.439  16.682 -0.0592  0.6313 -0.1929
   6323SM   H5F 8128   4.943   4.344  16.655  1.9712 -0.1578 -1.3636
   6323SM   H5G 8129   5.095   4.403  16.709  1.3432  4.0132 -0.4477
   6323SM   C6F 8130   5.013   4.512  16.550  0.2870 -0.3151 -0.1732
   6323SM   H6F 8131   5.059   4.612  16.565 -2.8983  1.1306  0.8652
   6323SM   H6G 8132   4.921   4.533  16.491  0.9474 -2.0955 -1.9509
   6323SM   C7F 8133   5.113   4.431  16.468  0.6033  0.3486 -0.0310
   6323SM   H7F 8134   5.079   4.325  16.460  0.3366  0.3996  0.4102
   6323SM   H7G 8135   5.212   4.410  16.515  1.6232  0.3981 -2.0330
   6323SM   C8F 8136   5.137   4.497  16.330 -0.2132  0.0266  0.2026
   6323SM   H8F 8137   5.230   4.446  16.296 -1.6332 -1.7710 -1.2439
   6323SM   H8G 8138   5.168   4.604  16.324  0.0889 -0.1250 -2.6529
   6323SM   C9F 8139   5.024   4.469  16.228 -0.3444  0.3157  0.5514
   6323SM   H9F 8140   4.948   4.548  16.246 -0.6290  0.1829 -0.0437
   6323SM   H9G 8141   4.977   4.368  16.233  0.6459 -0.1255  1.1463
   6323SM  C10F 8142   5.074   4.499  16.080  0.2787  0.5982 -0.1878
   6323SM  H10F 8143   5.127   4.418  16.026  0.0504  1.3689 -1.5939
   6323SM  H10G 8144   5.148   4.579  16.099  1.2383  0.0221 -1.3840
   6323SM  C11F 8145   4.948   4.537  15.996  0.6897  0.1820  0.1642
   6323SM  H11F 8146   4.902   4.625  16.047  2.0492  0.7818  0.3975
   6323SM  H11G 8147   4.877   4.452  15.997  0.3032  0.4090 -2.1772
   6323SM  C12F 8148   4.958   4.562  15.844  0.0947  0.2152  0.7429
   6323SM  H12F 8149   4.981   4.466  15.794  0.2533  0.1596  0.9223
   6323SM  H12G 8150   5.045   4.627  15.820  0.6306 -0.3261  1.2147
   6323SM  C13F 8151   4.820   4.597  15.780  0.0181 -0.4916  0.1091
   6323SM  H13F 8152   4.768   4.677  15.836 -1.7706  0.8149 -3.1331
   6323SM  H13G 8153   4.747   4.516  15.760 -0.3550  0.1379 -1.2124
   6323SM  C14F 8154   4.846   4.670  15.649 -0.2595  0.1143 -0.5060
   6323SM  H14F 8155   4.935   4.736  15.650  0.0427 -0.2566 -1.4817
   6323SM  H14G 8156   4.756   4.731  15.627 -1.9129 -2.3937 -1.1364
   6323SM  C15F 8157   4.859   4.576  15.525 -0.0773  0.2553  0.0190
   6323SM  H15F 8158   4.775   4.503  15.521  0.9722 -0.9693 -0.2835
   6323SM  H15G 8159   4.949   4.513  15.543 -0.6263 -0.9745 -1.3596
   6323SM  C16F 8160   4.873   4.657  15.393 -0.7104  0.2926  0.1893
   6323SM  H16F 8161   4.967   4.715  15.399 -0.7072  0.1889  1.5026
   6323SM  H16G 8162   4.784   4.724  15.392  0.5096  1.9693 -1.2670
   6323SM  C17F 8163   4.859   4.564  15.269 -0.0577 -0.2954 -0.4700
   6323SM  H17F 8164   4.783   4.488  15.298 -0.2669 -0.0365 -0.3337
   6323SM  H17G 8165   4.955   4.509  15.259  1.4788  1.6553  2.2676
   6323SM  C18F 8166   4.827   4.633  15.137  0.4655 -0.0700  0.3673
   6323SM  H18F 8167   4.900   4.716  15.129 -0.0032  0.3104 -0.0415
   6323SM  H18G 8168   4.727   4.680  15.142  0.8081  0.6416  0.6171
   6323SM  C19F 8169   4.817   4.532  15.019  0.0513  0.9794 -0.4633
   6323SM  H19F 8170   4.743   4.456  15.050  0.8893  0.0988 -0.5591
   6323SM  H19G 8171   4.916   4.484  15.000  1.1863  2.5723  1.1273
   6323SM  C20F 8172   4.773   4.584  14.882 -0.5027  0.7736 -0.3514
   6323SM  H20F 8173   4.844   4.660  14.843 -0.7680  2.0427  1.5174
   6323SM  H20G 8174   4.670   4.624  14.894 -0.4754  0.6655  0.2923
   6323SM  C21F 8175   4.766   4.469  14.782 -0.0502  0.5224 -0.1923
   6323SM  H21F 8176   4.689   4.395  14.812 -0.5731  1.6677  1.3901
   6323SM  H21G 8177   4.862   4.412  14.777 -0.8705 -0.9306 -0.1009
   6323SM  C22F 8178   4.726   4.512  14.640  0.0142  0.1102  0.5639
   6323SM  H22F 8179   4.812   4.577  14.618  1.9797 -2.6321 -0.4715
   6323SM  H22G 8180   4.636   4.577  14.652 -0.2644  0.1453 -1.3316
   6323SM  C23F 8181   4.713   4.402  14.533  0.0554  0.1433  0.2541
   6323SM  H23F 8182   4.680   4.458  14.443 -1.7288  0.1140  0.8400
   6323SM  H23G 8183   4.631   4.328  14.546  0.5355 -0.6370 -0.9983
   6323SM  H23H 8184   4.808   4.347  14.520  1.0710  2.1158 -1.1421
   6423SM     N 8185   6.365   3.207  17.332  0.2457  0.8780  0.1133
   6423SM   C15 8186   6.426   3.335  17.285 -0.4413  0.2661  1.0541
   6423SM  H15A 8187   6.493   3.373  17.360 -0.8155  3.3527 -0.0325
   6423SM  H15B 8188   6.346   3.404  17.264  0.1807  0.2677 -1.6978
   6423SM  H15C 8189   6.467   3.324  17.185  0.8016  1.0087  1.4559
   6423SM   C14 8190   6.288   3.141  17.227  0.3098  0.7212 -0.2269
   6423SM  H14A 8191   6.199   3.201  17.213  0.2140  0.7953  0.6671
   6423SM  H14B 8192   6.265   3.040  17.255 -1.6977  1.3645  0.6107
   6423SM  H14C 8193   6.350   3.145  17.138  2.5561 -1.6860  1.0916
   6423SM   C13 8194   6.483   3.120  17.364  0.1637  0.3522 -0.1794
   6423SM  H13A 8195   6.454   3.030  17.417 -0.4477  1.4986  1.5139
   6423SM  H13B 8196   6.551   3.169  17.431 -0.5442  0.4558  0.4740
   6423SM  H13C 8197   6.541   3.093  17.277 -1.0608  0.4799 -1.0728
   6423SM   C12 8198   6.274   3.227  17.458  0.6850 -0.4711  0.3078
   6423SM  H12A 8199   6.325   3.268  17.544  0.3637 -0.9080  0.7124
   6423SM  H12B 8200   6.236   3.133  17.496 -1.5176 -0.2456 -1.1406
   6423SM   C11 8201   6.146   3.314  17.440  0.7200 -0.2983 -0.2252
   6423SM  H11A 8202   6.084   3.306  17.532  1.8515  1.8971  0.7986
   6423SM  H11B 8203   6.063   3.269  17.380 -1.7744 -1.4778  3.6977
   6423SM     P 8204   6.055   3.545  17.408  0.1024 -0.1850 -0.5752
   6423SM   O13 8205   5.955   3.496  17.313 -0.3886 -0.4213  0.2753
   6423SM   O14 8206   5.997   3.572  17.544 -0.3908 -0.0399  0.4632
   6423SM   O11 8207   6.134   3.667  17.358  0.5982  0.0966 -0.0030
   6423SM   O12 8208   6.177   3.449  17.415 -0.0043 -0.4035 -0.5627
   6423SM   C1S 8209   6.233   3.675  17.256 -0.8046 -0.1932  0.3419
   6423SM   H1S 8210   6.300   3.586  17.256 -0.5597 -0.0128  0.1504
   6423SM   H1T 8211   6.307   3.754  17.283  0.3757 -0.7580 -1.0965
   6423SM    NF 8212   6.271   3.714  17.006 -0.2036  0.2077 -0.2524
   6423SM   HNF 8213   6.295   3.805  16.971 -1.2053  0.6290  0.1176
   6423SM   C2S 8214   6.171   3.706  17.111 -0.4298  0.3914  0.2203
   6423SM   H2S 8215   6.107   3.619  17.086  0.9271 -0.6547  0.2291
   6423SM   C3S 8216   6.089   3.841  17.120  0.1434 -0.1995  1.0044
   6423SM   H3S 8217   6.165   3.921  17.131  0.8669 -0.2233 -2.5361
   6423SM    O3 8218   5.994   3.851  17.226  0.2276  0.0172 -0.2112
   6423SM   HO3 8219   6.042   3.809  17.298 -0.3686 -2.7356 -1.3025
   6423SM   C4S 8220   6.013   3.855  16.990  0.6005  0.0700 -0.4295
   6423SM   H4S 8221   5.924   3.791  16.975  0.6044 -0.8382  2.7048
   6423SM   C5S 8222   6.032   3.963  16.907 -0.0846  0.3760 -0.2340
   6423SM   H5S 8223   6.111   4.035  16.934  1.1997 -0.6318 -1.1588
   6423SM   C6S 8224   5.957   3.989  16.774  0.3404  0.3351 -0.1634
   6423SM   H6S 8225   6.009   4.070  16.718  0.7735 -0.5497 -1.0580
   6423SM   H6T 8226   5.852   4.023  16.783  0.7321  1.4650  0.4036
   6423SM   C7S 8227   5.954   3.873  16.680  0.1894  0.2755  0.1328
   6423SM   H7S 8228   5.902   3.800  16.745  0.9544  1.4403  2.1365
   6423SM   H7T 8229   6.052   3.825  16.658  0.1430  0.6319 -0.9044
   6423SM   C8S 8230   5.872   3.893  16.564  0.4715  0.6313 -0.5660
   6423SM   H8S 8231   5.781   3.950  16.592  0.9841  0.8856  0.6512
   6423SM   H8T 8232   5.848   3.791  16.526  3.9701 -0.8477  0.7667
   6423SM   C9S 8233   5.946   3.981  16.462 -0.5988  0.3782 -0.2854
   6423SM   H9S 8234   6.043   3.928  16.451 -0.6811  0.2702 -0.4893
   6423SM   H9T 8235   5.969   4.078  16.512 -2.0046 -0.2097  1.6409
   6423SM  C10S 8236   5.876   3.998  16.330  0.2073 -0.2245 -0.3634
   6423SM  H10S 8237   5.835   3.903  16.289 -0.1910 -0.1526 -0.1388
   6423SM  H10T 8238   5.936   4.038  16.245 -0.5606  1.9904  0.0571
   6423SM  C11S 8239   5.752   4.097  16.348  0.2448 -0.5783 -0.7084
   6423SM  H11S 8240   5.794   4.189  16.394  0.6459 -0.9821 -0.2615
   6423SM  H11T 8241   5.671   4.058  16.413 -1.1851  0.1124 -2.0101
   6423SM  C12S 8242   5.688   4.138  16.218  0.0260  0.2316 -0.0712
   6423SM  H12S 8243   5.765   4.186  16.153  1.3645  0.6621  1.7586
   6423SM  H12T 8244   5.607   4.211  16.240 -1.1038 -0.3862 -1.9550
   6423SM  C13S 8245   5.630   4.022  16.132  0.3055  0.0808 -0.0638
   6423SM  H13S 8246   5.555   3.966  16.192 -1.2591  1.0148 -1.0643
   6423SM  H13T 8247   5.713   3.959  16.093  0.7169  0.3901  0.2963
   6423SM  C14S 8248   5.542   4.064  16.011 -0.6829 -0.6714 -0.1015
   6423SM  H14S 8249   5.523   3.993  15.927 -2.0426  2.1151 -2.2840
   6423SM  H14T 8250   5.593   4.158  15.983  0.0656  0.0169  3.1116
   6423SM  C15S 8251   5.409   4.117  16.072  0.0682  1.1313  0.5329
   6423SM  H15S 8252   5.373   4.186  15.992 -0.5693  0.7585  0.4942
   6423SM  H15T 8253   5.424   4.168  16.170  2.4872  0.5852  0.5142
   6423SM  C16S 8254   5.302   4.005  16.085  0.4006  0.6461 -0.1950
   6423SM  H16S 8255   5.328   3.942  16.172 -2.0772  0.8358  0.7497
   6423SM  H16T 8256   5.312   3.950  15.989 -0.1662 -0.7022  0.4950
   6423SM  C17S 8257   5.159   4.050  16.118  0.2470 -0.2368 -0.0171
   6423SM  H17S 8258   5.088   3.967  16.096 -1.3461  1.1876 -0.4762
   6423SM  H17T 8259   5.127   4.131  16.048 -0.2762  0.2914  0.8112
   6423SM  C18S 8260   5.151   4.093  16.266 -0.6683  0.2300 -0.4077
   6423SM  H18S 8261   5.239   4.157  16.291  2.0105 -2.9770 -0.9415
   6423SM  H18T 8262   5.169   4.001  16.325 -0.7017 -0.1221 -0.9405
   6423SM  H18U 8263   5.054   4.143  16.286 -0.9886 -0.6696  0.3961
   6423SM   C1F 8264   6.355   3.611  16.978 -0.6741  0.0767  0.6825
   6423SM    OF 8265   6.337   3.494  17.023  0.1435 -0.0836  0.2105
   6423SM   C2F 8266   6.469   3.637  16.893  0.3236 -0.3112  0.2650
   6423SM   H2F 8267   6.527   3.542  16.894  0.6087 -0.1768 -1.4425
   6423SM   H2G 8268   6.529   3.716  16.943  0.4472  0.2528 -0.7553
   6423SM   C3F 8269   6.424   3.676  16.752  0.0861 -0.1882  0.0313
   6423SM   H3F 8270   6.363   3.769  16.758 -0.9148 -0.7885 -0.6212
   6423SM   H3G 8271   6.370   3.593  16.702  0.8429  0.5289 -2.1134
   6423SM   C4F 8272   6.547   3.704  16.660 -0.2597 -0.4503  0.0496
   6423SM   H4F 8273   6.583   3.603  16.630 -0.8204 -1.6837  3.1918
   6423SM   H4G 8274   6.626   3.752  16.721  0.5095 -0.7856 -0.6569
   6423SM   C5F 8275   6.514   3.803  16.548  0.0206 -0.4715  0.2451
   6423SM   H5F 8276   6.606   3.823  16.488  1.8383 -1.2493  2.5910
   6423SM   H5G 8277   6.479   3.899  16.591  1.7823  0.0030  0.7259
   6423SM   C6F 8278   6.398   3.760  16.452 -0.0431  0.3914  0.1521
   6423SM   H6F 8279   6.308   3.736  16.513 -0.0919 -0.4190 -0.2236
   6423SM   H6G 8280   6.417   3.666  16.395  0.1172  0.3109  0.3364
   6423SM   C7F 8281   6.375   3.866  16.338  0.2992 -0.2564 -0.4098
   6423SM   H7F 8282   6.458   3.872  16.264  2.5717  3.4988  2.1137
   6423SM   H7G 8283   6.360   3.968  16.380  0.4728 -0.5210  0.3229
   6423SM   C8F 8284   6.250   3.833  16.262 -0.3755 -0.0586  0.2241
   6423SM   H8F 8285   6.165   3.831  16.334 -1.2333  0.8635 -0.7182
   6423SM   H8G 8286   6.264   3.732  16.217  2.5659  0.3914 -0.0671
   6423SM   C9F 8287   6.222   3.938  16.153 -0.0889 -0.8350  0.4795
   6423SM   H9F 8288   6.309   3.947  16.085 -0.4930 -1.0453 -0.0734
   6423SM   H9G 8289   6.201   4.034  16.205 -1.2103 -0.6377 -0.2999
   6423SM  C10F 8290   6.111   3.889  16.062 -1.0317  0.3799  1.0424
   6423SM  H10F 8291   6.026   3.851  16.123 -1.7548  1.7928  0.9572
   6423SM  H10G 8292   6.158   3.806  16.006  2.0744  2.2575  0.6297
   6423SM  C11F 8293   6.066   3.994  15.953  0.1243 -0.1261  0.3486
   6423SM  H11F 8294   6.152   4.039  15.900  0.4241  0.0728  0.9983
   6423SM  H11G 8295   6.005   4.071  16.004 -1.9683 -3.0134  2.5866
   6423SM  C12F 8296   5.972   3.931  15.844 -0.1737 -0.3874  0.2840
   6423SM  H12F 8297   5.872   3.904  15.885  0.0623 -0.4876  0.8027
   6423SM  H12G 8298   6.005   3.831  15.808  0.9714  1.3837 -4.2713
   6423SM  C13F 8299   5.955   4.007  15.715 -0.2134 -0.5917 -0.0373
   6423SM  H13F 8300   5.998   3.953  15.628  2.5718  0.8013  0.3626
   6423SM  H13G 8301   6.012   4.102  15.716 -0.3341 -0.4545 -1.9554
   6423SM  C14F 8302   5.805   4.035  15.691  0.7430 -0.6408 -0.2113
   6423SM  H14F 8303   5.751   4.099  15.764 -1.0484 -2.0629 -0.2430
   6423SM  H14G 8304   5.739   3.947  15.697  0.4018 -0.4473 -0.9720
   6423SM  C15F 8305   5.795   4.101  15.552  0.2373 -0.9243 -0.2238
   6423SM  H15F 8306   5.815   4.021  15.477 -0.7438  0.1848 -1.7112
   6423SM  H15G 8307   5.877   4.176  15.542  0.6247 -1.3816 -0.5604
   6423SM  C16F 8308   5.658   4.165  15.533  0.1794  0.2697 -0.1439
   6423SM  H16F 8309   5.637   4.226  15.623  1.2053 -0.7319  0.8112
   6423SM  H16G 8310   5.582   4.085  15.542 -0.4885  0.9101 -0.0003
   6423SM  C17F 8311   5.647   4.264  15.412  0.1474 -0.0923  0.4083
   6423SM  H17F 8312   5.720   4.344  15.438  1.6319 -2.3151  3.8270
   6423SM  H17G 8313   5.545   4.301  15.389  0.4960  0.7764  0.2152
   6423SM  C18F 8314   5.688   4.209  15.276 -0.3561 -0.0033  0.2056
   6423SM  H18F 8315   5.634   4.116  15.247 -1.9464  1.5910 -2.3834
   6423SM  H18G 8316   5.794   4.175  15.284 -0.6415 -0.8060  0.7480
   6423SM  C19F 8317   5.674   4.309  15.168 -1.0064  0.1363 -0.2292
   6423SM  H19F 8318   5.741   4.392  15.198  1.3958 -2.2390  1.4010
   6423SM  H19G 8319   5.570   4.348  15.161 -0.0099  3.0837  0.0847
   6423SM  C20F 8320   5.739   4.252  15.044 -0.2060 -0.7693 -0.4113
   6423SM  H20F 8321   5.676   4.164  15.019 -1.2438 -0.4579  0.9688
   6423SM  H20G 8322   5.847   4.228  15.051 -0.4803 -2.1867 -0.8004
   6423SM  C21F 8323   5.721   4.359  14.937 -0.4055 -0.3713  0.8957
   6423SM  H21F 8324   5.766   4.456  14.968 -0.2047  0.3771 -1.5489
   6423SM  H21G 8325   5.618   4.383  14.903  0.2739 -0.0150 -1.0436
   6423SM  C22F 8326   5.801   4.320  14.808  0.0443  0.2272 -0.4184
   6423SM  H22F 8327   5.752   4.224  14.783 -0.4076  0.7754 -1.7521
   6423SM  H22G 8328   5.906   4.289  14.830  0.8648  2.3901 -1.0162
   6423SM  C23F 8329   5.794   4.416  14.692 -0.2396 -0.9364  0.0935
   6423SM  H23F 8330   5.690   4.425  14.652 -0.7692 -0.6247  1.4782
   6423SM  H23G 8331   5.860   4.378  14.612  0.2320 -1.5969  0.7823
   6423SM  H23H 8332   5.839   4.514  14.720 -1.2699 -0.8890  1.7265
   6523SM     N 8333   5.526   4.369  17.715  0.2522 -0.8129  0.6210
   6523SM   C15 8334   5.554   4.353  17.863  0.1316 -0.0845  0.6259
   6523SM  H15A 8335   5.519   4.442  17.913 -0.9504 -0.9091  1.3965
   6523SM  H15B 8336   5.656   4.325  17.884  0.2548  0.8603  1.3318
   6523SM  H15C 8337   5.484   4.277  17.896 -0.3235  0.1002  0.1035
   6523SM   C14 8338   5.386   4.422  17.704 -0.4343 -0.6442 -0.0667
   6523SM  H14A 8339   5.339   4.425  17.607 -1.1781 -1.2250  0.2657
   6523SM  H14B 8340   5.377   4.519  17.749 -0.5770  1.0136 -3.3875
   6523SM  H14C 8341   5.327   4.351  17.760 -2.5784  0.7786 -0.4148
   6523SM   C13 8342   5.616   4.474  17.668  0.2980  0.1635  0.1359
   6523SM  H13A 8343   5.603   4.570  17.716 -0.3345 -0.8350  2.0639
   6523SM  H13B 8344   5.603   4.494  17.562  1.8856  1.6850  0.1753
   6523SM  H13C 8345   5.721   4.447  17.676  0.0014 -0.5402  2.2140
   6523SM   C12 8346   5.540   4.245  17.639  0.1086  0.0822 -0.2283
   6523SM  H12A 8347   5.488   4.169  17.695 -0.6804  0.4869 -0.4047
   6523SM  H12B 8348   5.637   4.202  17.658  0.4840  1.4583  1.0708
   6523SM   C11 8349   5.520   4.245  17.488  0.1095  0.2296 -0.5289
   6523SM  H11A 8350   5.415   4.283  17.483 -0.6956 -1.3083  2.1434
   6523SM  H11B 8351   5.524   4.138  17.458  2.3879 -0.2214  1.1271
   6523SM     P 8352   5.744   4.285  17.366  0.0784  0.4553  0.4754
   6523SM   O13 8353   5.842   4.379  17.417 -0.7259 -0.3810 -0.0769
   6523SM   O14 8354   5.764   4.139  17.384 -0.0456 -0.0204 -0.5874
   6523SM   O11 8355   5.739   4.314  17.206  0.2228 -0.1869 -0.4746
   6523SM   O12 8356   5.603   4.331  17.413  0.4614  0.0024  0.2368
   6523SM   C1S 8357   5.615   4.364  17.150  0.5284  0.2150 -0.2907
   6523SM   H1S 8358   5.586   4.460  17.196  1.3326 -0.4770  1.7973
   6523SM   H1T 8359   5.537   4.286  17.166 -0.3017  1.2402  0.8363
   6523SM    NF 8360   5.501   4.443  16.954 -0.2610 -0.1999  0.7790
   6523SM   HNF 8361   5.445   4.370  16.915 -2.1503  0.2245  2.5343
   6523SM   C2S 8362   5.628   4.402  16.998  0.2778  0.0869 -0.5147
   6523SM   H2S 8363   5.687   4.496  17.000 -0.4107  0.6390  3.7379
   6523SM   C3S 8364   5.684   4.287  16.916 -0.7607 -0.4301 -0.2843
   6523SM   H3S 8365   5.632   4.191  16.936 -0.7796 -0.7744 -1.8734
   6523SM    O3 8366   5.818   4.266  16.960 -0.2040 -0.4179 -0.1151
   6523SM   HO3 8367   5.819   4.284  17.055  0.5849  2.5454 -0.5828
   6523SM   C4S 8368   5.670   4.315  16.768 -0.4231  0.6509 -0.1817
   6523SM   H4S 8369   5.581   4.295  16.707 -0.3599  0.2833 -0.1552
   6523SM   C5S 8370   5.775   4.382  16.701  0.3724  0.0826 -0.5838
   6523SM   H5S 8371   5.858   4.412  16.766  0.1838  0.2728 -0.4305
   6523SM   C6S 8372   5.780   4.417  16.555  0.3985  0.6048 -0.1404
   6523SM   H6S 8373   5.843   4.341  16.503 -0.4704  0.1444 -0.5451
   6523SM   H6T 8374   5.820   4.518  16.533  0.4232  0.1363 -2.5707
   6523SM   C7S 8375   5.648   4.415  16.475  0.7392  0.4163  0.0284
   6523SM   H7S 8376   5.577   4.481  16.529  0.3461  0.6031 -0.6991
   6523SM   H7T 8377   5.599   4.316  16.476  1.5305  0.0208  0.1929
   6523SM   C8S 8378   5.667   4.466  16.331 -0.5894 -0.3738  0.2307
   6523SM   H8S 8379   5.734   4.403  16.268  0.4987  1.8680 -0.9798
   6523SM   H8T 8380   5.712   4.567  16.339 -0.0391 -0.6840  1.2641
   6523SM   C9S 8381   5.540   4.478  16.253  0.1392 -0.9084 -0.0692
   6523SM   H9S 8382   5.464   4.537  16.309  1.2940 -1.6677  2.3934
   6523SM   H9T 8383   5.483   4.383  16.244 -0.4796 -0.8417  2.3837
   6523SM  C10S 8384   5.563   4.542  16.114  0.4348  0.1369  0.8537
   6523SM  H10S 8385   5.657   4.496  16.077  0.4290  1.4439 -0.9304
   6523SM  H10T 8386   5.578   4.652  16.110  0.2866  0.1765 -3.4532
   6523SM  C11S 8387   5.458   4.506  16.011  0.7923  0.3591  0.2846
   6523SM  H11S 8388   5.356   4.523  16.052  0.8629  1.1512  0.1403
   6523SM  H11T 8389   5.478   4.399  15.988 -0.9741  0.0496  0.0520
   6523SM  C12S 8390   5.466   4.586  15.882 -0.3544  0.1169 -1.0843
   6523SM  H12S 8391   5.569   4.571  15.844 -0.6290 -0.0551 -1.7723
   6523SM  H12T 8392   5.447   4.689  15.917 -0.6271  0.0206 -0.9419
   6523SM  C13S 8393   5.373   4.552  15.764 -0.1217  0.2413  0.5193
   6523SM  H13S 8394   5.275   4.510  15.794 -0.4249  2.3852  2.8542
   6523SM  H13T 8395   5.430   4.471  15.713  0.1031  0.5797  0.2250
   6523SM  C14S 8396   5.370   4.676  15.675 -0.0246  0.3086  0.4175
   6523SM  H14S 8397   5.468   4.698  15.628 -1.0818 -0.1161 -2.1379
   6523SM  H14T 8398   5.332   4.758  15.739 -0.4261  0.9659 -0.6390
   6523SM  C15S 8399   5.279   4.662  15.550  0.3260  0.7666 -0.7355
   6523SM  H15S 8400   5.252   4.763  15.511 -1.3637  0.2955 -0.8412
   6523SM  H15T 8401   5.185   4.614  15.584 -0.1481  1.8233 -0.5190
   6523SM  C16S 8402   5.343   4.576  15.445  0.2788 -0.2603  0.0677
   6523SM  H16S 8403   5.353   4.478  15.494  0.0105 -0.7237 -0.7795
   6523SM  H16T 8404   5.444   4.614  15.417  1.6096 -2.9575  0.8744
   6523SM  C17S 8405   5.251   4.558  15.322  0.8726  0.6625 -0.1596
   6523SM  H17S 8406   5.205   4.655  15.292  0.3673  0.3655 -0.3695
   6523SM  H17T 8407   5.170   4.498  15.369  2.1072 -0.2169  0.9170
   6523SM  C18S 8408   5.312   4.478  15.203 -0.3239  0.7035  0.1754
   6523SM  H18S 8409   5.390   4.402  15.224 -0.8905 -0.5278 -1.8464
   6523SM  H18T 8410   5.359   4.547  15.130 -1.6191  0.2957 -1.0994
   6523SM  H18U 8411   5.228   4.436  15.143  0.2446  1.2850 -1.0587
   6523SM   C1F 8412   5.436   4.556  16.982  0.1089 -0.4120  0.9105
   6523SM    OF 8413   5.488   4.648  17.047 -0.5534 -0.0666 -0.7013
   6523SM   C2F 8414   5.298   4.576  16.928  0.2858 -0.1129 -0.1902
   6523SM   H2F 8415   5.229   4.563  17.014  1.5500 -0.7484  0.7491
   6523SM   H2G 8416   5.274   4.492  16.858 -0.8966 -2.0089  2.3376
   6523SM   C3F 8417   5.284   4.696  16.840 -0.0235  0.0877  0.1846
   6523SM   H3F 8418   5.324   4.788  16.888  1.6657 -0.6637  0.2658
   6523SM   H3G 8419   5.177   4.708  16.812 -0.3671  0.8837  1.7177
   6523SM   C4F 8420   5.365   4.691  16.709 -0.2418 -0.1259 -0.4139
   6523SM   H4F 8421   5.335   4.605  16.645 -1.2310  0.4205 -0.7021
   6523SM   H4G 8422   5.471   4.669  16.734 -0.3793  1.1694  1.5680
   6523SM   C5F 8423   5.356   4.818  16.616 -0.2538  0.0071  0.0642
   6523SM   H5F 8424   5.412   4.901  16.663  0.5348  0.0040 -0.8360
   6523SM   H5G 8425   5.248   4.844  16.610 -0.1515  0.1497 -3.8720
   6523SM   C6F 8426   5.414   4.790  16.472 -0.3115 -0.4639  0.3185
   6523SM   H6F 8427   5.356   4.708  16.426 -0.4527 -0.6535  0.8338
   6523SM   H6G 8428   5.519   4.754  16.482 -0.2833 -1.1178 -1.7369
   6523SM   C7F 8429   5.409   4.915  16.384  0.3268 -0.4103 -0.6532
   6523SM   H7F 8430   5.452   5.005  16.432 -0.8086 -0.5901  0.7709
   6523SM   H7G 8431   5.301   4.939  16.371 -0.3822  0.2462  4.5037
   6523SM   C8F 8432   5.482   4.892  16.252 -0.0088 -0.8621 -0.8835
   6523SM   H8F 8433   5.438   4.811  16.190 -0.6202  1.1680 -3.2815
   6523SM   H8G 8434   5.589   4.868  16.266  0.1786  0.4445  0.1245
   6523SM   C9F 8435   5.470   5.019  16.167  0.2578 -0.1012 -0.1395
   6523SM   H9F 8436   5.523   5.099  16.224 -1.2278  0.1775  0.9161
   6523SM   H9G 8437   5.360   5.031  16.154 -0.1080 -0.2350  2.3076
   6523SM  C10F 8438   5.516   5.016  16.026 -0.4526  0.0897  0.4131
   6523SM  H10F 8439   5.484   5.112  15.979  0.6345 -0.0801 -0.7226
   6523SM  H10G 8440   5.460   4.930  15.983 -0.7456 -0.3515  1.6516
   6523SM  C11F 8441   5.669   4.990  16.003 -0.4727 -0.6942  0.4295
   6523SM  H11F 8442   5.713   4.934  16.088 -0.5005 -2.1203 -0.4708
   6523SM  H11G 8443   5.717   5.091  15.996 -0.7985 -0.6290 -1.4539
   6523SM  C12F 8444   5.721   4.922  15.875 -0.3356 -0.0892 -0.1578
   6523SM  H12F 8445   5.698   4.985  15.785 -1.7851 -0.7819 -0.2958
   6523SM  H12G 8446   5.672   4.824  15.857 -0.7034  0.1730 -0.6167
   6523SM  C13F 8447   5.873   4.892  15.888 -0.1513  0.1071 -0.2159
   6523SM  H13F 8448   5.904   4.833  15.799 -0.5708 -1.3025  0.5346
   6523SM  H13G 8449   5.883   4.819  15.972 -0.7448  1.2194  0.8504
   6523SM  C14F 8450   5.962   5.013  15.904 -0.4079 -0.2878  0.1794
   6523SM  H14F 8451   5.954   5.047  16.009  1.3331 -4.6797  2.0113
   6523SM  H14G 8452   5.931   5.087  15.827  0.1454 -0.8334 -0.5857
   6523SM  C15F 8453   6.111   4.980  15.883  0.0108 -1.1446 -0.2100
   6523SM  H15F 8454   6.112   4.945  15.778 -2.3210 -0.1451 -0.6311
   6523SM  H15G 8455   6.142   4.892  15.944  2.1330 -1.6607 -1.9195
   6523SM  C16F 8456   6.211   5.092  15.910 -0.0712  0.0131 -0.0646
   6523SM  H16F 8457   6.194   5.130  16.013  2.7016 -0.6364  0.7354
   6523SM  H16G 8458   6.205   5.175  15.836 -0.6246  1.9543  2.0175
   6523SM  C17F 8459   6.366   5.049  15.896  0.0068 -0.0318 -0.5493
   6523SM  H17F 8460   6.385   4.983  15.984  0.4847 -0.1594 -0.7436
   6523SM  H17G 8461   6.427   5.141  15.907 -0.3597  0.2797 -1.0862
   6523SM  C18F 8462   6.400   4.975  15.770  0.7022  0.3637 -0.5447
   6523SM  H18F 8463   6.388   5.033  15.676  0.0649  1.5938  0.2658
   6523SM  H18G 8464   6.333   4.887  15.767  0.7701  0.3361 -1.7651
   6523SM  C19F 8465   6.540   4.917  15.774 -0.1375  0.0145 -0.5354
   6523SM  H19F 8466   6.564   4.873  15.675 -1.4641  0.7767 -1.2236
   6523SM  H19G 8467   6.533   4.828  15.841 -0.0609 -0.9497 -1.7702
   6523SM  C20F 8468   6.662   5.004  15.799 -0.6622  0.4679  0.8260
   6523SM  H20F 8469   6.646   5.054  15.897  0.0110  0.3027  1.0312
   6523SM  H20G 8470   6.677   5.082  15.721  2.4085 -0.5281  0.2817
   6523SM  C21F 8471   6.789   4.923  15.790 -0.1210 -0.3522  0.1613
   6523SM  H21F 8472   6.818   4.890  15.688  0.1002 -1.3558  0.5374
   6523SM  H21G 8473   6.773   4.828  15.846 -2.9365 -0.0981 -0.0590
   6523SM  C22F 8474   6.905   5.001  15.848  0.1291 -0.4001  0.5131
   6523SM  H22F 8475   6.874   5.034  15.950  1.1643 -2.3814  1.5381
   6523SM  H22G 8476   6.925   5.091  15.787 -2.6915 -1.6570 -2.6364
   6523SM  C23F 8477   7.032   4.924  15.855 -0.2114  1.0913 -0.4755
   6523SM  H23F 8478   7.050   4.879  15.755 -1.1992  2.6117 -1.3685
   6523SM  H23G 8479   7.004   4.845  15.927 -0.3787  0.5652 -1.1117
   6523SM  H23H 8480   7.113   4.991  15.894 -0.1650  0.5480  0.3929
   6623SM     N 8481   4.321   1.908  17.656 -0.1205  0.6866  0.6355
   6623SM   C15 8482   4.453   1.957  17.606  0.5887  0.0877  0.7517
   6623SM  H15A 8483   4.491   1.892  17.529 -1.5470  0.6151 -0.8636
   6623SM  H15B 8484   4.527   1.976  17.683  1.7904 -2.1489  0.2200
   6623SM  H15C 8485   4.430   2.049  17.553 -0.4181  0.0123  1.0243
   6623SM   C14 8486   4.334   1.761  17.697  0.4752 -0.0876 -0.1255
   6623SM  H14A 8487   4.435   1.743  17.730  0.4641  0.3906  0.1687
   6623SM  H14B 8488   4.313   1.690  17.618 -0.9008 -0.4515  0.5335
   6623SM  H14C 8489   4.265   1.750  17.780  1.0046 -1.3924  0.1695
   6623SM   C13 8490   4.276   1.982  17.770  0.1858  0.5978  0.4314
   6623SM  H13A 8491   4.337   1.960  17.857  1.7688 -1.4172 -1.0960
   6623SM  H13B 8492   4.176   1.956  17.799  0.4057  1.3540  1.9560
   6623SM  H13C 8493   4.277   2.088  17.747  2.3955  0.6392  0.4677
   6623SM   C12 8494   4.209   1.913  17.546  0.5232  0.2148  0.3011
   6623SM  H12A 8495   4.123   1.860  17.583  0.2383 -0.3344 -1.0988
   6623SM  H12B 8496   4.249   1.862  17.459 -0.3128 -0.8403  0.5215
   6623SM   C11 8497   4.155   2.057  17.507 -0.4235 -0.2656  0.2009
   6623SM  H11A 8498   4.124   2.118  17.594  0.9099 -0.1748  0.6472
   6623SM  H11B 8499   4.066   2.042  17.442 -2.0137 -0.3584  2.3161
   6623SM     P 8500   4.244   2.274  17.393 -0.1038 -0.3367 -0.2843
   6623SM   O13 8501   4.111   2.292  17.328 -0.1192 -0.7290  0.5397
   6623SM   O14 8502   4.268   2.357  17.514  0.0858  0.5105 -0.7882
   6623SM   O11 8503   4.353   2.308  17.288  0.0585 -0.1812  0.2231
   6623SM   O12 8504   4.255   2.120  17.422 -0.3413  0.3330 -0.4379
   6623SM   C1S 8505   4.389   2.223  17.175 -0.7651  0.2946 -0.7390
   6623SM   H1S 8506   4.327   2.130  17.175  1.0920 -1.0214 -1.7553
   6623SM   H1T 8507   4.491   2.180  17.189 -1.4143 -0.9501  0.3805
   6623SM    NF 8508   4.413   2.194  16.931  0.2844  0.0793 -0.6087
   6623SM   HNF 8509   4.501   2.234  16.906  0.2499  1.9219  1.8598
   6623SM   C2S 8510   4.362   2.287  17.031  0.2382  0.7595  0.3781
   6623SM   H2S 8511   4.252   2.302  17.023 -0.1132 -0.8671  1.6992
   6623SM   C3S 8512   4.433   2.430  17.033  1.1924 -0.0104  0.6723
   6623SM   H3S 8513   4.542   2.430  17.055  1.2361  1.4818  0.5775
   6623SM    O3 8514   4.387   2.522  17.134  0.5624  0.0518 -0.1390
   6623SM   HO3 8515   4.337   2.465  17.193  1.6997 -0.1986  0.6268
   6623SM   C4S 8516   4.388   2.503  16.912  0.0502  0.2994  0.6827
   6623SM   H4S 8517   4.279   2.507  16.912 -0.0172  0.1181  3.1021
   6623SM   C5S 8518   4.467   2.553  16.811  1.0946 -0.3699  0.8209
   6623SM   H5S 8519   4.576   2.553  16.818  1.2742  2.4228 -0.7355
   6623SM   C6S 8520   4.423   2.622  16.682  0.3058 -0.1654  0.2644
   6623SM   H6S 8521   4.480   2.570  16.603 -1.0771 -0.5693 -0.5133
   6623SM   H6T 8522   4.453   2.728  16.675 -2.6121  0.6680 -1.5542
   6623SM   C7S 8523   4.268   2.621  16.646 -0.0247  0.3169 -0.9422
   6623SM   H7S 8524   4.214   2.686  16.718 -0.5074 -0.0776 -0.9454
   6623SM   H7T 8525   4.223   2.520  16.653  0.1592  0.2635 -0.5153
   6623SM   C8S 8526   4.245   2.664  16.500 -0.0777 -0.1994 -0.0997
   6623SM   H8S 8527   4.137   2.679  16.479  0.1844  1.2862 -0.4780
   6623SM   H8T 8528   4.284   2.574  16.447  0.1113 -0.0501 -0.2137
   6623SM   C9S 8529   4.312   2.796  16.465  0.6634  0.4662  0.0086
   6623SM   H9S 8530   4.422   2.784  16.481  0.9154 -0.4487 -2.1914
   6623SM   H9T 8531   4.283   2.881  16.531  1.1897  0.9591 -0.3759
   6623SM  C10S 8532   4.299   2.839  16.320 -0.1897  0.4206  0.7074
   6623SM  H10S 8533   4.190   2.853  16.304 -0.1907 -0.8596 -0.6680
   6623SM  H10T 8534   4.327   2.751  16.258  0.0831  0.3423  0.9372
   6623SM  C11S 8535   4.389   2.961  16.288 -0.4015  0.0960 -0.6306
   6623SM  H11S 8536   4.492   2.950  16.328 -0.8719  0.9609  0.8894
   6623SM  H11T 8537   4.350   3.048  16.344  0.0672  1.0666 -1.7731
   6623SM  C12S 8538   4.378   2.980  16.140  0.1533  0.0416 -0.0289
   6623SM  H12S 8539   4.271   2.967  16.111 -0.3760  0.8520  1.4451
   6623SM  H12T 8540   4.443   2.907  16.088  1.1574 -0.3905  1.7814
   6623SM  C13S 8541   4.414   3.124  16.097 -0.1054  0.6562  0.4256
   6623SM  H13S 8542   4.504   3.149  16.157  1.2737 -0.7527 -0.9704
   6623SM  H13T 8543   4.325   3.185  16.124 -0.6903  0.5050 -1.0829
   6623SM  C14S 8544   4.450   3.146  15.947 -0.2943  0.1918 -0.7843
   6623SM  H14S 8545   4.546   3.098  15.919  0.7960  1.3527  0.7582
   6623SM  H14T 8546   4.455   3.256  15.927 -2.0131  1.1939  3.2370
   6623SM  C15S 8547   4.347   3.086  15.856  0.2917  0.1830  0.3521
   6623SM  H15S 8548   4.245   3.112  15.891 -0.8384 -3.0478 -0.1215
   6623SM  H15T 8549   4.360   2.976  15.866  2.1916  0.1399 -1.7069
   6623SM  C16S 8550   4.356   3.113  15.703  0.3689  0.6198 -0.0188
   6623SM  H16S 8551   4.424   3.037  15.659 -2.8216 -2.3520 -0.2083
   6623SM  H16T 8552   4.408   3.211  15.697  1.2092  0.2832  1.2578
   6623SM  C17S 8553   4.223   3.089  15.624 -0.6145 -0.2588  0.2219
   6623SM  H17S 8554   4.143   3.155  15.663 -1.1472  0.4749 -1.9867
   6623SM  H17T 8555   4.187   2.984  15.633  1.6638 -1.5686 -3.5198
   6623SM  C18S 8556   4.237   3.123  15.478 -0.3790 -0.5367  0.4769
   6623SM  H18S 8557   4.298   3.054  15.417 -2.7586 -0.9184 -1.6473
   6623SM  H18T 8558   4.288   3.222  15.484  1.4369 -1.4666  1.1612
   6623SM  H18U 8559   4.136   3.128  15.433  0.9984 -0.7747 -2.9744
   6623SM   C1F 8560   4.365   2.072  16.907  0.0203  0.0045 -0.0801
   6623SM    OF 8561   4.271   2.039  16.970 -0.1405 -0.4364 -0.6397
   6623SM   C2F 8562   4.433   1.982  16.805 -0.6396 -0.0222  0.8312
   6623SM   H2F 8563   4.445   1.879  16.844  2.0957 -0.5792 -1.1816
   6623SM   H2G 8564   4.533   2.017  16.774 -0.9099 -0.8375 -1.1020
   6623SM   C3F 8565   4.352   1.982  16.671  0.9573 -0.1793  0.1929
   6623SM   H3F 8566   4.242   1.974  16.682  0.8262  0.4389 -0.5486
   6623SM   H3G 8567   4.371   1.898  16.600  0.2291 -1.1170  1.0782
   6623SM   C4F 8568   4.367   2.121  16.596  0.5118  0.6333  0.2804
   6623SM   H4F 8569   4.476   2.141  16.588  1.1193 -2.0744  0.8095
   6623SM   H4G 8570   4.330   2.204  16.660  0.5983 -1.9009  3.9248
   6623SM   C5F 8571   4.298   2.122  16.459 -0.2148 -0.4430 -0.0500
   6623SM   H5F 8572   4.195   2.081  16.474 -0.7511  0.1138 -1.9316
   6623SM   H5G 8573   4.353   2.042  16.405 -1.5750 -0.6489 -1.1943
   6623SM   C6F 8574   4.316   2.250  16.374 -0.0224 -0.6669  0.3491
   6623SM   H6F 8575   4.404   2.314  16.394 -0.4605 -0.8559  3.5460
   6623SM   H6G 8576   4.225   2.304  16.407  0.9590  1.1052  0.3007
   6623SM   C7F 8577   4.288   2.245  16.222 -0.2177  0.2223 -0.9569
   6623SM   H7F 8578   4.185   2.206  16.207 -0.7687  0.6565  1.3752
   6623SM   H7G 8579   4.352   2.160  16.189 -0.5494  0.2096 -1.5782
   6623SM   C8F 8580   4.300   2.376  16.148 -0.2615 -0.2035  0.3051
   6623SM   H8F 8581   4.224   2.450  16.179  0.4145  0.7141 -0.1727
   6623SM   H8G 8582   4.288   2.361  16.039 -0.2432  1.6018  0.0381
   6623SM   C9F 8583   4.436   2.445  16.150 -0.2993  0.6741  0.8067
   6623SM   H9F 8584   4.520   2.381  16.117  0.9936  2.5166  0.3464
   6623SM   H9G 8585   4.458   2.471  16.256 -1.4839 -1.4401  1.6484
   6623SM  C10F 8586   4.460   2.568  16.052 -0.1068 -0.7426  0.0680
   6623SM  H10F 8587   4.549   2.625  16.089 -2.5547  2.5348  1.4694
   6623SM  H10G 8588   4.373   2.637  16.059 -0.9507 -1.7876  0.1012
   6623SM  C11F 8589   4.485   2.527  15.910  0.7057 -0.4399 -0.0023
   6623SM  H11F 8590   4.480   2.622  15.852  1.5400  0.1973  0.9411
   6623SM  H11G 8591   4.399   2.462  15.880 -0.8240  1.5154 -0.0693
   6623SM  C12F 8592   4.625   2.470  15.884  0.0270 -0.4174  0.5278
   6623SM  H12F 8593   4.612   2.364  15.916 -1.4871  0.4448  3.1055
   6623SM  H12G 8594   4.694   2.516  15.958  2.9912 -2.2774 -0.8771
   6623SM  C13F 8595   4.689   2.487  15.747 -0.0328 -0.1373  0.9255
   6623SM  H13F 8596   4.737   2.587  15.738 -1.5313  0.6740  1.5397
   6623SM  H13G 8597   4.606   2.491  15.674  0.1801 -0.1009  0.6842
   6623SM  C14F 8598   4.796   2.378  15.716 -0.3512 -0.3501  0.0420
   6623SM  H14F 8599   4.743   2.281  15.700 -0.2914 -0.1287 -1.6674
   6623SM  H14G 8600   4.856   2.350  15.805 -2.7937 -2.8504  1.0805
   6623SM  C15F 8601   4.886   2.395  15.594 -0.8662 -0.2478  0.1982
   6623SM  H15F 8602   4.956   2.309  15.587 -1.6083 -0.7506 -1.4984
   6623SM  H15G 8603   4.949   2.486  15.602 -2.1478  0.6765  0.2134
   6623SM  C16F 8604   4.811   2.372  15.463  0.3396  0.0132  0.0524
   6623SM  H16F 8605   4.876   2.402  15.378  1.3353 -0.2090  0.7052
   6623SM  H16G 8606   4.709   2.415  15.452  1.4806  3.7661  2.1364
   6623SM  C17F 8607   4.800   2.224  15.439 -0.0145  0.1194  0.0569
   6623SM  H17F 8608   4.708   2.184  15.487 -1.7488  2.9179 -0.6489
   6623SM  H17G 8609   4.887   2.167  15.478  0.3696  0.4219 -0.3445
   6623SM  C18F 8610   4.793   2.198  15.286  0.1422 -0.2927 -0.6370
   6623SM  H18F 8611   4.764   2.092  15.269 -2.1450  0.2461 -0.5044
   6623SM  H18G 8612   4.895   2.207  15.243  1.1078 -2.2921  1.0762
   6623SM  C19F 8613   4.673   2.277  15.229 -0.0344  0.2084  0.2816
   6623SM  H19F 8614   4.699   2.385  15.235 -0.2759  0.4301 -1.8673
   6623SM  H19G 8615   4.573   2.274  15.277  0.3435 -0.5781  1.0619
   6623SM  C20F 8616   4.653   2.239  15.081 -0.3887  0.4285  0.1543
   6623SM  H20F 8617   4.747   2.195  15.041 -0.1746 -0.0879  1.1866
   6623SM  H20G 8618   4.628   2.322  15.012  1.3963  0.3157 -0.6973
   6623SM  C21F 8619   4.549   2.129  15.067  0.4937  0.2339  0.1522
   6623SM  H21F 8620   4.454   2.174  15.102  1.3661  1.1791  1.3654
   6623SM  H21G 8621   4.575   2.040  15.128  1.1966  0.5669  0.3483
   6623SM  C22F 8622   4.511   2.084  14.918  0.0835 -0.1560 -0.6358
   6623SM  H22F 8623   4.603   2.041  14.872  0.9626 -0.2222  1.0993
   6623SM  H22G 8624   4.477   2.174  14.863  3.6334  1.8633  0.1643
   6623SM  C23F 8625   4.393   1.985  14.920 -0.0603  0.1986  0.4328
   6623SM  H23F 8626   4.302   2.031  14.964  1.6699  1.4956  2.9023
   6623SM  H23G 8627   4.406   1.887  14.971 -0.6645 -0.0518  0.1240
   6623SM  H23H 8628   4.359   1.950  14.820 -1.7705  1.6357  0.4620
   6723SM     N 8629   3.831   6.194  17.753  0.4284  0.3784 -0.1272
   6723SM   C15 8630   3.892   6.155  17.883 -0.4837 -0.2819 -0.7222
   6723SM  H15A 8631   4.000   6.155  17.884 -0.4286  2.1277 -0.1903
   6723SM  H15B 8632   3.858   6.060  17.921 -0.3794  0.1911  0.6047
   6723SM  H15C 8633   3.854   6.216  17.963 -1.1121  1.1953 -2.0852
   6723SM   C14 8634   3.683   6.153  17.747 -0.8315 -0.4040  0.5456
   6723SM  H14A 8635   3.672   6.050  17.774  0.6864 -0.7781 -0.1466
   6723SM  H14B 8636   3.641   6.173  17.649  1.9330  2.0320 -0.3111
   6723SM  H14C 8637   3.631   6.209  17.824 -1.0664 -0.4442  0.4179
   6723SM   C13 8638   3.832   6.347  17.743  0.0385 -0.3045  0.2042
   6723SM  H13A 8639   3.792   6.392  17.832 -1.0150  1.6499 -1.1735
   6723SM  H13B 8640   3.788   6.395  17.656  0.1667  2.3079  1.4664
   6723SM  H13C 8641   3.937   6.369  17.737 -0.3273  1.2949 -1.1680
   6723SM   C12 8642   3.907   6.131  17.635 -0.2915  0.2793 -0.5696
   6723SM  H12A 8643   3.911   6.024  17.651  0.1094  0.1607 -1.4003
   6723SM  H12B 8644   4.005   6.170  17.613 -0.2226  0.4545  0.0327
   6723SM   C11 8645   3.824   6.142  17.500 -0.4413  0.3489 -0.2402
   6723SM  H11A 8646   3.826   6.248  17.467  1.6104  0.4262  0.0122
   6723SM  H11B 8647   3.722   6.100  17.513 -0.7730  0.6196 -1.8526
   6723SM     P 8648   3.847   5.918  17.365  0.6769  0.1805 -0.2323
   6723SM   O13 8649   3.915   5.876  17.239  0.6666  0.3732  0.4639
   6723SM   O14 8650   3.874   5.828  17.482 -0.2933 -0.2073 -0.1461
   6723SM   O11 8651   3.687   5.931  17.338  0.1151  0.0622  0.4199
   6723SM   O12 8652   3.888   6.068  17.398  0.3993  0.3173  0.2676
   6723SM   C1S 8653   3.632   5.984  17.216  0.0024  0.0014  0.1921
   6723SM   H1S 8654   3.703   6.051  17.163  2.2372 -3.7668 -2.0382
   6723SM   H1T 8655   3.559   6.059  17.253  0.3245 -1.0597  3.2904
   6723SM    NF 8656   3.519   5.941  16.993 -0.1801  0.6582 -0.2268
   6723SM   HNF 8657   3.422   5.961  16.987 -0.7179 -0.6482  2.5399
   6723SM   C2S 8658   3.572   5.880  17.115  0.4388  0.8165  0.2323
   6723SM   H2S 8659   3.662   5.823  17.085 -1.1427 -0.9323 -1.3920
   6723SM   C3S 8660   3.462   5.780  17.173 -0.3553  0.0296  0.2286
   6723SM   H3S 8661   3.364   5.832  17.179 -0.7915 -0.6585 -0.6933
   6723SM    O3 8662   3.489   5.735  17.305  1.0258 -0.6081 -0.5492
   6723SM   HO3 8663   3.576   5.770  17.326  1.9931 -1.2255 -3.1936
   6723SM   C4S 8664   3.450   5.662  17.080  0.5365 -0.1260  0.2319
   6723SM   H4S 8665   3.521   5.581  17.101  0.5702 -0.8290 -2.3160
   6723SM   C5S 8666   3.362   5.647  16.977  0.0457  0.6222  1.2160
   6723SM   H5S 8667   3.295   5.727  16.940  0.0387  0.9163  1.8589
   6723SM   C6S 8668   3.355   5.526  16.885  0.5077  0.0152 -0.4166
   6723SM   H6S 8669   3.288   5.442  16.916 -0.0250 -0.0268 -1.6229
   6723SM   H6T 8670   3.447   5.466  16.871  0.1728 -0.2063 -1.8577
   6723SM   C7S 8671   3.313   5.566  16.739 -0.3550 -0.0376  0.3576
   6723SM   H7S 8672   3.223   5.630  16.728 -0.7892 -0.9921 -2.4640
   6723SM   H7T 8673   3.290   5.480  16.672 -0.3461  0.5671 -0.4339
   6723SM   C8S 8674   3.438   5.625  16.671  0.7166  1.2775  0.3553
   6723SM   H8S 8675   3.523   5.554  16.666  0.1635  0.6679 -1.1048
   6723SM   H8T 8676   3.471   5.713  16.731 -1.5728  0.3295  3.2414
   6723SM   C9S 8677   3.402   5.671  16.521  0.7804 -0.3040  0.6366
   6723SM   H9S 8678   3.491   5.710  16.466  0.8005  0.3643  1.1300
   6723SM   H9T 8679   3.336   5.760  16.530  0.7498 -0.0903 -1.3036
   6723SM  C10S 8680   3.324   5.560  16.444 -0.5506  0.1074  0.2391
   6723SM  H10S 8681   3.228   5.539  16.495 -1.6013  4.1260  0.2228
   6723SM  H10T 8682   3.390   5.471  16.452 -1.0005 -0.4372 -1.6605
   6723SM  C11S 8683   3.304   5.604  16.298 -0.3557 -0.8335 -0.9206
   6723SM  H11S 8684   3.410   5.617  16.266  0.0709  0.3458  0.8519
   6723SM  H11T 8685   3.240   5.693  16.282 -0.4916 -0.5024  1.2691
   6723SM  C12S 8686   3.243   5.493  16.211 -0.3582  0.1430 -0.1691
   6723SM  H12S 8687   3.139   5.468  16.241  0.4037 -0.6984  1.9987
   6723SM  H12T 8688   3.301   5.398  16.218 -2.4415 -1.2256 -0.4741
   6723SM  C13S 8689   3.243   5.557  16.072 -0.0900  0.2069  0.2243
   6723SM  H13S 8690   3.348   5.587  16.053 -0.0898  1.1115  1.5384
   6723SM  H13T 8691   3.190   5.652  16.091 -0.0227  0.0715  1.1619
   6723SM  C14S 8692   3.189   5.482  15.952  0.0465 -0.6217  0.0842
   6723SM  H14S 8693   3.101   5.425  15.988 -0.7128  0.4254 -0.0704
   6723SM  H14T 8694   3.267   5.415  15.910  0.1455 -0.1426 -0.5208
   6723SM  C15S 8695   3.148   5.588  15.853  0.3021 -0.4310 -0.1357
   6723SM  H15S 8696   3.234   5.651  15.821  0.0043  0.5105  0.8720
   6723SM  H15T 8697   3.079   5.657  15.906  0.3155 -0.0889 -0.5593
   6723SM  C16S 8698   3.073   5.546  15.721 -0.5596  0.2804 -0.0375
   6723SM  H16S 8699   2.986   5.485  15.755  0.4408 -1.3175 -0.2629
   6723SM  H16T 8700   3.140   5.476  15.667 -1.4211 -1.6405  1.2538
   6723SM  C17S 8701   3.019   5.654  15.628 -0.3957  0.2980  0.3833
   6723SM  H17S 8702   3.104   5.723  15.608 -0.9685  1.5790  2.1144
   6723SM  H17T 8703   2.938   5.712  15.677 -2.8041 -1.4403 -1.3191
   6723SM  C18S 8704   2.978   5.596  15.498 -0.2377  0.4501 -0.0087
   6723SM  H18S 8705   3.063   5.553  15.440  0.5916 -0.2433  1.6477
   6723SM  H18T 8706   2.926   5.668  15.431  1.2740 -0.4393 -2.2616
   6723SM  H18U 8707   2.901   5.519  15.515 -0.1600  0.7369  1.7529
   6723SM   C1F 8708   3.600   5.985  16.899 -0.1878  1.3110 -0.6285
   6723SM    OF 8709   3.720   6.007  16.919  0.3655 -0.1244  0.0945
   6723SM   C2F 8710   3.545   6.022  16.767  0.4250  0.3699 -0.3224
   6723SM   H2F 8711   3.532   6.133  16.764  0.1743  0.3599  0.2990
   6723SM   H2G 8712   3.451   5.966  16.751  0.5058  0.8197 -2.7126
   6723SM   C3F 8713   3.628   5.977  16.651  0.3443  0.0006  0.4975
   6723SM   H3F 8714   3.645   5.868  16.662 -0.1951 -0.0911  0.4195
   6723SM   H3G 8715   3.731   6.020  16.653  0.7446 -0.9462  1.0069
   6723SM   C4F 8716   3.550   6.015  16.522  0.1940  0.4189 -0.0984
   6723SM   H4F 8717   3.536   6.125  16.507 -0.6894  0.9847  3.8226
   6723SM   H4G 8718   3.451   5.965  16.525  1.3180 -1.9682 -0.8456
   6723SM   C5F 8719   3.623   5.961  16.398  0.2239  0.1889 -0.1322
   6723SM   H5F 8720   3.632   5.851  16.408 -2.6509  0.0164  1.7520
   6723SM   H5G 8721   3.720   6.015  16.404  0.4029  0.3751 -3.1943
   6723SM   C6F 8722   3.557   5.991  16.267 -0.2178  0.2456 -0.0018
   6723SM   H6F 8723   3.601   6.085  16.227  0.9417  0.2876  1.3228
   6723SM   H6G 8724   3.446   5.999  16.264 -0.2295 -0.0673 -0.3841
   6723SM   C7F 8725   3.592   5.881  16.163 -0.3014  0.6569 -0.6850
   6723SM   H7F 8726   3.549   5.783  16.194  0.3566 -0.0599 -1.9492
   6723SM   H7G 8727   3.702   5.869  16.152 -0.3899 -0.6546 -0.2831
   6723SM   C8F 8728   3.549   5.922  16.025  0.0386  0.3489  0.4746
   6723SM   H8F 8729   3.614   6.006  15.993 -0.7622  1.4902  1.7177
   6723SM   H8G 8730   3.441   5.944  16.024 -0.2734 -1.0331  0.6287
   6723SM   C9F 8731   3.564   5.812  15.918 -0.1719 -0.2591 -0.3165
   6723SM   H9F 8732   3.519   5.719  15.957 -0.1483  0.7806  2.3718
   6723SM   H9G 8733   3.673   5.791  15.908 -0.4508 -1.5534 -0.9179
   6723SM  C10F 8734   3.520   5.853  15.781 -0.0438 -0.2404  0.7965
   6723SM  H10F 8735   3.582   5.937  15.745 -1.7696  1.2985  1.2374
   6723SM  H10G 8736   3.414   5.887  15.792  0.5443  2.2543 -0.5327
   6723SM  C11F 8737   3.530   5.731  15.687  0.0841  0.3378  0.1900
   6723SM  H11F 8738   3.470   5.651  15.736 -2.5379  2.5460  0.8218
   6723SM  H11G 8739   3.634   5.690  15.683 -0.9499 -2.9609  2.6091
   6723SM  C12F 8740   3.455   5.752  15.554  0.4615 -0.6682  1.3382
   6723SM  H12F 8741   3.491   5.840  15.496 -0.5340 -0.2661  1.3146
   6723SM  H12G 8742   3.349   5.776  15.577 -0.0597  0.1237 -1.5688
   6723SM  C13F 8743   3.444   5.622  15.472 -0.3018 -0.0141  0.6630
   6723SM  H13F 8744   3.405   5.544  15.541 -0.4758 -1.1107 -0.6348
   6723SM  H13G 8745   3.550   5.596  15.449 -0.5135 -1.1316  0.8783
   6723SM  C14F 8746   3.371   5.625  15.334 -0.5007 -0.3795 -1.0327
   6723SM  H14F 8747   3.409   5.714  15.280  0.4622  0.8670  1.5117
   6723SM  H14G 8748   3.261   5.635  15.348 -0.4543 -2.5305  1.8182
   6723SM  C15F 8749   3.392   5.498  15.247 -0.4365  0.0474 -0.1532
   6723SM  H15F 8750   3.497   5.510  15.214 -0.1782 -1.1589  0.1897
   6723SM  H15G 8751   3.346   5.522  15.148  0.2726 -0.3999 -0.5996
   6723SM  C16F 8752   3.372   5.364  15.305  0.2713  0.4147  0.1583
   6723SM  H16F 8753   3.267   5.346  15.337 -0.0835  0.8382 -0.7226
   6723SM  H16G 8754   3.439   5.364  15.393  2.3814  2.3323 -1.3284
   6723SM  C17F 8755   3.420   5.256  15.206  1.1619  0.6800 -0.2017
   6723SM  H17F 8756   3.531   5.256  15.192  0.9522 -0.7075 -2.3054
   6723SM  H17G 8757   3.372   5.276  15.108  4.0734  1.4639 -1.5825
   6723SM  C18F 8758   3.382   5.108  15.244 -0.1709 -0.6129  0.1016
   6723SM  H18F 8759   3.412   5.046  15.157  0.5359 -0.0593 -0.0616
   6723SM  H18G 8760   3.276   5.089  15.272 -0.1455 -0.7336  0.1191
   6723SM  C19F 8761   3.468   5.055  15.364  0.3319  0.1354 -0.6524
   6723SM  H19F 8762   3.419   5.113  15.445  0.7913  3.1926 -2.3712
   6723SM  H19G 8763   3.572   5.094  15.353  0.4372 -0.2063 -0.8618
   6723SM  C20F 8764   3.465   4.907  15.394  0.9165 -0.7417 -0.3262
   6723SM  H20F 8765   3.496   4.845  15.307 -0.7504 -0.8841 -0.8650
   6723SM  H20G 8766   3.360   4.879  15.417  0.5214  0.3451 -0.7402
   6723SM  C21F 8767   3.555   4.871  15.511  0.1937  0.3552 -0.3127
   6723SM  H21F 8768   3.532   4.911  15.612 -1.2056 -1.8906  0.3489
   6723SM  H21G 8769   3.659   4.901  15.489 -0.1814  0.3911 -2.1808
   6723SM  C22F 8770   3.564   4.718  15.546 -0.0851  0.2299 -1.1779
   6723SM  H22F 8771   3.639   4.728  15.628  1.0630  1.4393 -2.3106
   6723SM  H22G 8772   3.614   4.646  15.479  1.3333 -0.1082  0.1706
   6723SM  C23F 8773   3.433   4.656  15.588 -0.0096  0.5309  0.5705
   6723SM  H23F 8774   3.390   4.715  15.672  1.3402  1.2958  0.7659
   6723SM  H23G 8775   3.433   4.549  15.617  0.8139  0.2569 -0.3853
   6723SM  H23H 8776   3.366   4.666  15.501 -0.7322 -1.6654  0.8287
   6823SM     N 8777   3.049   1.689  17.855  0.2222  0.3770 -0.1100
   6823SM   C15 8778   2.978   1.762  17.961  0.6086 -0.0389 -0.1346
   6823SM  H15A 8779   3.035   1.850  17.991 -0.4883  0.2897  1.0747
   6823SM  H15B 8780   2.958   1.701  18.048  2.3345  1.2032  1.2299
   6823SM  H15C 8781   2.881   1.799  17.933  0.7753  1.6928  1.3214
   6823SM   C14 8782   3.175   1.625  17.916  0.6288 -0.7055  0.9953
   6823SM  H14A 8783   3.142   1.557  17.992 -1.6845 -0.3597  0.3732
   6823SM  H14B 8784   3.255   1.686  17.955  0.7568  0.3297 -0.7604
   6823SM  H14C 8785   3.225   1.567  17.839  1.0649 -0.3909  1.0357
   6823SM   C13 8786   2.958   1.583  17.811 -0.3436  0.3815 -0.2951
   6823SM  H13A 8787   2.995   1.511  17.740 -0.6984  0.0683 -0.1671
   6823SM  H13B 8788   2.877   1.629  17.756 -0.3195 -0.6530 -1.2249
   6823SM  H13C 8789   2.911   1.533  17.894  0.4361 -2.2229 -1.3348
   6823SM   C12 8790   3.099   1.792  17.747 -0.0485  0.2798  0.1495
   6823SM  H12A 8791   3.177   1.747  17.687 -0.4291 -0.2777  0.0611
   6823SM  H12B 8792   3.153   1.864  17.806 -2.6578  0.9251  1.9418
   6823SM   C11 8793   3.000   1.866  17.651 -0.5622  0.9917 -0.4548
   6823SM  H11A 8794   3.044   1.956  17.604  0.2238  1.1690  0.5841
   6823SM  H11B 8795   2.916   1.907  17.712 -1.9730 -1.0798 -0.9174
   6823SM     P 8796   3.035   1.744  17.415 -0.1533 -0.7029 -0.1687
   6823SM   O13 8797   3.162   1.676  17.452  0.3349 -0.2038  0.2908
   6823SM   O14 8798   2.949   1.675  17.317 -0.2100 -0.1607  0.7375
   6823SM   O11 8799   3.079   1.890  17.360 -0.2496 -0.1593  0.1629
   6823SM   O12 8800   2.957   1.771  17.551  0.5959 -0.1051  0.2966
   6823SM   C1S 8801   3.163   1.896  17.252 -0.4123  0.2521 -0.2175
   6823SM   H1S 8802   3.251   1.830  17.260  0.4711  1.4993  0.8132
   6823SM   H1T 8803   3.207   1.998  17.250  0.9283 -0.3196 -1.1435
   6823SM    NF 8804   3.203   1.871  17.009 -0.2024  0.0191 -0.5242
   6823SM   HNF 8805   3.194   1.947  16.944  0.0121 -0.4303 -1.0860
   6823SM   C2S 8806   3.099   1.867  17.111  0.4516 -0.1036 -0.4903
   6823SM   H2S 8807   3.057   1.764  17.120 -1.5516  0.8455  3.8771
   6823SM   C3S 8808   2.985   1.968  17.086  0.3495 -0.8752 -0.2523
   6823SM   H3S 8809   3.030   2.069  17.075  0.5222 -0.6487  2.0421
   6823SM    O3 8810   2.897   1.976  17.200 -0.2765 -0.0817  0.2671
   6823SM   HO3 8811   2.941   1.914  17.259 -0.7533  0.5150  1.2970
   6823SM   C4S 8812   2.913   1.935  16.964 -0.7835  0.0328  0.0727
   6823SM   H4S 8813   2.953   1.987  16.875 -1.2878  1.8832  0.8665
   6823SM   C5S 8814   2.804   1.870  16.938  0.8327 -0.3011 -0.0881
   6823SM   H5S 8815   2.747   1.829  17.024 -0.7720  2.1614  0.1121
   6823SM   C6S 8816   2.742   1.861  16.807 -0.5836  0.2244 -0.5707
   6823SM   H6S 8817   2.776   1.936  16.733 -0.8690 -1.3432 -2.3543
   6823SM   H6T 8818   2.633   1.881  16.821 -0.0599  1.5246  2.5057
   6823SM   C7S 8819   2.764   1.728  16.740  0.7885 -0.0780  0.5853
   6823SM   H7S 8820   2.717   1.742  16.640  1.0382  0.8004  0.5775
   6823SM   H7T 8821   2.710   1.648  16.793  1.0143 -1.1378 -0.7255
   6823SM   C8S 8822   2.910   1.694  16.728 -1.1062  0.1469  0.5449
   6823SM   H8S 8823   2.960   1.698  16.827  0.5799 -3.8309  0.0299
   6823SM   H8T 8824   2.966   1.774  16.674  0.7010 -1.2726  0.2154
   6823SM   C9S 8825   2.947   1.554  16.678  0.3480 -0.1500 -0.5635
   6823SM   H9S 8826   3.050   1.526  16.711 -0.6479 -0.4933  2.6127
   6823SM   H9T 8827   2.919   1.553  16.571 -1.4261  1.5860 -0.1752
   6823SM  C10S 8828   2.871   1.435  16.740 -0.2628 -0.1381 -0.1041
   6823SM  H10S 8829   2.783   1.413  16.676  1.1543 -2.8973 -1.2752
   6823SM  H10T 8830   2.848   1.458  16.846  1.1340 -0.4790  0.2973
   6823SM  C11S 8831   2.958   1.311  16.734 -0.0270  0.1780 -0.2765
   6823SM  H11S 8832   2.913   1.222  16.784  1.5284 -1.0801 -0.9983
   6823SM  H11T 8833   3.051   1.332  16.792 -0.8868  2.4096  0.4002
   6823SM  C12S 8834   3.005   1.262  16.599 -0.2671 -0.3157  0.2607
   6823SM  H12S 8835   3.081   1.181  16.609  1.0466  0.8522 -0.0064
   6823SM  H12T 8836   3.071   1.339  16.555  0.1203 -0.2388  0.9584
   6823SM  C13S 8837   2.903   1.245  16.482  0.7844  0.0028  0.4008
   6823SM  H13S 8838   2.864   1.345  16.452  0.5553  0.1580  1.1888
   6823SM  H13T 8839   2.825   1.176  16.521  1.4459 -0.4574  0.9354
   6823SM  C14S 8840   2.974   1.194  16.359  0.4420  0.4183  0.2161
   6823SM  H14S 8841   2.999   1.090  16.390 -1.1551  0.7272  2.9049
   6823SM  H14T 8842   3.072   1.243  16.343  0.0461  1.2450  0.2606
   6823SM  C15S 8843   2.883   1.199  16.233  0.1782 -0.5563  0.0664
   6823SM  H15S 8844   2.851   1.306  16.233  1.7591 -0.0478  0.6895
   6823SM  H15T 8845   2.787   1.143  16.236 -1.4797  2.1095  0.6999
   6823SM  C16S 8846   2.969   1.161  16.110  0.6445 -0.4217  0.3654
   6823SM  H16S 8847   3.007   1.057  16.117  1.9589  0.0841  1.2355
   6823SM  H16T 8848   3.057   1.229  16.107  0.3582 -0.0438  0.4823
   6823SM  C17S 8849   2.885   1.172  15.983  0.0366  0.8002  0.2558
   6823SM  H17S 8850   2.860   1.276  15.951 -0.9309  0.2515 -0.8665
   6823SM  H17T 8851   2.786   1.125  16.001 -0.2106  1.7070  1.3164
   6823SM  C18S 8852   2.962   1.102  15.863 -0.2019  0.2027  0.1729
   6823SM  H18S 8853   3.007   1.004  15.887 -0.9757 -0.3368 -0.5221
   6823SM  H18T 8854   3.045   1.168  15.828 -1.6247  0.5505 -2.9247
   6823SM  H18U 8855   2.885   1.091  15.784  1.2011  1.1776 -1.4018
   6823SM   C1F 8856   3.296   1.774  17.003 -0.1481  0.5809  0.4484
   6823SM    OF 8857   3.280   1.678  17.077  0.1873 -0.0263  0.2446
   6823SM   C2F 8858   3.407   1.784  16.909  0.8072  0.4360 -0.5250
   6823SM   H2F 8859   3.495   1.801  16.975 -0.4489 -1.0543  1.6608
   6823SM   H2G 8860   3.379   1.874  16.851 -1.4487  3.0901  4.1250
   6823SM   C3F 8861   3.430   1.665  16.810  0.0212 -0.2120  0.4288
   6823SM   H3F 8862   3.458   1.571  16.863  0.7589 -0.6275 -0.6772
   6823SM   H3G 8863   3.513   1.684  16.739  0.1642  0.3418  0.7389
   6823SM   C4F 8864   3.300   1.637  16.730 -0.0179 -0.2117 -0.0182
   6823SM   H4F 8865   3.247   1.734  16.716 -1.4633 -0.9257  0.2843
   6823SM   H4G 8866   3.233   1.574  16.793  1.0303 -0.7480  0.5827
   6823SM   C5F 8867   3.327   1.572  16.596  0.5985  0.1323  0.7255
   6823SM   H5F 8868   3.228   1.540  16.558  1.6910 -0.9885 -1.3992
   6823SM   H5G 8869   3.390   1.480  16.593  1.9553  0.9511 -3.5761
   6823SM   C6F 8870   3.383   1.667  16.486  0.1146  0.1751  0.6177
   6823SM   H6F 8871   3.484   1.699  16.521  0.7411 -0.8067 -0.2224
   6823SM   H6G 8872   3.312   1.750  16.466 -1.0176 -0.5075  1.6454
   6823SM   C7F 8873   3.426   1.594  16.349  0.7336  0.1784  0.3017
   6823SM   H7F 8874   3.343   1.531  16.308  1.5072 -0.8496  0.2683
   6823SM   H7G 8875   3.500   1.514  16.371  0.3053  0.3551  2.5959
   6823SM   C8F 8876   3.476   1.686  16.246 -0.6997 -0.1241  0.3897
   6823SM   H8F 8877   3.465   1.788  16.288 -0.1043 -0.6223  1.8476
   6823SM   H8G 8878   3.415   1.688  16.153  0.6942 -1.0533 -0.5904
   6823SM   C9F 8879   3.630   1.662  16.212  0.3696  0.3665 -0.2525
   6823SM   H9F 8880   3.637   1.552  16.200  0.4629  0.1413  1.5464
   6823SM   H9G 8881   3.683   1.696  16.304  0.2387  0.9851 -0.4013
   6823SM  C10F 8882   3.694   1.731  16.092  0.2316 -0.2815  0.4871
   6823SM  H10F 8883   3.799   1.707  16.067  0.1378  0.4680 -0.7282
   6823SM  H10G 8884   3.688   1.841  16.111  1.3121 -0.4044  1.6593
   6823SM  C11F 8885   3.609   1.717  15.960 -0.1717  0.7053  0.2954
   6823SM  H11F 8886   3.498   1.727  15.965 -0.2091  0.0244  1.1282
   6823SM  H11G 8887   3.633   1.619  15.913 -0.6253  0.4710  0.5473
   6823SM  C12F 8888   3.650   1.816  15.850 -0.0880 -0.3485 -0.5295
   6823SM  H12F 8889   3.760   1.814  15.834 -0.2665  0.7297 -2.0514
   6823SM  H12G 8890   3.623   1.917  15.890  0.8454 -0.5643  0.6943
   6823SM  C13F 8891   3.585   1.797  15.714  0.5808 -0.0406  0.0492
   6823SM  H13F 8892   3.574   1.892  15.658 -1.1828 -0.5545 -0.5754
   6823SM  H13G 8893   3.480   1.761  15.727  0.7326 -0.5574 -0.1310
   6823SM  C14F 8894   3.649   1.692  15.625  0.2773 -0.1890 -0.9521
   6823SM  H14F 8895   3.677   1.602  15.684 -0.2411  0.1390 -0.1901
   6823SM  H14G 8896   3.746   1.739  15.599  0.6414 -0.7933 -0.7080
   6823SM  C15F 8897   3.566   1.653  15.500 -0.0252  0.0083  0.2099
   6823SM  H15F 8898   3.517   1.741  15.454 -1.8809 -0.5382  1.0282
   6823SM  H15G 8899   3.487   1.585  15.540 -0.0778  0.0367  0.1555
   6823SM  C16F 8900   3.658   1.564  15.391 -0.0850 -0.0923  0.0157
   6823SM  H16F 8901   3.693   1.477  15.449  2.8436  0.2204 -1.1144
   6823SM  H16G 8902   3.739   1.640  15.381 -1.0229  0.7827 -1.3254
   6823SM  C17F 8903   3.599   1.526  15.255 -0.6111 -0.3849  0.0637
   6823SM  H17F 8904   3.677   1.497  15.181  0.3320  2.2416 -0.0675
   6823SM  H17G 8905   3.546   1.609  15.204  1.8762  0.0647 -2.0235
   6823SM  C18F 8906   3.510   1.396  15.273 -0.1399 -0.0248 -0.4826
   6823SM  H18F 8907   3.409   1.412  15.315 -0.1319 -0.7834 -0.1674
   6823SM  H18G 8908   3.567   1.331  15.342  1.7998  1.8650 -0.2171
   6823SM  C19F 8909   3.495   1.324  15.139  0.2130 -0.0572  0.0284
   6823SM  H19F 8910   3.423   1.241  15.158  0.5449 -0.1846  0.7429
   6823SM  H19G 8911   3.592   1.277  15.114  0.3567 -0.1391  0.7164
   6823SM  C20F 8912   3.444   1.402  15.021  0.6892 -0.6578  0.0049
   6823SM  H20F 8913   3.535   1.448  14.976  1.1730 -2.5101 -1.0575
   6823SM  H20G 8914   3.361   1.472  15.045  1.0497 -0.5658  1.0344
   6823SM  C21F 8915   3.387   1.305  14.914  0.4439 -0.4031 -0.4215
   6823SM  H21F 8916   3.434   1.204  14.912 -1.1612 -1.2923  1.7555
   6823SM  H21G 8917   3.382   1.338  14.809  0.6748 -3.5617 -1.5438
   6823SM  C22F 8918   3.239   1.274  14.956  0.4845  0.9394 -0.2723
   6823SM  H22F 8919   3.179   1.367  14.961 -0.0364  0.7832 -2.4527
   6823SM  H22G 8920   3.232   1.230  15.058 -1.8318 -2.7584 -1.8284
   6823SM  C23F 8921   3.179   1.160  14.868  0.1796  0.2861 -0.1297
   6823SM  H23F 8922   3.240   1.067  14.870  2.4248  1.4279 -4.0428
   6823SM  H23G 8923   3.185   1.185  14.760  1.3697 -0.4932 -0.2602
   6823SM  H23H 8924   3.072   1.141  14.890  0.1005  0.5907 -0.2469
   6923SM     N 8925   5.767   2.370  17.754 -0.1365  0.2394 -0.1460
   6923SM   C15 8926   5.791   2.227  17.755  0.5868 -0.3650  0.2958
   6923SM  H15A 8927   5.883   2.205  17.704  0.4945 -1.5006  0.5948
   6923SM  H15B 8928   5.715   2.181  17.694  0.0574 -0.9019  1.3343
   6923SM  H15C 8929   5.785   2.192  17.857  2.3774  2.3925  1.4693
   6923SM   C14 8930   5.638   2.393  17.817 -0.3068 -0.2857 -0.0142
   6923SM  H14A 8931   5.644   2.346  17.914  0.5043 -0.3921 -0.1102
   6923SM  H14B 8932   5.556   2.349  17.763 -3.0302  2.7502  1.3488
   6923SM  H14C 8933   5.608   2.495  17.833  0.5587 -0.2905  1.8755
   6923SM   C13 8934   5.872   2.439  17.845  0.1582  0.6953  0.4401
   6923SM  H13A 8935   5.897   2.377  17.930 -2.0452 -2.6428 -1.1276
   6923SM  H13B 8936   5.826   2.529  17.883 -0.4748 -0.7012  3.1736
   6923SM  H13C 8937   5.965   2.448  17.791 -0.1868 -2.2791 -0.8477
   6923SM   C12 8938   5.773   2.436  17.611 -0.1078  0.2659  0.0252
   6923SM  H12A 8939   5.877   2.423  17.585  0.3911  0.3234  1.8290
   6923SM  H12B 8940   5.753   2.540  17.631  1.3945  0.4590  0.7120
   6923SM   C11 8941   5.674   2.386  17.499 -0.4292  0.8947 -0.2178
   6923SM  H11A 8942   5.687   2.276  17.498  0.3857  0.9718  0.5124
   6923SM  H11B 8943   5.706   2.426  17.400 -1.8713  0.6219 -0.8133
   6923SM     P 8944   5.439   2.489  17.446 -0.1673 -0.1590  0.1132
   6923SM   O13 8945   5.306   2.418  17.449 -0.1118 -0.3621  0.5051
   6923SM   O14 8946   5.442   2.632  17.482  0.1323  0.3113 -0.2242
   6923SM   O11 8947   5.496   2.477  17.303 -0.4726  0.0420 -0.6023
   6923SM   O12 8948   5.538   2.408  17.541 -0.3420 -0.2656 -0.1956
   6923SM   C1S 8949   5.452   2.380  17.208 -0.1528 -0.2418  0.4839
   6923SM   H1S 8950   5.341   2.379  17.205 -0.1437 -1.4436 -2.0356
   6923SM   H1T 8951   5.482   2.277  17.238  1.4124 -0.1401 -0.6198
   6923SM    NF 8952   5.432   2.352  16.960 -0.2742 -0.0424  0.3823
   6923SM   HNF 8953   5.469   2.260  16.950 -0.9386 -0.1804 -1.2119
   6923SM   C2S 8954   5.509   2.416  17.065 -0.4465 -0.7236 -1.0350
   6923SM   H2S 8955   5.519   2.526  17.054 -0.8424 -0.7266 -1.4186
   6923SM   C3S 8956   5.659   2.370  17.061 -0.3492  0.5269 -0.0274
   6923SM   H3S 8957   5.672   2.267  17.101  1.6756  0.4889 -0.6815
   6923SM    O3 8958   5.735   2.460  17.151  0.2338 -0.3915  0.8794
   6923SM   HO3 8959   5.664   2.497  17.203  0.4427  0.9926  0.2264
   6923SM   C4S 8960   5.719   2.367  16.922 -0.5000 -0.3504 -0.1953
   6923SM   H4S 8961   5.729   2.467  16.879  0.3158 -0.8911 -1.3250
   6923SM   C5S 8962   5.748   2.258  16.860  0.4342 -0.1293 -0.2541
   6923SM   H5S 8963   5.737   2.159  16.906  0.7483 -0.3961 -0.7387
   6923SM   C6S 8964   5.794   2.256  16.722 -1.0182 -0.4926  0.1449
   6923SM   H6S 8965   5.891   2.205  16.703  1.0218  2.6179  1.3603
   6923SM   H6T 8966   5.801   2.360  16.681 -2.3003 -1.1218 -1.7950
   6923SM   C7S 8967   5.686   2.180  16.637 -0.4406  0.3325  0.0878
   6923SM   H7S 8968   5.591   2.237  16.631  1.0762  2.9191 -0.9296
   6923SM   H7T 8969   5.665   2.082  16.685 -0.3590 -0.0875 -0.7219
   6923SM   C8S 8970   5.740   2.144  16.501 -0.3805  0.6114  0.4162
   6923SM   H8S 8971   5.812   2.060  16.499 -1.7702 -0.5979 -0.3296
   6923SM   H8T 8972   5.810   2.223  16.466  1.9308 -1.2388  0.6127
   6923SM   C9S 8973   5.625   2.123  16.398 -0.4507  0.1920 -0.0342
   6923SM   H9S 8974   5.563   2.214  16.382 -1.0762 -0.4777 -1.5406
   6923SM   H9T 8975   5.564   2.037  16.431  0.3992 -0.5826 -0.4456
   6923SM  C10S 8976   5.689   2.084  16.265  0.0728 -0.0889 -0.7858
   6923SM  H10S 8977   5.722   1.977  16.272 -0.9830 -0.4372 -1.0065
   6923SM  H10T 8978   5.770   2.156  16.241  1.2723 -1.3829 -0.8001
   6923SM  C11S 8979   5.592   2.081  16.145  0.2144 -0.2251  0.6596
   6923SM  H11S 8980   5.554   2.179  16.109 -1.1128 -0.0177  2.4493
   6923SM  H11T 8981   5.501   2.017  16.159  0.1280 -0.0632  0.8472
   6923SM  C12S 8982   5.670   2.030  16.013  0.4207  0.1098 -0.6241
   6923SM  H12S 8983   5.693   1.924  16.038 -0.2104  0.1083 -0.0147
   6923SM  H12T 8984   5.762   2.093  16.008  0.6564 -0.1907 -0.2068
   6923SM  C13S 8985   5.581   2.044  15.892 -0.1010 -0.3731 -0.0146
   6923SM  H13S 8986   5.568   2.150  15.861  1.0989 -0.5448 -1.1776
   6923SM  H13T 8987   5.488   1.992  15.924  0.8341 -0.8458  2.1564
   6923SM  C14S 8988   5.623   1.965  15.767  0.9432  0.5399 -0.3889
   6923SM  H14S 8989   5.557   1.996  15.683  1.1758 -0.1124 -0.8174
   6923SM  H14T 8990   5.611   1.856  15.787 -2.3497  1.1715  2.0361
   6923SM  C15S 8991   5.760   2.016  15.720 -0.0379  0.6943 -0.6415
   6923SM  H15S 8992   5.829   2.016  15.807 -1.3597  2.0472  0.4553
   6923SM  H15T 8993   5.742   2.123  15.694 -1.0714  1.6552  3.2932
   6923SM  C16S 8994   5.804   1.928  15.602  0.0736  0.1108  0.3303
   6923SM  H16S 8995   5.722   1.928  15.527  0.0140  0.3483  0.3939
   6923SM  H16T 8996   5.827   1.825  15.636 -0.6302 -0.6063 -1.2279
   6923SM  C17S 8997   5.930   1.988  15.546 -0.0997 -1.1303  0.1181
   6923SM  H17S 8998   5.996   2.003  15.634 -1.2852 -2.8221  1.3504
   6923SM  H17T 8999   5.914   2.093  15.512 -1.6687 -1.0632  1.0201
   6923SM  C18S 9000   6.003   1.900  15.445 -0.3009  0.7319 -0.2985
   6923SM  H18S 9001   5.949   1.896  15.348  0.8748  1.7151 -1.0352
   6923SM  H18T 9002   6.033   1.801  15.486 -4.0658 -0.4986 -0.2155
   6923SM  H18U 9003   6.100   1.956  15.447 -0.1089  0.4510 -1.0879
   6923SM   C1F 9004   5.311   2.395  16.921 -0.1349 -0.3788  0.1314
   6923SM    OF 9005   5.261   2.494  16.974  0.5140 -0.1347 -0.7647
   6923SM   C2F 9006   5.247   2.316  16.811 -0.2884  0.4399 -0.3820
   6923SM   H2F 9007   5.140   2.290  16.822  0.0660 -0.2761  1.7011
   6923SM   H2G 9008   5.297   2.219  16.794 -2.3074 -0.4172 -1.7828
   6923SM   C3F 9009   5.245   2.398  16.680  0.6145  0.4013 -0.1959
   6923SM   H3F 9010   5.341   2.445  16.649  0.0388  1.2992 -0.6417
   6923SM   H3G 9011   5.166   2.474  16.695  0.5907  0.7334 -1.8389
   6923SM   C4F 9012   5.201   2.299  16.570 -0.3570  0.2892 -0.0795
   6923SM   H4F 9013   5.108   2.242  16.594  1.0479 -1.6361  1.1351
   6923SM   H4G 9014   5.278   2.220  16.559 -1.9742 -1.4280  0.2845
   6923SM   C5F 9015   5.181   2.375  16.445  0.2330 -0.0654 -0.0271
   6923SM   H5F 9016   5.198   2.483  16.466 -0.7662 -0.0125  0.5633
   6923SM   H5G 9017   5.076   2.368  16.408  0.7919  0.5505 -1.8487
   6923SM   C6F 9018   5.274   2.334  16.337 -0.5421 -0.1211  0.4108
   6923SM   H6F 9019   5.266   2.224  16.321  0.1157 -0.2213  0.7747
   6923SM   H6G 9020   5.380   2.356  16.358  0.3778 -1.8253 -1.9795
   6923SM   C7F 9021   5.240   2.388  16.199  0.9576 -0.6331  0.4532
   6923SM   H7F 9022   5.336   2.383  16.143  1.2903 -0.0819  0.9673
   6923SM   H7G 9023   5.201   2.491  16.208 -1.0043 -1.4472  2.1006
   6923SM   C8F 9024   5.141   2.299  16.125  0.4834 -0.1024 -0.1851
   6923SM   H8F 9025   5.043   2.305  16.177 -0.3151  0.3393 -1.6816
   6923SM   H8G 9026   5.172   2.192  16.127 -1.1321 -0.6514  3.5670
   6923SM   C9F 9027   5.116   2.344  15.983 -0.4526 -0.4899  0.1408
   6923SM   H9F 9028   5.111   2.454  15.994 -0.0662 -0.5124  0.5507
   6923SM   H9G 9029   5.022   2.303  15.941 -0.1984  0.7415 -1.7353
   6923SM  C10F 9030   5.237   2.313  15.892  0.0700  0.5620 -0.8322
   6923SM  H10F 9031   5.270   2.209  15.914 -2.3709 -0.4464 -1.6030
   6923SM  H10G 9032   5.320   2.386  15.899 -1.1263  2.0559 -1.6523
   6923SM  C11F 9033   5.195   2.317  15.744 -0.7937  0.4132 -0.7363
   6923SM  H11F 9034   5.160   2.421  15.726 -0.8191  0.3941 -0.7976
   6923SM  H11G 9035   5.100   2.259  15.738 -2.1078  2.3052  0.4213
   6923SM  C12F 9036   5.298   2.255  15.648  0.4407  0.6088  0.5264
   6923SM  H12F 9037   5.242   2.250  15.552 -1.2815  0.1255  1.5138
   6923SM  H12G 9038   5.319   2.152  15.683 -1.1967  0.8134  2.2376
   6923SM  C13F 9039   5.427   2.340  15.635  0.1343  0.1050 -0.3449
   6923SM  H13F 9040   5.485   2.331  15.729 -0.7924 -1.0572  0.1337
   6923SM  H13G 9041   5.410   2.450  15.626 -0.7866 -0.0678 -0.9020
   6923SM  C14F 9042   5.513   2.301  15.518 -0.2740  0.5658  0.0366
   6923SM  H14F 9043   5.443   2.260  15.442  0.3181  0.2307 -0.3324
   6923SM  H14G 9044   5.574   2.212  15.544 -0.9722  0.8427  3.0361
   6923SM  C15F 9045   5.599   2.411  15.452 -0.1918 -0.6193 -0.0881
   6923SM  H15F 9046   5.661   2.460  15.531 -1.1609 -1.0958  0.9900
   6923SM  H15G 9047   5.533   2.492  15.413  1.3615  0.6673 -0.2067
   6923SM  C16F 9048   5.689   2.365  15.335 -0.6315  0.0949 -0.0107
   6923SM  H16F 9049   5.770   2.300  15.373  0.8441  1.2348 -1.1141
   6923SM  H16G 9050   5.738   2.457  15.299  0.7990 -0.9294 -0.7843
   6923SM  C17F 9051   5.617   2.301  15.216  0.1246  0.0581  0.5594
   6923SM  H17F 9052   5.549   2.378  15.174  0.9973  0.5716  0.0526
   6923SM  H17G 9053   5.560   2.209  15.242  0.3301 -0.7979 -1.7420
   6923SM  C18F 9054   5.710   2.263  15.100 -0.2193  0.2112 -0.1348
   6923SM  H18F 9055   5.767   2.174  15.133 -0.8309  0.2855  1.1877
   6923SM  H18G 9056   5.790   2.337  15.078  0.2248  0.2379  1.4800
   6923SM  C19F 9057   5.626   2.220  14.977 -0.8239 -1.0399 -0.3503
   6923SM  H19F 9058   5.559   2.304  14.949 -1.6432 -2.5304 -3.2859
   6923SM  H19G 9059   5.558   2.136  15.003 -1.3962 -0.7258 -0.7966
   6923SM  C20F 9060   5.711   2.188  14.848  0.1797  0.2991  0.6961
   6923SM  H20F 9061   5.791   2.119  14.883 -1.4173 -1.4164  1.1184
   6923SM  H20G 9062   5.756   2.276  14.797 -0.0189 -0.4925 -0.9147
   6923SM  C21F 9063   5.640   2.119  14.729  0.8490  0.2432 -0.2212
   6923SM  H21F 9064   5.544   2.173  14.712  1.2747  0.9520 -0.4193
   6923SM  H21G 9065   5.620   2.018  14.770 -1.8279  1.0326  0.6157
   6923SM  C22F 9066   5.738   2.110  14.605  0.6759  0.9075  0.0393
   6923SM  H22F 9067   5.821   2.046  14.642 -0.9782 -1.0154  0.6113
   6923SM  H22G 9068   5.785   2.203  14.565  0.2073  1.0926 -0.0901
   6923SM  C23F 9069   5.682   2.032  14.488 -0.1299 -0.7619 -0.0586
   6923SM  H23F 9070   5.750   2.048  14.402 -0.8114 -0.7073 -0.5936
   6923SM  H23G 9071   5.575   2.057  14.469 -0.0897  3.5790  3.7348
   6923SM  H23H 9072   5.693   1.924  14.513  2.5455 -1.2949 -2.8571
   7023SM     N 9073   5.118   1.807  17.729  0.3717 -0.0302  0.3104
   7023SM   C15 9074   5.134   1.957  17.718 -0.1255 -0.0644  0.1792
   7023SM  H15A 9075   5.087   2.013  17.797  1.1300  1.1403  0.1193
   7023SM  H15B 9076   5.101   1.981  17.618 -2.8272  1.8062  1.3952
   7023SM  H15C 9077   5.236   1.992  17.714  0.5815 -2.0559 -0.1894
   7023SM   C14 9078   5.155   1.763  17.868  0.0787  0.7246 -0.5021
   7023SM  H14A 9079   5.096   1.679  17.903 -0.6603  2.2758  2.3048
   7023SM  H14B 9080   5.157   1.842  17.942  1.4176  0.8382 -0.6351
   7023SM  H14C 9081   5.260   1.737  17.871 -0.6268 -2.7711 -1.1652
   7023SM   C13 9082   4.977   1.772  17.711 -0.0541 -0.0527  0.3759
   7023SM  H13A 9083   4.953   1.668  17.726  0.0911 -0.1635 -0.1394
   7023SM  H13B 9084   4.953   1.792  17.607  0.0687 -2.3416 -0.1326
   7023SM  H13C 9085   4.908   1.821  17.779 -0.1830 -1.0435  0.9788
   7023SM   C12 9086   5.210   1.731  17.631 -0.8910 -0.1031 -0.4104
   7023SM  H12A 9087   5.181   1.628  17.621 -1.9311  0.3473 -2.8796
   7023SM  H12B 9088   5.313   1.735  17.663 -1.4537 -1.1065  1.6720
   7023SM   C11 9089   5.207   1.787  17.483 -0.4330 -0.8079 -0.1921
   7023SM  H11A 9090   5.268   1.717  17.422 -2.5543 -3.4747  0.5699
   7023SM  H11B 9091   5.264   1.881  17.499  1.3223 -1.5472 -1.5956
   7023SM     P 9092   5.031   1.899  17.329  0.2776 -0.0641  0.1085
   7023SM   O13 9093   4.888   1.886  17.300 -0.0093 -0.2851  0.5709
   7023SM   O14 9094   5.065   2.032  17.378  0.1290  0.4069  0.0447
   7023SM   O11 9095   5.110   1.862  17.199 -0.2983  0.4018 -0.2670
   7023SM   O12 9096   5.075   1.784  17.424  0.1078  0.1219  0.0954
   7023SM   C1S 9097   5.106   1.731  17.139  0.4308  0.4288 -0.1261
   7023SM   H1S 9098   5.013   1.681  17.173 -0.7416 -0.4040 -4.0119
   7023SM   H1T 9099   5.194   1.669  17.167 -1.0322 -1.9866 -0.5143
   7023SM    NF 9100   5.033   1.621  16.936 -0.2346  0.0362  0.1158
   7023SM   HNF 9101   5.094   1.543  16.928 -1.8160 -1.4000  1.3275
   7023SM   C2S 9102   5.083   1.747  16.990  0.1593  0.1934  0.0470
   7023SM   H2S 9103   5.007   1.827  16.974  0.3875  0.6373  1.0580
   7023SM   C3S 9104   5.215   1.793  16.919 -0.2710 -0.8243 -0.2886
   7023SM   H3S 9105   5.309   1.733  16.920  2.6876  3.3851  0.3886
   7023SM    O3 9106   5.261   1.916  16.980  0.1895 -0.5485  0.2370
   7023SM   HO3 9107   5.200   1.918  17.054  2.0399 -0.6440  1.8640
   7023SM   C4S 9108   5.171   1.821  16.778 -0.5836 -0.0195 -0.6983
   7023SM   H4S 9109   5.076   1.876  16.768 -0.5726 -0.0065 -0.7324
   7023SM   C5S 9110   5.241   1.790  16.667 -0.2895  0.4863 -0.4972
   7023SM   H5S 9111   5.339   1.741  16.673  0.0087  1.2095  0.7196
   7023SM   C6S 9112   5.200   1.810  16.529  1.1245  0.1289  0.4357
   7023SM   H6S 9113   5.160   1.718  16.481 -2.6196  0.2655  2.9686
   7023SM   H6T 9114   5.289   1.841  16.470  1.9564 -0.2152  1.4703
   7023SM   C7S 9115   5.083   1.910  16.502  0.3133  0.6406 -0.6067
   7023SM   H7S 9116   5.107   2.014  16.533  2.3865  0.0047  0.0648
   7023SM   H7T 9117   4.997   1.892  16.571 -1.0807  2.3599 -1.7808
   7023SM   C8S 9118   5.028   1.900  16.355  1.1441 -0.1243 -0.3269
   7023SM   H8S 9119   4.964   1.987  16.333  0.1286 -0.6990  0.2911
   7023SM   H8T 9120   4.968   1.808  16.369  1.5019 -0.3333 -0.1385
   7023SM   C9S 9121   5.137   1.874  16.247 -0.1020  0.5683  0.6790
   7023SM   H9S 9122   5.178   1.772  16.261  2.4457  1.4153 -0.1139
   7023SM   H9T 9123   5.215   1.949  16.270  0.7750 -0.4496  1.1099
   7023SM  C10S 9124   5.072   1.897  16.106  0.1134 -0.2499  0.0052
   7023SM  H10S 9125   5.012   1.991  16.114 -0.4061 -0.5260 -0.6072
   7023SM  H10T 9126   5.007   1.809  16.089 -1.4604  1.0303 -0.9239
   7023SM  C11S 9127   5.184   1.919  16.000  0.4064 -1.1768  0.4088
   7023SM  H11S 9128   5.237   1.826  15.972  0.1874 -0.6591 -1.9522
   7023SM  H11T 9129   5.247   1.996  16.048  0.5443 -0.2575 -1.1819
   7023SM  C12S 9130   5.129   1.976  15.866  0.4023 -0.2484  0.2726
   7023SM  H12S 9131   5.213   2.024  15.810 -0.2702 -0.7697 -1.2469
   7023SM  H12T 9132   5.059   2.056  15.896  0.3306 -0.4880  0.7656
   7023SM  C13S 9133   5.059   1.879  15.773 -0.1426 -0.8217  0.2328
   7023SM  H13S 9134   4.974   1.831  15.827  0.6362  1.1287  3.5191
   7023SM  H13T 9135   5.126   1.801  15.733 -0.0560 -0.5989 -0.0597
   7023SM  C14S 9136   4.989   1.957  15.654 -0.0346  0.4342 -0.3772
   7023SM  H14S 9137   5.059   2.025  15.600  0.3930  1.8771  1.8601
   7023SM  H14T 9138   4.913   2.027  15.695 -1.1137 -1.6572  1.4388
   7023SM  C15S 9139   4.932   1.859  15.551 -0.1298  0.5594 -0.0129
   7023SM  H15S 9140   4.969   1.756  15.570 -0.6555  0.6672  1.7643
   7023SM  H15T 9141   4.963   1.902  15.454 -0.4420 -2.9537 -1.8201
   7023SM  C16S 9142   4.782   1.854  15.555  0.2595  0.4839  0.3634
   7023SM  H16S 9143   4.741   1.955  15.579 -0.5235  0.9911 -2.7312
   7023SM  H16T 9144   4.757   1.786  15.639 -1.6937 -0.2957 -0.7717
   7023SM  C17S 9145   4.707   1.798  15.428 -0.3066  0.5314  0.3810
   7023SM  H17S 9146   4.727   1.690  15.412  0.4699  0.0490  3.8328
   7023SM  H17T 9147   4.733   1.849  15.333 -0.4190  1.6441  0.9301
   7023SM  C18S 9148   4.561   1.799  15.452 -0.1130  0.7018 -0.3976
   7023SM  H18S 9149   4.528   1.905  15.464 -2.8248 -0.1505  0.4442
   7023SM  H18T 9150   4.547   1.741  15.546 -0.3003 -0.4956 -1.1596
   7023SM  H18U 9151   4.502   1.749  15.373 -0.6404  0.3330  0.2172
   7023SM   C1F 9152   4.905   1.585  16.945 -0.0326 -0.5370 -0.6427
   7023SM    OF 9153   4.823   1.661  16.999 -0.1419  0.9422 -0.0714
   7023SM   C2F 9154   4.871   1.453  16.888  1.4575  0.0074  0.0021
   7023SM   H2F 9155   4.765   1.431  16.912  1.4958  0.3999  0.5625
   7023SM   H2G 9156   4.931   1.368  16.925  1.5968 -0.2114 -0.7207
   7023SM   C3F 9157   4.893   1.464  16.731 -0.0193 -0.4974  0.6434
   7023SM   H3F 9158   4.854   1.372  16.683  0.6080 -0.9043  0.8890
   7023SM   H3G 9159   5.003   1.470  16.718 -0.0813 -0.0769  0.3145
   7023SM   C4F 9160   4.835   1.587  16.663 -0.2303  0.7511 -0.1769
   7023SM   H4F 9161   4.878   1.607  16.562  2.1552 -2.5366  0.0255
   7023SM   H4G 9162   4.876   1.679  16.710  1.4756  0.8844 -1.7845
   7023SM   C5F 9163   4.682   1.593  16.656 -0.2189 -0.5696  1.0428
   7023SM   H5F 9164   4.647   1.606  16.761  2.3180  1.4671  1.7381
   7023SM   H5G 9165   4.638   1.502  16.610 -0.2937 -0.1020  0.1766
   7023SM   C6F 9166   4.634   1.715  16.578 -0.0123 -0.2821  0.7807
   7023SM   H6F 9167   4.699   1.802  16.598 -0.2987  0.1782 -0.2351
   7023SM   H6G 9168   4.525   1.726  16.596 -0.3874  1.5142 -2.0063
   7023SM   C7F 9169   4.648   1.693  16.426 -1.2220 -0.6948 -0.1732
   7023SM   H7F 9170   4.740   1.632  16.412 -0.6988 -0.4936  1.9921
   7023SM   H7G 9171   4.643   1.790  16.372 -0.5828 -0.9333 -0.6846
   7023SM   C8F 9172   4.529   1.619  16.366  0.5560 -0.0822  0.6339
   7023SM   H8F 9173   4.440   1.685  16.371  0.6731  0.2433 -0.9070
   7023SM   H8G 9174   4.495   1.528  16.419 -2.8963  2.9936  4.2771
   7023SM   C9F 9175   4.557   1.588  16.218 -0.0194 -0.1625 -0.2740
   7023SM   H9F 9176   4.647   1.522  16.213  0.4916  0.6073 -1.6253
   7023SM   H9G 9177   4.580   1.688  16.174 -1.5107  0.6047  0.6080
   7023SM  C10F 9178   4.444   1.511  16.148  0.9748  0.2856  0.5631
   7023SM  H10F 9179   4.359   1.579  16.167  1.5299  1.0123  0.4976
   7023SM  H10G 9180   4.419   1.415  16.198  0.5892 -0.1856 -0.4995
   7023SM  C11F 9181   4.466   1.480  16.001  0.5287  0.6923 -0.3736
   7023SM  H11F 9182   4.558   1.417  16.002  1.7510  2.3866 -0.8014
   7023SM  H11G 9183   4.490   1.564  15.932 -0.3619  0.9624 -0.3645
   7023SM  C12F 9184   4.354   1.407  15.919  0.1231 -0.0393 -0.0374
   7023SM  H12F 9185   4.266   1.474  15.910  0.2837  0.5293  2.1205
   7023SM  H12G 9186   4.313   1.323  15.979  0.8970  0.0417  0.6201
   7023SM  C13F 9187   4.411   1.344  15.790  0.1402 -0.4894  0.3154
   7023SM  H13F 9188   4.334   1.268  15.768 -1.7106  1.0120  1.3627
   7023SM  H13G 9189   4.511   1.297  15.801  0.5246  0.3337  0.4472
   7023SM  C14F 9190   4.412   1.445  15.671 -0.8395  0.2841 -0.4697
   7023SM  H14F 9191   4.495   1.518  15.685  1.5031 -2.3042 -0.1504
   7023SM  H14G 9192   4.313   1.493  15.658 -1.1129  0.4806  1.8851
   7023SM  C15F 9193   4.440   1.370  15.543  0.2389 -0.6547 -0.2523
   7023SM  H15F 9194   4.355   1.308  15.506  0.1928 -0.5255 -0.3630
   7023SM  H15G 9195   4.533   1.309  15.550  2.1620  2.0520 -0.6419
   7023SM  C16F 9196   4.465   1.465  15.428 -0.5857 -0.3110  1.0211
   7023SM  H16F 9197   4.542   1.542  15.450 -0.4703 -0.2467  0.4091
   7023SM  H16G 9198   4.366   1.509  15.404 -1.8393 -1.0133  4.3246
   7023SM  C17F 9199   4.516   1.383  15.310  0.1357 -0.3838  0.4654
   7023SM  H17F 9200   4.458   1.288  15.310  1.0081 -0.9203 -0.1484
   7023SM  H17G 9201   4.622   1.353  15.316  0.2538 -0.3011 -0.9641
   7023SM  C18F 9202   4.502   1.467  15.176 -0.2494  0.1353 -0.2771
   7023SM  H18F 9203   4.565   1.557  15.194 -1.6241  1.5116 -2.0321
   7023SM  H18G 9204   4.394   1.486  15.158 -0.5743 -0.0979  1.2942
   7023SM  C19F 9205   4.567   1.399  15.054  0.3851  0.7390  0.0435
   7023SM  H19F 9206   4.670   1.357  15.061  1.0394  1.7941 -2.3575
   7023SM  H19G 9207   4.577   1.462  14.963  0.0035  0.0513 -0.4837
   7023SM  C20F 9208   4.469   1.285  15.007 -0.1229  0.2083 -0.3917
   7023SM  H20F 9209   4.399   1.314  14.926  0.6587 -1.6837 -1.8151
   7023SM  H20G 9210   4.395   1.253  15.084  0.0055  0.5939 -0.1067
   7023SM  C21F 9211   4.544   1.173  14.932 -0.2298 -0.2860 -0.8846
   7023SM  H21F 9212   4.625   1.141  15.001  1.0037  0.8618 -1.7491
   7023SM  H21G 9213   4.604   1.220  14.851  1.4493 -1.0695 -0.1427
   7023SM  C22F 9214   4.458   1.052  14.897  0.7318  0.3998  0.6596
   7023SM  H22F 9215   4.509   0.985  14.824 -1.4044  0.5287 -1.0500
   7023SM  H22G 9216   4.370   1.097  14.848  0.2499 -0.9241  0.2661
   7023SM  C23F 9217   4.393   0.977  15.015 -0.3372  0.7145  1.3813
   7023SM  H23F 9218   4.356   0.875  14.993 -0.7332  1.1057  0.1928
   7023SM  H23G 9219   4.322   1.045  15.066 -1.1756  0.5143  0.5080
   7023SM  H23H 9220   4.474   0.958  15.089  0.3179 -0.0135  0.4918
   7123SM     N 9221   3.833   7.090  17.768 -0.4185 -0.3089  0.0855
   7123SM   C15 9222   3.976   7.041  17.777 -0.2249 -0.0232 -0.0617
   7123SM  H15A 9223   3.994   6.953  17.837  0.0686  0.6941  0.9283
   7123SM  H15B 9224   4.036   7.119  17.823  0.1095 -0.6184  0.5351
   7123SM  H15C 9225   4.004   7.009  17.677 -0.9767  1.2534 -0.6989
   7123SM   C14 9226   3.757   6.971  17.719 -0.1733  0.0456  0.3940
   7123SM  H14A 9227   3.792   6.879  17.765 -1.6086 -1.9224 -2.1568
   7123SM  H14B 9228   3.778   6.961  17.613 -1.6150  0.2590  0.0700
   7123SM  H14C 9229   3.653   6.983  17.745 -0.2334  2.0022 -0.6005
   7123SM   C13 9230   3.778   7.136  17.901  0.6036  0.5447 -0.6885
   7123SM  H13A 9231   3.837   7.217  17.941 -0.2414  0.3353  1.0750
   7123SM  H13B 9232   3.785   7.058  17.975 -0.0625  0.0101 -1.1754
   7123SM  H13C 9233   3.674   7.166  17.895  0.7720  0.8730 -3.6939
   7123SM   C12 9234   3.825   7.205  17.669 -0.0868 -1.2391 -0.2197
   7123SM  H12A 9235   3.909   7.271  17.685  1.2950 -2.8219 -0.6958
   7123SM  H12B 9236   3.732   7.256  17.688 -0.2441 -1.4543 -0.4225
   7123SM   C11 9237   3.825   7.167  17.523 -0.4777 -0.2213  0.2699
   7123SM  H11A 9238   3.819   7.264  17.468 -1.5802  0.0509  0.8281
   7123SM  H11B 9239   3.732   7.112  17.498 -0.2896 -0.2472 -0.3780
   7123SM     P 9240   4.072   7.162  17.457 -0.0941  0.3693  0.3798
   7123SM   O13 9241   4.109   7.263  17.556  0.6113 -0.6251  0.5792
   7123SM   O14 9242   4.177   7.060  17.452  0.3365 -0.2140  0.0063
   7123SM   O11 9243   4.059   7.214  17.309  0.2688 -0.6085  0.1808
   7123SM   O12 9244   3.935   7.091  17.486 -0.6703  0.5700 -0.1608
   7123SM   C1S 9245   4.008   7.133  17.206 -0.3149  0.9799  0.3674
   7123SM   H1S 9246   3.898   7.144  17.194 -0.0910  0.7024 -3.2339
   7123SM   H1T 9247   4.029   7.026  17.223  2.4721  1.5762  1.2565
   7123SM    NF 9248   3.996   7.100  16.956 -0.1405  0.6902 -0.1355
   7123SM   HNF 9249   4.038   7.021  16.913 -2.0793 -1.0227  0.9406
   7123SM   C2S 9250   4.064   7.174  17.067  0.2697 -0.2064  0.5125
   7123SM   H2S 9251   4.041   7.283  17.055 -0.4818 -0.4787 -0.7722
   7123SM   C3S 9252   4.219   7.155  17.060  0.5555 -1.0477 -0.7129
   7123SM   H3S 9253   4.241   7.047  17.072  0.9682 -0.7251  1.8842
   7123SM    O3 9254   4.279   7.214  17.178  0.4125 -0.3424 -0.4434
   7123SM   HO3 9255   4.206   7.209  17.240  0.1864  0.1120 -0.6665
   7123SM   C4S 9256   4.272   7.222  16.938  0.8940  0.2152 -0.8339
   7123SM   H4S 9257   4.268   7.332  16.936  1.0070  0.3983  3.0556
   7123SM   C5S 9258   4.339   7.165  16.841 -0.2217 -0.0346  0.4711
   7123SM   H5S 9259   4.359   7.057  16.844  3.0823  0.4601  3.2899
   7123SM   C6S 9260   4.395   7.242  16.718  0.4207  0.4711 -0.3139
   7123SM   H6S 9261   4.487   7.302  16.733 -0.6931  2.3002 -0.4634
   7123SM   H6T 9262   4.321   7.320  16.689 -0.0818 -0.3651 -1.3346
   7123SM   C7S 9263   4.389   7.156  16.591 -0.3221  0.3851  0.1245
   7123SM   H7S 9264   4.292   7.102  16.578  0.4902 -0.7439 -1.5551
   7123SM   H7T 9265   4.472   7.084  16.603  0.9160  1.7287 -0.1818
   7123SM   C8S 9266   4.414   7.239  16.466 -0.2052  0.2335  0.2850
   7123SM   H8S 9267   4.485   7.323  16.480 -1.3415  1.6101 -1.7392
   7123SM   H8T 9268   4.324   7.285  16.420  0.5103 -0.1665 -1.5931
   7123SM   C9S 9269   4.475   7.152  16.357 -0.8946 -0.1549 -0.7728
   7123SM   H9S 9270   4.403   7.074  16.326  0.0667 -1.4561  0.1761
   7123SM   H9T 9271   4.569   7.104  16.392 -0.9202  0.3973  0.0852
   7123SM  C10S 9272   4.515   7.232  16.229 -0.5530 -0.1944  0.2286
   7123SM  H10S 9273   4.435   7.308  16.213 -0.7840 -0.0502  1.8899
   7123SM  H10T 9274   4.518   7.168  16.138  2.0224 -2.1464  1.5680
   7123SM  C11S 9275   4.652   7.301  16.245 -0.1802 -0.7156 -0.0646
   7123SM  H11S 9276   4.714   7.217  16.282  0.6910 -0.4903 -0.9626
   7123SM  H11T 9277   4.653   7.371  16.332 -1.0940 -1.0338  0.2079
   7123SM  C12S 9278   4.678   7.386  16.116 -0.1760 -0.0992 -0.0083
   7123SM  H12S 9279   4.590   7.452  16.099 -1.7141 -2.0294  0.0582
   7123SM  H12T 9280   4.706   7.313  16.037 -0.1357 -1.9333  1.6240
   7123SM  C13S 9281   4.808   7.476  16.130 -0.2058 -0.3278 -0.7427
   7123SM  H13S 9282   4.886   7.407  16.170 -0.1299 -0.4123 -1.0366
   7123SM  H13T 9283   4.781   7.552  16.207  1.0693  1.0558 -1.6216
   7123SM  C14S 9284   4.855   7.509  15.995 -0.5324 -0.5980  0.2319
   7123SM  H14S 9285   4.784   7.576  15.941  0.4790  0.0453 -0.3229
   7123SM  H14T 9286   4.849   7.418  15.932 -0.7098 -0.9922  0.8116
   7123SM  C15S 9287   4.998   7.566  15.987  0.2611  0.4158  0.7964
   7123SM  H15S 9288   5.056   7.501  16.055 -1.0038 -0.1891  1.3240
   7123SM  H15T 9289   4.985   7.666  16.035  1.5167  0.8939  0.1981
   7123SM  C16S 9290   5.061   7.572  15.845 -0.4157  0.2921  0.5804
   7123SM  H16S 9291   5.082   7.470  15.806  0.3756  0.7623 -0.2481
   7123SM  H16T 9292   5.160   7.620  15.862 -0.3726  0.7576 -0.8377
   7123SM  C17S 9293   4.983   7.638  15.738  0.7423  0.1850  0.7964
   7123SM  H17S 9294   4.972   7.741  15.780  0.1917  0.6017 -0.3253
   7123SM  H17T 9295   4.880   7.601  15.723  0.2407  2.6187 -3.3853
   7123SM  C18S 9296   5.053   7.637  15.598 -0.5862 -0.0370 -0.3519
   7123SM  H18S 9297   5.090   7.536  15.571  1.3260  1.1535 -2.5500
   7123SM  H18T 9298   5.143   7.700  15.613  1.4891 -2.9647  0.3990
   7123SM  H18U 9299   4.987   7.671  15.515 -0.3070  1.2210 -0.0828
   7123SM   C1F 9300   3.875   7.137  16.917  0.4317 -0.2993  0.3040
   7123SM    OF 9301   3.817   7.230  16.973 -1.0964  0.2185  0.6230
   7123SM   C2F 9302   3.809   7.054  16.801  0.0213 -0.4967 -0.3561
   7123SM   H2F 9303   3.720   7.016  16.854 -0.9895  1.8281 -0.2822
   7123SM   H2G 9304   3.880   6.974  16.768 -0.5665 -0.4503 -1.7998
   7123SM   C3F 9305   3.779   7.138  16.680  0.8587 -0.7208 -0.9416
   7123SM   H3F 9306   3.724   7.228  16.716  0.3987 -1.2545 -0.2825
   7123SM   H3G 9307   3.712   7.069  16.623 -0.3397 -1.1394  0.8906
   7123SM   C4F 9308   3.911   7.174  16.607 -0.4081 -0.4042  0.4381
   7123SM   H4F 9309   3.983   7.093  16.634  1.7058  1.5918  1.2036
   7123SM   H4G 9310   3.950   7.270  16.646  0.1828 -0.0757 -0.9174
   7123SM   C5F 9311   3.900   7.189  16.461 -0.0587 -0.4223 -0.1023
   7123SM   H5F 9312   3.843   7.282  16.437  0.4517 -0.3756 -1.1760
   7123SM   H5G 9313   3.835   7.105  16.426 -1.2565  0.8242 -0.9843
   7123SM   C6F 9314   4.032   7.202  16.373  0.0296 -0.4613  0.1341
   7123SM   H6F 9315   4.091   7.108  16.384 -1.1048 -1.3242 -0.8556
   7123SM   H6G 9316   4.092   7.287  16.412 -0.9943  0.2055  0.3102
   7123SM   C7F 9317   4.007   7.233  16.222 -0.2767  0.7520  0.1543
   7123SM   H7F 9318   3.980   7.340  16.216 -2.2505  0.6168  3.8194
   7123SM   H7G 9319   3.922   7.169  16.192  0.8806 -0.1253 -1.4290
   7123SM   C8F 9320   4.133   7.182  16.140 -0.0544 -0.1352 -0.0674
   7123SM   H8F 9321   4.158   7.082  16.181 -0.5323 -0.0635  0.4161
   7123SM   H8G 9322   4.217   7.252  16.156 -0.6023  0.2686  1.1818
   7123SM   C9F 9323   4.111   7.165  15.993  1.1412  0.0981 -0.3290
   7123SM   H9F 9324   4.039   7.238  15.950 -0.1803 -0.2866  1.1766
   7123SM   H9G 9325   4.055   7.070  15.996  0.5893  0.4159 -0.4833
   7123SM  C10F 9326   4.242   7.155  15.907 -0.0847  0.2676 -0.4867
   7123SM  H10F 9327   4.314   7.082  15.952  0.5085  1.2280  0.1598
   7123SM  H10G 9328   4.295   7.253  15.909  2.9578 -1.1625 -2.8281
   7123SM  C11F 9329   4.213   7.110  15.768  0.1030  0.1846  0.3622
   7123SM  H11F 9330   4.181   7.198  15.710  2.0290  1.1362  0.6773
   7123SM  H11G 9331   4.134   7.032  15.760  0.3961  0.0780 -2.7400
   7123SM  C12F 9332   4.322   7.052  15.684 -0.3544  0.4757 -0.3613
   7123SM  H12F 9333   4.362   6.961  15.733 -0.8253  0.4905  0.0572
   7123SM  H12G 9334   4.406   7.124  15.676  0.0866 -0.0449 -0.4349
   7123SM  C13F 9335   4.286   6.991  15.551  0.1402 -0.2533  0.7088
   7123SM  H13F 9336   4.194   6.930  15.567 -0.6729  1.3733  2.6395
   7123SM  H13G 9337   4.364   6.922  15.512 -0.7521 -0.3819 -0.9186
   7123SM  C14F 9338   4.255   7.095  15.439  0.6984 -0.7635 -0.7272
   7123SM  H14F 9339   4.331   7.173  15.416 -0.8625  1.8601  2.0976
   7123SM  H14G 9340   4.163   7.149  15.470  0.0943 -2.4292  0.5393
   7123SM  C15F 9341   4.219   7.038  15.302 -0.5276  0.9424 -0.4438
   7123SM  H15F 9342   4.161   7.118  15.250 -1.5254  1.1566  0.9405
   7123SM  H15G 9343   4.147   6.955  15.316  1.1873 -0.6270 -0.5805
   7123SM  C16F 9344   4.342   6.980  15.231  0.1301 -0.3110 -0.0999
   7123SM  H16F 9345   4.409   6.920  15.296  0.3728  0.3551  0.2708
   7123SM  H16G 9346   4.416   7.047  15.182 -1.8127  0.2406 -2.4797
   7123SM  C17F 9347   4.293   6.899  15.119  0.2271 -0.2727 -0.7606
   7123SM  H17F 9348   4.214   6.963  15.073  0.2518 -0.1874 -0.6846
   7123SM  H17G 9349   4.237   6.811  15.158 -0.2192 -0.3363 -1.5178
   7123SM  C18F 9350   4.392   6.853  15.013 -0.4784  0.9374  0.3297
   7123SM  H18F 9351   4.471   6.788  15.055 -1.4661  0.9056  2.2588
   7123SM  H18G 9352   4.430   6.941  14.956  0.2858  0.7893  0.6121
   7123SM  C19F 9353   4.320   6.776  14.896  0.3783 -0.2938 -0.0491
   7123SM  H19F 9354   4.267   6.861  14.850  2.1081  1.2631  0.7087
   7123SM  H19G 9355   4.252   6.693  14.926  0.0057 -0.3299 -0.9577
   7123SM  C20F 9356   4.421   6.696  14.809  0.4069 -0.0977 -0.2600
   7123SM  H20F 9357   4.362   6.642  14.733 -0.1496  0.9453 -0.5973
   7123SM  H20G 9358   4.450   6.616  14.880  2.3480  0.4876 -0.3234
   7123SM  C21F 9359   4.538   6.771  14.747 -0.9117  0.9625  0.5162
   7123SM  H21F 9360   4.589   6.846  14.810  2.5187 -0.8997  0.1939
   7123SM  H21G 9361   4.506   6.831  14.659  0.4116 -0.0793 -0.7130
   7123SM  C22F 9362   4.649   6.688  14.676 -0.1349 -0.1224 -0.6939
   7123SM  H22F 9363   4.685   6.746  14.589 -0.7201  1.0881 -0.1602
   7123SM  H22G 9364   4.596   6.601  14.632 -0.2966 -0.0477 -0.6511
   7123SM  C23F 9365   4.759   6.658  14.773 -0.1255 -0.1895 -0.1136
   7123SM  H23F 9366   4.738   6.591  14.859 -3.0494 -0.9363 -1.2834
   7123SM  H23G 9367   4.804   6.754  14.808  0.9644  0.4535 -2.9991
   7123SM  H23H 9368   4.836   6.596  14.723 -1.1571  0.3244 -2.4827
   7223SM     N 9369   6.682   2.230  17.597  0.0138 -0.4386  0.0753
   7223SM   C15 9370   6.769   2.253  17.714  0.4124 -0.0998  0.0118
   7223SM  H15A 9371   6.728   2.340  17.764 -0.1340  0.8646 -1.9954
   7223SM  H15B 9372   6.874   2.270  17.696  0.2695  1.1148  0.2143
   7223SM  H15C 9373   6.759   2.168  17.780  3.5109 -0.0712  0.6799
   7223SM   C14 9374   6.726   2.101  17.522  0.2546 -0.2506  0.3313
   7223SM  H14A 9375   6.708   2.009  17.576  3.3724 -0.5929  0.9595
   7223SM  H14B 9376   6.832   2.108  17.502  0.0665 -0.5019 -0.7751
   7223SM  H14C 9377   6.676   2.085  17.428  2.5385  0.1915 -1.0342
   7223SM   C13 9378   6.544   2.204  17.656  0.8284  0.0530  0.0224
   7223SM  H13A 9379   6.539   2.112  17.713  0.6696 -1.0076 -1.6378
   7223SM  H13B 9380   6.471   2.195  17.577  0.2045  2.7333  0.1960
   7223SM  H13C 9381   6.515   2.293  17.711  0.7499  1.6825 -2.4865
   7223SM   C12 9382   6.685   2.350  17.503  0.4345  0.4437  0.1019
   7223SM  H12A 9383   6.784   2.371  17.465 -1.3852  2.7430 -4.0781
   7223SM  H12B 9384   6.664   2.436  17.566  2.9767 -0.3642  2.2162
   7223SM   C11 9385   6.588   2.339  17.383 -0.2217  0.4845 -0.4053
   7223SM  H11A 9386   6.608   2.240  17.336  0.4892  1.3177 -1.9057
   7223SM  H11B 9387   6.620   2.423  17.319  3.9440  0.7531  1.6608
   7223SM     P 9388   6.398   2.490  17.478  0.2098  0.5704 -0.3460
   7223SM   O13 9389   6.263   2.480  17.524  0.0729 -0.0127 -0.4576
   7223SM   O14 9390   6.498   2.536  17.581 -0.2469  0.3353 -0.4494
   7223SM   O11 9391   6.406   2.586  17.349  0.1778 -0.0394  0.6576
   7223SM   O12 9392   6.447   2.352  17.419  0.1884  0.1594 -0.0134
   7223SM   C1S 9393   6.327   2.543  17.231 -0.7007 -0.0371  0.3110
   7223SM   H1S 9394   6.221   2.562  17.260 -0.8247 -1.3733  0.8095
   7223SM   H1T 9395   6.339   2.435  17.208  0.7511 -0.2413  1.8555
   7223SM    NF 9396   6.273   2.609  16.990 -0.0380 -0.1974 -0.5966
   7223SM   HNF 9397   6.312   2.543  16.927  0.9450 -0.9703  0.7634
   7223SM   C2S 9398   6.361   2.630  17.106 -0.1551 -0.4655  0.0469
   7223SM   H2S 9399   6.337   2.730  17.147 -2.5813 -1.6872  1.9214
   7223SM   C3S 9400   6.505   2.617  17.064 -0.2455 -0.8466  0.1716
   7223SM   H3S 9401   6.535   2.517  17.027 -0.6592 -0.6395 -0.7444
   7223SM    O3 9402   6.602   2.641  17.171 -0.2822 -0.2125 -0.2919
   7223SM   HO3 9403   6.549   2.632  17.251  0.3679  0.0571  0.1835
   7223SM   C4S 9404   6.533   2.717  16.955 -0.0911  0.6120  0.0822
   7223SM   H4S 9405   6.514   2.821  16.986 -1.7097  0.0924  0.9071
   7223SM   C5S 9406   6.585   2.686  16.834  0.4733 -0.0897 -0.1738
   7223SM   H5S 9407   6.585   2.582  16.800  0.3226 -0.1632  0.0479
   7223SM   C6S 9408   6.622   2.782  16.731 -0.6481  0.3869  0.1289
   7223SM   H6S 9409   6.608   2.736  16.632  0.9800  0.2164 -0.0564
   7223SM   H6T 9410   6.731   2.786  16.753 -0.6239 -2.3289  0.8971
   7223SM   C7S 9411   6.574   2.928  16.720 -0.1466  0.3471 -0.1024
   7223SM   H7S 9412   6.644   2.992  16.661  0.8848  1.9754  2.6669
   7223SM   H7T 9413   6.588   2.971  16.822  2.6168  1.0531 -0.6842
   7223SM   C8S 9414   6.426   2.943  16.672 -0.4205  0.2497 -0.0334
   7223SM   H8S 9415   6.408   3.053  16.677  0.5062  0.3673  1.5239
   7223SM   H8T 9416   6.365   2.897  16.753  0.4345  0.4776  0.7703
   7223SM   C9S 9417   6.392   2.883  16.534 -0.5304  0.0961 -0.2346
   7223SM   H9S 9418   6.282   2.868  16.532 -0.4105 -0.7797 -0.8858
   7223SM   H9T 9419   6.436   2.781  16.522  3.1018  0.9918  3.2660
   7223SM  C10S 9420   6.437   2.979  16.419 -0.3648  0.5087  0.2163
   7223SM  H10S 9421   6.548   2.975  16.430 -0.5960 -0.0812  2.8360
   7223SM  H10T 9422   6.405   3.083  16.438  1.7353  1.8930 -2.9349
   7223SM  C11S 9423   6.396   2.927  16.281 -0.1396 -0.4042 -0.3784
   7223SM  H11S 9424   6.288   2.929  16.258 -0.1375 -1.9899 -0.6524
   7223SM  H11T 9425   6.426   2.820  16.272 -2.1817 -0.9002 -1.9924
   7223SM  C12S 9426   6.464   3.014  16.172 -0.4164  0.9025  0.0049
   7223SM  H12S 9427   6.573   2.992  16.177 -0.8713 -2.1234 -1.2029
   7223SM  H12T 9428   6.437   3.118  16.201  0.1523  0.8106  0.8893
   7223SM  C13S 9429   6.418   2.996  16.026  0.5742 -0.6142  0.1462
   7223SM  H13S 9430   6.459   3.083  15.971 -1.7792 -0.0784 -0.8571
   7223SM  H13T 9431   6.309   2.998  16.006  0.3976 -0.1726  1.1240
   7223SM  C14S 9432   6.456   2.864  15.967 -0.0157 -0.6754  0.2612
   7223SM  H14S 9433   6.389   2.789  16.014 -0.2153  0.4751  1.8894
   7223SM  H14T 9434   6.561   2.846  16.001  0.0255  0.2644  0.6605
   7223SM  C15S 9435   6.443   2.851  15.809  0.1712  0.3840 -0.3916
   7223SM  H15S 9436   6.532   2.908  15.774  1.3051 -1.8627 -1.3651
   7223SM  H15T 9437   6.353   2.903  15.771 -0.3197 -1.0581 -1.2502
   7223SM  C16S 9438   6.439   2.706  15.763  0.6671  0.3451 -0.2120
   7223SM  H16S 9439   6.344   2.653  15.782  1.1263 -0.7945 -0.9602
   7223SM  H16T 9440   6.524   2.667  15.822  1.1696 -0.0170 -1.1439
   7223SM  C17S 9441   6.452   2.683  15.615 -0.2829  0.3503 -0.4595
   7223SM  H17S 9442   6.542   2.721  15.562 -0.1849 -0.8683 -1.2204
   7223SM  H17T 9443   6.370   2.738  15.564 -1.1939  1.4999  2.0879
   7223SM  C18S 9444   6.435   2.534  15.571 -0.7141  0.1374  0.6098
   7223SM  H18S 9445   6.521   2.472  15.603 -0.9583 -0.7322 -0.3662
   7223SM  H18T 9446   6.412   2.529  15.462 -0.7849  3.3132  0.4014
   7223SM  H18U 9447   6.351   2.479  15.619 -0.9075  1.1450  1.4496
   7223SM   C1F 9448   6.146   2.666  16.988  0.3195 -0.2761 -0.3737
   7223SM    OF 9449   6.109   2.730  17.091 -0.4332  0.0061  0.8350
   7223SM   C2F 9450   6.058   2.641  16.875  0.7641 -0.7770 -0.0238
   7223SM   H2F 9451   5.955   2.628  16.915 -0.1530  2.0177 -1.2311
   7223SM   H2G 9452   6.093   2.553  16.817 -0.0291 -0.1474 -1.5044
   7223SM   C3F 9453   6.065   2.769  16.786 -0.3844  0.5213 -0.3676
   7223SM   H3F 9454   6.149   2.748  16.717 -2.3801  0.6250 -2.9502
   7223SM   H3G 9455   6.085   2.862  16.843 -0.5999  0.2029  0.2408
   7223SM   C4F 9456   5.952   2.786  16.684  0.1679 -0.1219 -0.4194
   7223SM   H4F 9457   6.002   2.853  16.610  1.7221 -0.8099 -0.0177
   7223SM   H4G 9458   5.865   2.840  16.728  1.0583  1.2681 -0.3121
   7223SM   C5F 9459   5.901   2.662  16.606 -0.3031  0.1223  0.1980
   7223SM   H5F 9460   5.810   2.689  16.549  0.7441  3.9123  0.0093
   7223SM   H5G 9461   5.883   2.589  16.688 -0.2950 -0.4092 -0.2706
   7223SM   C6F 9462   6.010   2.599  16.516  0.0675  0.6569  0.2647
   7223SM   H6F 9463   5.975   2.506  16.467  0.1639  1.0890 -0.6422
   7223SM   H6G 9464   6.093   2.577  16.587  1.3870  0.9574 -1.1405
   7223SM   C7F 9465   6.066   2.681  16.406 -0.6216  0.4221 -0.4228
   7223SM   H7F 9466   6.163   2.639  16.373  0.3713 -0.4109  3.0881
   7223SM   H7G 9467   6.086   2.781  16.451  0.2591  1.5168 -3.0578
   7223SM   C8F 9468   5.976   2.703  16.279 -0.1580  0.2992 -0.6557
   7223SM   H8F 9469   5.877   2.741  16.312 -0.1817 -0.1783 -0.1739
   7223SM   H8G 9470   5.955   2.613  16.217 -1.1854  0.9166 -1.2225
   7223SM   C9F 9471   6.039   2.797  16.177  0.2691  0.4120  0.8263
   7223SM   H9F 9472   6.131   2.745  16.142 -0.1887 -0.0505  0.3087
   7223SM   H9G 9473   6.076   2.889  16.229  0.3445  0.7049  0.2576
   7223SM  C10F 9474   5.955   2.831  16.051 -0.2216  0.3602 -0.3885
   7223SM  H10F 9475   5.867   2.894  16.074 -0.3192  0.6575 -1.5161
   7223SM  H10G 9476   5.902   2.741  16.014 -3.2657  1.1553  1.6598
   7223SM  C11F 9477   6.039   2.910  15.949 -0.1598  0.1298  0.3916
   7223SM  H11F 9478   6.133   2.852  15.936 -1.5618 -2.1163 -0.2248
   7223SM  H11G 9479   6.078   2.999  16.003 -0.5298 -0.2829  1.3617
   7223SM  C12F 9480   5.971   2.911  15.814  0.1703 -0.1548  0.9367
   7223SM  H12F 9481   5.885   2.981  15.810  0.1474 -0.2276 -1.8279
   7223SM  H12G 9482   5.916   2.816  15.798 -1.0112  0.9536 -2.5746
   7223SM  C13F 9483   6.069   2.931  15.691  0.7638  0.7455  0.0385
   7223SM  H13F 9484   6.021   2.906  15.594  0.2416 -2.0520  0.9286
   7223SM  H13G 9485   6.154   2.863  15.712  1.6110  1.6558 -0.3810
   7223SM  C14F 9486   6.123   3.071  15.680  0.0431  0.0687 -0.8384
   7223SM  H14F 9487   6.171   3.102  15.775 -0.8852  1.8398 -0.9239
   7223SM  H14G 9488   6.039   3.140  15.659  0.7610  0.9026 -1.0212
   7223SM  C15F 9489   6.226   3.088  15.570 -0.2399  0.7280  0.0697
   7223SM  H15F 9490   6.171   3.083  15.473 -2.1260  3.3314  0.8988
   7223SM  H15G 9491   6.283   2.995  15.587  0.4849  1.2848  0.7658
   7223SM  C16F 9492   6.314   3.218  15.578  0.0683  0.3109  0.2988
   7223SM  H16F 9493   6.361   3.223  15.679 -0.7850 -1.3143  0.8130
   7223SM  H16G 9494   6.248   3.307  15.569 -0.8427 -0.0708  2.5097
   7223SM  C17F 9495   6.414   3.227  15.459 -0.9844  0.2657  0.5027
   7223SM  H17F 9496   6.459   3.125  15.457  0.6228  0.8326  2.9837
   7223SM  H17G 9497   6.495   3.299  15.484 -0.0777 -0.3691 -0.5129
   7223SM  C18F 9498   6.352   3.250  15.318  0.1673  0.1610  0.0107
   7223SM  H18F 9499   6.287   3.340  15.331 -0.2059 -0.1051 -0.0089
   7223SM  H18G 9500   6.272   3.175  15.301 -0.3607  1.0664 -1.7609
   7223SM  C19F 9501   6.452   3.288  15.210  0.5241 -0.4465  1.1041
   7223SM  H19F 9502   6.532   3.211  15.205  1.8519  0.9417 -2.6200
   7223SM  H19G 9503   6.512   3.375  15.247 -1.8714  1.1606  1.4466
   7223SM  C20F 9504   6.389   3.309  15.066 -0.2988  0.1243  0.7591
   7223SM  H20F 9505   6.337   3.406  15.056  0.1649  0.3716  0.6993
   7223SM  H20G 9506   6.320   3.223  15.055  1.6720 -1.4650  0.2388
   7223SM  C21F 9507   6.487   3.295  14.948  0.5909 -0.8378  0.3091
   7223SM  H21F 9508   6.585   3.340  14.975  1.5718 -1.2536 -2.2104
   7223SM  H21G 9509   6.441   3.348  14.862 -2.1540 -0.9331  1.6149
   7223SM  C22F 9510   6.501   3.150  14.907 -0.1113  0.9848  0.3737
   7223SM  H22F 9511   6.409   3.135  14.846 -0.1360  1.5529  0.2603
   7223SM  H22G 9512   6.504   3.084  14.996  3.5453 -3.1991 -2.4435
   7223SM  C23F 9513   6.626   3.112  14.823  0.4063 -0.0738  0.5399
   7223SM  H23F 9514   6.638   3.189  14.745  1.5574 -0.2860  0.4892
   7223SM  H23G 9515   6.619   3.005  14.792 -1.5795 -0.1140  0.9693
   7223SM  H23H 9516   6.716   3.114  14.888 -0.1284  1.6344  1.2758
   7323SM     N 9517   5.777   1.191  17.664  0.1283  0.5084  0.1169
   7323SM   C15 9518   5.639   1.167  17.715  0.7510  0.0735 -0.5746
   7323SM  H15A 9519   5.604   1.243  17.784 -0.6782 -0.6513 -0.4495
   7323SM  H15B 9520   5.645   1.077  17.774  3.1649 -0.2848 -1.2551
   7323SM  H15C 9521   5.573   1.157  17.630 -1.3713  0.6303  0.9091
   7323SM   C14 9522   5.869   1.190  17.781  0.4275  0.5939 -0.1681
   7323SM  H14A 9523   5.870   1.100  17.841 -1.3517 -0.4952 -1.6475
   7323SM  H14B 9524   5.848   1.270  17.851  1.0988  1.2898 -0.7505
   7323SM  H14C 9525   5.969   1.207  17.746  0.5075 -2.3412 -1.6657
   7323SM   C13 9526   5.812   1.073  17.578  0.0211 -0.0990 -0.3597
   7323SM  H13A 9527   5.916   1.077  17.548  0.1829  0.0655  0.2183
   7323SM  H13B 9528   5.746   1.068  17.493 -0.8700 -0.2396  0.3277
   7323SM  H13C 9529   5.803   0.989  17.645 -0.9370  0.4456  0.2173
   7323SM   C12 9530   5.773   1.323  17.578 -0.1894 -0.1073 -0.8717
   7323SM  H12A 9531   5.870   1.359  17.545 -1.3508  1.6735 -2.5859
   7323SM  H12B 9532   5.739   1.406  17.638  2.4031  2.7574 -3.0017
   7323SM   C11 9533   5.687   1.323  17.455  0.9434 -0.4234  0.1562
   7323SM  H11A 9534   5.704   1.245  17.378  0.4618 -2.6483  2.2118
   7323SM  H11B 9535   5.728   1.406  17.393 -1.7693 -1.0471 -2.7315
   7323SM     P 9536   5.468   1.453  17.458 -0.0239 -0.3071 -0.2810
   7323SM   O13 9537   5.323   1.431  17.470 -0.6094 -0.2252 -0.1877
   7323SM   O14 9538   5.529   1.555  17.537  0.3265  0.1008 -0.1627
   7323SM   O11 9539   5.509   1.498  17.315  0.3743  0.3260  0.9846
   7323SM   O12 9540   5.553   1.323  17.485  0.0054  0.1592  0.4042
   7323SM   C1S 9541   5.470   1.411  17.200 -0.6617 -0.8359  0.3870
   7323SM   H1S 9542   5.369   1.370  17.217 -1.6543  0.9268 -0.8829
   7323SM   H1T 9543   5.541   1.327  17.186  0.6577  0.5768 -2.3917
   7323SM    NF 9544   5.421   1.417  16.961 -0.0725  0.1163  0.4715
   7323SM   HNF 9545   5.493   1.374  16.906  0.7059 -0.5772  1.9734
   7323SM   C2S 9546   5.467   1.502  17.069 -0.5811  0.4276 -0.8000
   7323SM   H2S 9547   5.395   1.581  17.096 -0.4693 -0.0499  1.0102
   7323SM   C3S 9548   5.603   1.569  17.037 -0.6592 -0.2658 -0.5136
   7323SM   H3S 9549   5.668   1.482  17.012 -0.8465 -0.3906 -0.5648
   7323SM    O3 9550   5.650   1.642  17.148 -0.8256 -0.3863  0.1244
   7323SM   HO3 9551   5.596   1.613  17.223 -1.2149  0.9069  0.3694
   7323SM   C4S 9552   5.597   1.661  16.920 -0.2403 -0.0379 -0.0209
   7323SM   H4S 9553   5.544   1.753  16.948 -1.2570 -0.6557  0.1443
   7323SM   C5S 9554   5.652   1.656  16.802 -0.1723  0.3808  0.8372
   7323SM   H5S 9555   5.720   1.577  16.766 -0.5020  0.5867 -0.2810
   7323SM   C6S 9556   5.633   1.758  16.694 -0.2598 -0.0240  0.2199
   7323SM   H6S 9557   5.704   1.843  16.709 -0.1387  0.4243 -2.4603
   7323SM   H6T 9558   5.534   1.802  16.717 -0.3676 -0.6902  1.0723
   7323SM   C7S 9559   5.655   1.699  16.551 -0.0612  0.1169 -1.2050
   7323SM   H7S 9560   5.759   1.662  16.544 -0.1461 -0.5008  0.3006
   7323SM   H7T 9561   5.637   1.781  16.478  2.1576  0.9395 -0.9167
   7323SM   C8S 9562   5.563   1.590  16.509 -0.1882 -0.3279 -0.0711
   7323SM   H8S 9563   5.457   1.621  16.505 -0.1132 -0.1416 -0.8479
   7323SM   H8T 9564   5.559   1.507  16.582 -0.1228  0.2350  0.5900
   7323SM   C9S 9565   5.614   1.525  16.376 -0.0557 -0.0904 -0.1412
   7323SM   H9S 9566   5.699   1.457  16.400  1.2560  1.9899  1.3966
   7323SM   H9T 9567   5.652   1.605  16.309 -1.7820 -1.1300 -2.5280
   7323SM  C10S 9568   5.495   1.442  16.310 -0.0605  0.6572  0.3894
   7323SM  H10S 9569   5.411   1.515  16.310 -0.4331  0.2467  1.1905
   7323SM  H10T 9570   5.465   1.363  16.382  0.3278 -0.0986 -0.2709
   7323SM  C11S 9571   5.533   1.380  16.175 -0.1375  0.4719  0.3787
   7323SM  H11S 9572   5.578   1.280  16.193 -0.5922  0.0843 -0.5722
   7323SM  H11T 9573   5.617   1.439  16.132  1.5751 -2.0948  0.0217
   7323SM  C12S 9574   5.417   1.375  16.080 -0.9159 -0.0808 -0.4393
   7323SM  H12S 9575   5.378   1.479  16.082 -0.8279 -0.0526  0.4734
   7323SM  H12T 9576   5.334   1.315  16.123  0.1868  0.5916  2.9783
   7323SM  C13S 9577   5.464   1.343  15.942 -0.1652 -0.5729 -0.6818
   7323SM  H13S 9578   5.528   1.253  15.954 -1.4350 -1.5417 -0.9774
   7323SM  H13T 9579   5.528   1.421  15.896 -1.4971 -0.4442 -2.4126
   7323SM  C14S 9580   5.348   1.317  15.849  1.2874  0.5285 -0.0139
   7323SM  H14S 9581   5.268   1.269  15.909  0.9529  1.5457  0.3861
   7323SM  H14T 9582   5.370   1.234  15.779 -1.4298 -0.7118  0.4533
   7323SM  C15S 9583   5.289   1.436  15.775  0.4290  0.2920 -0.2445
   7323SM  H15S 9584   5.293   1.521  15.847  0.7595 -0.7407  0.9825
   7323SM  H15T 9585   5.180   1.422  15.758  0.1062  0.9905  1.1172
   7323SM  C16S 9586   5.363   1.473  15.651  0.1146 -0.2496 -0.0240
   7323SM  H16S 9587   5.357   1.384  15.584 -0.1339 -1.3735  1.4282
   7323SM  H16T 9588   5.471   1.485  15.672 -0.3486 -0.2778  2.6333
   7323SM  C17S 9589   5.317   1.600  15.574  0.2559 -0.2168 -0.1024
   7323SM  H17S 9590   5.210   1.625  15.594  0.4450  0.9513 -0.4789
   7323SM  H17T 9591   5.336   1.585  15.465 -0.5007  1.7413 -0.5384
   7323SM  C18S 9592   5.402   1.718  15.622  0.3595 -0.0150 -0.2134
   7323SM  H18S 9593   5.412   1.718  15.733  2.0538  0.2364 -0.3378
   7323SM  H18T 9594   5.357   1.813  15.586 -0.2190 -0.6188 -1.1254
   7323SM  H18U 9595   5.500   1.707  15.571  0.0863 -1.4294 -0.4624
   7323SM   C1F 9596   5.290   1.388  16.952  0.2400 -0.5812 -0.0433
   7323SM    OF 9597   5.205   1.444  17.023  0.2261  0.1916 -0.1660
   7323SM   C2F 9598   5.249   1.292  16.840  0.0597  0.1694  0.1887
   7323SM   H2F 9599   5.140   1.281  16.858 -0.5635  4.1655 -0.3168
   7323SM   H2G 9600   5.296   1.192  16.854 -1.8081 -0.7413  0.2419
   7323SM   C3F 9601   5.280   1.339  16.702 -0.8592 -0.0596  0.1313
   7323SM   H3F 9602   5.385   1.315  16.677 -1.4786 -0.5397 -2.3153
   7323SM   H3G 9603   5.240   1.441  16.687 -1.0447  0.4416  3.3029
   7323SM   C4F 9604   5.201   1.247  16.604 -0.4122  0.2848 -0.1759
   7323SM   H4F 9605   5.124   1.196  16.664 -1.3338  1.6483 -0.1386
   7323SM   H4G 9606   5.272   1.169  16.570 -3.2391 -3.0584  1.0024
   7323SM   C5F 9607   5.136   1.327  16.485 -0.0529  0.0710  0.0489
   7323SM   H5F 9608   5.200   1.413  16.454 -0.4637  1.1888  2.1005
   7323SM   H5G 9609   5.050   1.377  16.535 -1.1296 -2.1438  0.5267
   7323SM   C6F 9610   5.058   1.245  16.384  0.1259 -0.0083  0.3812
   7323SM   H6F 9611   4.981   1.179  16.429 -2.2859  2.0039 -0.5454
   7323SM   H6G 9612   5.134   1.188  16.327 -0.1161 -2.0133  1.9649
   7323SM   C7F 9613   4.972   1.337  16.293 -0.3200 -0.1825  0.2057
   7323SM   H7F 9614   5.038   1.425  16.280 -0.7541  0.4721  2.1030
   7323SM   H7G 9615   4.886   1.371  16.354  0.0022  0.5039  0.2863
   7323SM   C8F 9616   4.953   1.274  16.156  0.5264  0.0552 -0.1387
   7323SM   H8F 9617   4.868   1.203  16.164 -1.3586  2.3929  2.1350
   7323SM   H8G 9618   5.053   1.233  16.130  0.1037 -0.5343 -0.8548
   7323SM   C9F 9619   4.920   1.381  16.050  0.1980 -0.0518  0.2228
   7323SM   H9F 9620   5.009   1.446  16.033 -0.0057  0.0358 -0.5284
   7323SM   H9G 9621   4.835   1.440  16.088 -0.1371  0.8499 -1.7843
   7323SM  C10F 9622   4.877   1.319  15.916 -0.0780 -0.3493 -0.1294
   7323SM  H10F 9623   4.783   1.262  15.933 -0.2272  0.0764  0.5378
   7323SM  H10G 9624   4.949   1.236  15.900  1.3334  0.7008  0.5158
   7323SM  C11F 9625   4.866   1.410  15.791  0.0055 -0.2251 -0.3689
   7323SM  H11F 9626   4.950   1.481  15.774  0.9876 -0.9131  1.3163
   7323SM  H11G 9627   4.778   1.471  15.818 -1.0862 -1.4798 -0.9503
   7323SM  C12F 9628   4.832   1.333  15.669 -0.5077  0.4500  0.3513
   7323SM  H12F 9629   4.762   1.398  15.612 -2.1680 -4.0850 -3.5345
   7323SM  H12G 9630   4.781   1.237  15.695  0.8912 -0.6987 -0.9527
   7323SM  C13F 9631   4.944   1.312  15.567 -0.5857  0.2040  0.1519
   7323SM  H13F 9632   5.028   1.244  15.592  0.2922  1.5324  0.9645
   7323SM  H13G 9633   4.992   1.412  15.562  0.2885 -0.2202  0.0214
   7323SM  C14F 9634   4.905   1.280  15.428 -0.0496  0.2888  0.6794
   7323SM  H14F 9635   4.819   1.332  15.382 -0.9612 -1.3394  0.4748
   7323SM  H14G 9636   4.877   1.174  15.411  1.5578  0.1920 -1.9330
   7323SM  C15F 9637   5.026   1.294  15.320  0.1936 -0.0440  0.1702
   7323SM  H15F 9638   5.084   1.202  15.341 -1.6783 -1.4722 -0.6704
   7323SM  H15G 9639   5.084   1.389  15.330  0.4168  0.5532 -4.5303
   7323SM  C16F 9640   4.968   1.278  15.185  0.2433  0.0221 -0.0327
   7323SM  H16F 9641   4.911   1.368  15.156  1.6671  1.6465  1.9563
   7323SM  H16G 9642   4.889   1.200  15.181  2.2513 -2.1127 -0.3121
   7323SM  C17F 9643   5.063   1.240  15.070 -0.5713 -0.4120  0.2293
   7323SM  H17F 9644   5.009   1.206  14.979 -0.5363 -2.3416  0.8843
   7323SM  H17G 9645   5.125   1.158  15.110  0.8513  0.3483 -0.3458
   7323SM  C18F 9646   5.167   1.351  15.021  0.4638  0.0629 -0.1524
   7323SM  H18F 9647   5.249   1.364  15.094  0.1240 -1.6463  0.5828
   7323SM  H18G 9648   5.112   1.448  15.026  0.9315  0.2741  1.6229
   7323SM  C19F 9649   5.227   1.311  14.890  0.9734  0.3330 -0.0069
   7323SM  H19F 9650   5.165   1.335  14.801  1.6977  1.9914 -0.0865
   7323SM  H19G 9651   5.233   1.200  14.896 -1.0102  0.1003 -1.3715
   7323SM  C20F 9652   5.366   1.367  14.860 -0.2326 -0.1187  0.2693
   7323SM  H20F 9653   5.436   1.342  14.943  1.6075 -2.3246 -1.8083
   7323SM  H20G 9654   5.352   1.477  14.857 -0.6739 -0.1969 -1.0823
   7323SM  C21F 9655   5.413   1.309  14.725 -0.1270 -0.2870 -1.0520
   7323SM  H21F 9656   5.342   1.335  14.644 -0.5453  0.0713 -0.5756
   7323SM  H21G 9657   5.418   1.199  14.743  1.2650  0.1116  1.4413
   7323SM  C22F 9658   5.548   1.365  14.682 -0.1972 -0.3808 -0.5858
   7323SM  H22F 9659   5.546   1.476  14.685  0.6112 -0.2717 -2.5815
   7323SM  H22G 9660   5.563   1.348  14.573  2.0054  0.5130 -0.4781
   7323SM  C23F 9661   5.669   1.338  14.775 -0.6181 -0.4828 -0.2142
   7323SM  H23F 9662   5.637   1.359  14.879  0.2837  1.4844 -0.2797
   7323SM  H23G 9663   5.760   1.400  14.755 -0.9384  0.2871  0.6545
   7323SM  H23H 9664   5.701   1.232  14.765  0.7567 -0.1775  0.7681
   7423SM     N 9665   0.482   4.761  17.622 -0.0447  0.6524  0.0315
   7423SM   C15 9666   0.365   4.704  17.700 -0.2662 -0.3164 -0.0224
   7423SM  H15A 9667   0.289   4.672  17.630 -1.5347 -0.2816  1.2855
   7423SM  H15B 9668   0.331   4.789  17.758 -0.2922  0.8433 -1.6444
   7423SM  H15C 9669   0.386   4.620  17.764 -0.8608  0.8103  1.7255
   7423SM   C14 9670   0.455   4.894  17.560 -0.8666 -0.3116 -0.4376
   7423SM  H14A 9671   0.386   4.884  17.478 -0.8600  1.5413 -0.7027
   7423SM  H14B 9672   0.545   4.928  17.511 -0.3316  0.1502  0.8300
   7423SM  H14C 9673   0.409   4.959  17.632  0.6250 -0.6853  0.9289
   7423SM   C13 9674   0.594   4.780  17.721  0.2460  0.4799  0.3107
   7423SM  H13A 9675   0.585   4.860  17.793  0.3533 -0.3967  1.3252
   7423SM  H13B 9676   0.685   4.781  17.663  0.6287  1.4991  0.9154
   7423SM  H13C 9677   0.593   4.694  17.787  0.1683  0.7415  0.6569
   7423SM   C12 9678   0.533   4.661  17.520 -0.9750 -0.2300 -0.6060
   7423SM  H12A 9679   0.453   4.616  17.461 -0.2391 -0.4948 -1.4245
   7423SM  H12B 9680   0.569   4.583  17.585 -0.3162 -1.0505 -1.9086
   7423SM   C11 9681   0.645   4.704  17.419  0.3226 -0.2226 -0.1925
   7423SM  H11A 9682   0.618   4.778  17.340  1.0044  1.2121  0.8869
   7423SM  H11B 9683   0.664   4.606  17.372 -3.5321 -0.5181 -1.5104
   7423SM     P 9684   0.892   4.676  17.502 -0.2527 -0.2214 -0.3808
   7423SM   O13 9685   0.970   4.739  17.615 -0.2457  0.2178  0.2675
   7423SM   O14 9686   0.847   4.542  17.530 -0.6537  0.9422  0.6458
   7423SM   O11 9687   0.978   4.694  17.367 -0.6795  0.6727  0.1040
   7423SM   O12 9688   0.761   4.761  17.484 -0.5676 -0.3791  0.3499
   7423SM   C1S 9689   0.912   4.716  17.247 -0.3523  0.0652 -0.1332
   7423SM   H1S 9690   0.895   4.825  17.234  0.4910  0.0502 -1.6579
   7423SM   H1T 9691   0.822   4.652  17.239  0.2440 -0.8308  0.1788
   7423SM    NF 9692   0.918   4.689  17.007 -0.4395  0.3372  0.2616
   7423SM   HNF 9693   0.878   4.605  16.972  0.7450 -0.1571  0.0439
   7423SM   C2S 9694   0.992   4.661  17.130  0.0569 -0.6601  0.5394
   7423SM   H2S 9695   1.087   4.719  17.126 -0.5076  0.4672  2.3718
   7423SM   C3S 9696   1.028   4.502  17.138 -0.0791  0.1049  0.2392
   7423SM   H3S 9697   0.933   4.445  17.141 -1.6059  2.5185  0.5614
   7423SM    O3 9698   1.091   4.488  17.268 -0.1010  0.1669 -0.0589
   7423SM   HO3 9699   1.062   4.565  17.317  0.1870  1.0746 -1.2747
   7423SM   C4S 9700   1.114   4.457  17.018 -0.3571 -0.1354 -0.0672
   7423SM   H4S 9701   1.049   4.421  16.937 -2.7275 -0.0179  1.6924
   7423SM   C5S 9702   1.254   4.465  17.014 -0.3210 -0.2310 -0.2246
   7423SM   H5S 9703   1.314   4.490  17.103  0.3617  0.0830 -0.7656
   7423SM   C6S 9704   1.333   4.424  16.891 -0.1046 -0.9002 -0.4321
   7423SM   H6S 9705   1.408   4.344  16.908 -0.6422 -1.4963 -0.8354
   7423SM   H6T 9706   1.394   4.510  16.855 -1.7748 -0.9034 -3.6510
   7423SM   C7S 9707   1.250   4.370  16.771  0.2501  0.2580 -0.3558
   7423SM   H7S 9708   1.181   4.451  16.738 -1.8746 -0.9428  0.8771
   7423SM   H7T 9709   1.189   4.280  16.798 -2.0509  1.3628 -1.5236
   7423SM   C8S 9710   1.338   4.333  16.649 -0.6348 -0.5071  0.1638
   7423SM   H8S 9711   1.426   4.274  16.684 -0.2451  1.3282  2.4661
   7423SM   H8T 9712   1.380   4.426  16.604 -1.3647  0.5395  1.5985
   7423SM   C9S 9713   1.258   4.267  16.535  0.0647  0.4995 -0.2826
   7423SM   H9S 9714   1.164   4.317  16.504  1.3398  2.1248 -1.7852
   7423SM   H9T 9715   1.240   4.165  16.575  1.0264  0.3210 -0.2809
   7423SM  C10S 9716   1.337   4.272  16.407  0.7161 -0.2777  0.0033
   7423SM  H10S 9717   1.420   4.198  16.398 -0.3817 -1.5563 -0.0347
   7423SM  H10T 9718   1.381   4.373  16.394  1.9858 -0.7835  0.2620
   7423SM  C11S 9719   1.248   4.239  16.277 -0.4915  0.5499  0.0957
   7423SM  H11S 9720   1.180   4.325  16.259 -0.3052  0.9320  1.1114
   7423SM  H11T 9721   1.187   4.148  16.293  1.1614 -0.9101 -1.5075
   7423SM  C12S 9722   1.331   4.224  16.147  0.5272  0.8030  0.4831
   7423SM  H12S 9723   1.408   4.304  16.156  0.6329  0.4879  3.0790
   7423SM  H12T 9724   1.271   4.241  16.055  0.6602 -1.0852 -0.0010
   7423SM  C13S 9725   1.375   4.076  16.137 -0.8951 -0.8805 -1.2299
   7423SM  H13S 9726   1.298   4.018  16.191  0.1594  0.2299  1.6699
   7423SM  H13T 9727   1.468   4.044  16.189 -0.0931  1.1859 -1.2747
   7423SM  C14S 9728   1.368   4.018  15.995 -0.2007 -0.2555 -0.5349
   7423SM  H14S 9729   1.260   4.000  15.975 -0.0227 -1.8980 -0.1872
   7423SM  H14T 9730   1.420   3.920  15.999  0.0049 -0.1033  2.8181
   7423SM  C15S 9731   1.435   4.095  15.884  0.0546 -0.1240 -0.0715
   7423SM  H15S 9732   1.542   4.106  15.909  0.0686  1.0405 -0.5499
   7423SM  H15T 9733   1.386   4.193  15.865 -0.6629 -0.4195  0.2254
   7423SM  C16S 9734   1.413   4.028  15.748 -0.5197 -0.3142  0.0983
   7423SM  H16S 9735   1.302   4.023  15.740 -0.7378  2.1417  0.8506
   7423SM  H16T 9736   1.463   3.929  15.754  2.9971  1.3158  0.4190
   7423SM  C17S 9737   1.460   4.104  15.625 -0.6506 -1.3154 -0.0611
   7423SM  H17S 9738   1.542   4.163  15.669 -2.2060 -0.5567  2.0074
   7423SM  H17T 9739   1.383   4.175  15.589  1.8530  1.6860  0.0957
   7423SM  C18S 9740   1.503   4.020  15.508  0.0989 -0.2526 -0.3092
   7423SM  H18S 9741   1.411   3.970  15.470 -1.4503  0.3183  2.4208
   7423SM  H18T 9742   1.584   3.951  15.541 -1.2619 -0.8677  1.9603
   7423SM  H18U 9743   1.544   4.091  15.434 -2.1362  0.5402 -0.8499
   7423SM   C1F 9744   0.879   4.803  16.958  0.2136 -0.0670 -0.1461
   7423SM    OF 9745   0.897   4.910  17.010 -0.0489 -0.2180  0.2214
   7423SM   C2F 9746   0.784   4.789  16.839 -1.5089 -0.2714  0.0227
   7423SM   H2F 9747   0.690   4.739  16.870 -0.0941 -1.7427  2.2153
   7423SM   H2G 9748   0.833   4.717  16.770  0.2027 -0.3013  1.2053
   7423SM   C3F 9749   0.763   4.926  16.775 -0.2169 -0.1143 -0.4811
   7423SM   H3F 9750   0.859   4.974  16.745  0.6105 -0.0698  2.0058
   7423SM   H3G 9751   0.714   4.977  16.861 -0.9526 -3.4867  1.2514
   7423SM   C4F 9752   0.675   4.904  16.655 -0.1874  0.0789  0.2522
   7423SM   H4F 9753   0.634   4.995  16.606 -1.7322 -1.3136 -1.2028
   7423SM   H4G 9754   0.583   4.846  16.679 -0.9079 -0.1735 -2.6815
   7423SM   C5F 9755   0.740   4.839  16.534 -0.3239 -0.1071 -0.4822
   7423SM   H5F 9756   0.761   4.730  16.544 -0.2691 -0.3008 -2.2461
   7423SM   H5G 9757   0.840   4.887  16.526  0.7668 -2.1491  0.2383
   7423SM   C6F 9758   0.666   4.846  16.409  0.3882  0.2204  0.3897
   7423SM   H6F 9759   0.657   4.953  16.379 -1.3255  0.2601  0.9412
   7423SM   H6G 9760   0.561   4.813  16.425  0.8853 -2.3388 -1.0832
   7423SM   C7F 9761   0.731   4.785  16.289 -0.0138  0.2469  0.9037
   7423SM   H7F 9762   0.736   4.676  16.307 -0.1936 -0.3192 -2.0290
   7423SM   H7G 9763   0.831   4.829  16.272  0.7534 -1.9804 -0.7366
   7423SM   C8F 9764   0.644   4.800  16.165  0.0946 -0.5781  0.1099
   7423SM   H8F 9765   0.661   4.899  16.117 -1.3046 -0.9026 -1.1247
   7423SM   H8G 9766   0.540   4.774  16.193 -0.0703 -2.3658 -1.9172
   7423SM   C9F 9767   0.690   4.706  16.049  0.5377 -0.4154  0.3270
   7423SM   H9F 9768   0.711   4.610  16.099 -0.9555 -0.4587  0.9105
   7423SM   H9G 9769   0.786   4.739  16.003  0.0084 -0.6208 -0.9926
   7423SM  C10F 9770   0.588   4.679  15.940 -0.4459  0.2683  0.6542
   7423SM  H10F 9771   0.538   4.769  15.898 -2.5690 -0.8292  0.7454
   7423SM  H10G 9772   0.509   4.618  15.988  0.4814 -1.5749 -0.0919
   7423SM  C11F 9773   0.639   4.613  15.809 -0.5110 -0.5032 -0.7640
   7423SM  H11F 9774   0.550   4.566  15.762  0.3395 -0.9649 -1.9564
   7423SM  H11G 9775   0.708   4.533  15.842  2.8699  2.9912  1.4213
   7423SM  C12F 9776   0.712   4.708  15.716 -0.0960  0.3098 -0.3540
   7423SM  H12F 9777   0.803   4.742  15.769 -0.8938  1.2900  0.4146
   7423SM  H12G 9778   0.651   4.800  15.704 -0.9477  0.1007  1.9325
   7423SM  C13F 9779   0.765   4.645  15.582  0.1236 -0.6231 -0.2614
   7423SM  H13F 9780   0.684   4.618  15.511  1.3654 -1.1661 -1.5137
   7423SM  H13G 9781   0.803   4.546  15.617 -0.9385 -0.0637  2.8326
   7423SM  C14F 9782   0.859   4.741  15.504 -0.6391  0.1025  0.0860
   7423SM  H14F 9783   0.956   4.760  15.556 -1.1057 -1.7053  1.7237
   7423SM  H14G 9784   0.811   4.841  15.496 -1.5507 -0.3302  0.0315
   7423SM  C15F 9785   0.886   4.702  15.363 -0.0416  0.8415 -0.3523
   7423SM  H15F 9786   0.798   4.659  15.309 -0.1865  1.9630 -1.0581
   7423SM  H15G 9787   0.954   4.615  15.362 -0.7826  0.2560 -0.7112
   7423SM  C16F 9788   0.953   4.810  15.276 -0.2689  0.3367 -0.0732
   7423SM  H16F 9789   1.047   4.839  15.326  0.4929 -1.4284 -0.4289
   7423SM  H16G 9790   0.885   4.898  15.277 -0.2915  0.3194  0.4330
   7423SM  C17F 9791   0.979   4.770  15.129 -0.2368 -0.4363  0.0779
   7423SM  H17F 9792   0.890   4.726  15.079 -0.5108  0.3975 -0.1768
   7423SM  H17G 9793   1.051   4.686  15.138 -2.3281 -2.2789  0.4235
   7423SM  C18F 9794   1.039   4.887  15.053 -0.4957  0.3648 -0.2390
   7423SM  H18F 9795   1.130   4.922  15.107  1.1548 -2.1275 -1.2306
   7423SM  H18G 9796   0.970   4.974  15.045  0.9556  1.4130 -2.5668
   7423SM  C19F 9797   1.067   4.845  14.915 -0.0119 -0.4497  0.7748
   7423SM  H19F 9798   1.117   4.922  14.851  0.0528 -1.9076 -1.0268
   7423SM  H19G 9799   0.970   4.837  14.862  0.1822  1.3022  0.0846
   7423SM  C20F 9800   1.152   4.709  14.904  0.2419  0.0081  0.4832
   7423SM  H20F 9801   1.081   4.625  14.915 -0.3543  0.2777 -1.0864
   7423SM  H20G 9802   1.229   4.704  14.984 -0.0212 -0.7377  0.6980
   7423SM  C21F 9803   1.240   4.705  14.768  0.0170  0.0559 -0.3435
   7423SM  H21F 9804   1.276   4.803  14.731 -1.6911  0.9205  0.1635
   7423SM  H21G 9805   1.160   4.700  14.692 -0.7973  1.1593  0.4072
   7423SM  C22F 9806   1.355   4.597  14.752  0.4923  0.1788 -0.3922
   7423SM  H22F 9807   1.426   4.611  14.836 -0.8510  0.5665  0.7127
   7423SM  H22G 9808   1.393   4.618  14.650 -1.3384  0.1485 -1.1282
   7423SM  C23F 9809   1.300   4.457  14.742  0.6441 -0.2669  0.0872
   7423SM  H23F 9810   1.372   4.381  14.703  1.3373  0.6160 -0.3778
   7423SM  H23G 9811   1.206   4.444  14.684  0.0361 -1.8835  1.3474
   7423SM  H23H 9812   1.277   4.427  14.847 -0.4726  3.4319  1.0439
   7523SM     N 9813   6.750   6.238  17.444  0.2478  0.0824  0.1677
   7523SM   C15 9814   6.698   6.340  17.348  0.1716  0.0333  0.2472
   7523SM  H15A 9815   6.765   6.351  17.265  0.2409 -0.9783  0.1604
   7523SM  H15B 9816   6.695   6.429  17.410 -0.6490  0.4389 -0.3395
   7523SM  H15C 9817   6.598   6.318  17.312 -1.1073 -1.6834  4.2614
   7523SM   C14 9818   6.651   6.235  17.562 -0.2845  0.0218  1.2856
   7523SM  H14A 9819   6.651   6.139  17.610 -2.3367 -1.3581 -1.1831
   7523SM  H14B 9820   6.553   6.248  17.518  0.3950  1.8840  0.2206
   7523SM  H14C 9821   6.668   6.318  17.629  3.4819 -0.1810  0.7925
   7523SM   C13 9822   6.760   6.111  17.363  0.5793 -0.1161  0.5028
   7523SM  H13A 9823   6.828   6.124  17.280  0.2266  1.4413  0.4262
   7523SM  H13B 9824   6.661   6.084  17.329  0.5491 -2.3812  2.1703
   7523SM  H13C 9825   6.795   6.032  17.428 -1.9126 -1.7075  0.0569
   7523SM   C12 9826   6.887   6.277  17.493 -0.3470 -0.0825 -0.2146
   7523SM  H12A 9827   6.887   6.375  17.538  0.7014  0.2673 -0.9507
   7523SM  H12B 9828   6.953   6.269  17.408  0.4817 -0.9688  0.4962
   7523SM   C11 9829   6.959   6.181  17.595  0.4104  0.5066 -0.5316
   7523SM  H11A 9830   6.889   6.141  17.671  0.7617  0.6178 -0.1467
   7523SM  H11B 9831   7.038   6.240  17.646  0.6339  1.1086 -1.5356
   7523SM     P 9832   7.134   6.057  17.448 -0.1196 -0.0077  0.2993
   7523SM   O13 9833   7.245   6.126  17.514 -0.4740 -0.0968 -0.3226
   7523SM   O14 9834   7.153   5.916  17.404 -0.3554  0.0218  0.6191
   7523SM   O11 9835   7.079   6.142  17.325  0.0445  0.8760 -0.0029
   7523SM   O12 9836   7.008   6.060  17.533 -0.8092  0.3597  0.2434
   7523SM   C1S 9837   7.157   6.250  17.263  0.4514 -0.1642 -0.3380
   7523SM   H1S 9838   7.254   6.282  17.306  0.2378  1.1001 -0.7419
   7523SM   H1T 9839   7.103   6.347  17.273  1.3176  0.5204 -1.9984
   7523SM    NF 9840   7.279   6.306  17.064  0.0419  0.1988  0.0725
   7523SM   HNF 9841   7.248   6.379  17.003 -1.7471 -1.6567 -1.3484
   7523SM   C2S 9842   7.179   6.213  17.115 -0.0229  0.4255  0.2934
   7523SM   H2S 9843   7.217   6.108  17.118 -0.8370  0.1393  2.1900
   7523SM   C3S 9844   7.048   6.215  17.042 -0.6990 -0.5478 -0.1754
   7523SM   H3S 9845   6.999   6.311  17.068  2.2976  0.2242  3.3647
   7523SM    O3 9846   6.954   6.121  17.078  0.0939  0.3950 -0.0551
   7523SM   HO3 9847   6.989   6.062  17.145 -3.0184 -1.6824 -0.0450
   7523SM   C4S 9848   7.062   6.204  16.896  0.2133 -0.5991  0.7212
   7523SM   H4S 9849   7.131   6.123  16.866  0.8062  0.1134  0.1020
   7523SM   C5S 9850   6.996   6.274  16.805  0.2511 -0.1735  0.4952
   7523SM   H5S 9851   6.918   6.345  16.834 -1.0630 -2.2297  2.2804
   7523SM   C6S 9852   7.013   6.266  16.654 -0.6847  0.0975  0.7124
   7523SM   H6S 9853   7.028   6.364  16.605  0.0537  0.1352  1.0094
   7523SM   H6T 9854   6.916   6.237  16.607 -1.0986  2.3480  0.0816
   7523SM   C7S 9855   7.118   6.172  16.594  0.1366  0.4072  0.3079
   7523SM   H7S 9856   7.099   6.069  16.632  0.2097  0.3404  0.1627
   7523SM   H7T 9857   7.220   6.209  16.617  1.1100 -1.1434 -1.2730
   7523SM   C8S 9858   7.106   6.169  16.442  0.2475  0.0360 -0.1901
   7523SM   H8S 9859   7.093   6.274  16.407 -1.4433  0.9753  2.9042
   7523SM   H8T 9860   7.014   6.112  16.418  0.6040 -0.1527 -1.1719
   7523SM   C9S 9861   7.222   6.094  16.369 -0.2383  0.2514 -0.2028
   7523SM   H9S 9862   7.230   5.991  16.411 -0.2493  0.4307  0.2407
   7523SM   H9T 9863   7.320   6.146  16.375 -0.3456  0.6578 -1.7000
   7523SM  C10S 9864   7.197   6.071  16.218 -0.3446 -0.7925 -0.9014
   7523SM  H10S 9865   7.147   5.972  16.224 -2.2764  0.2145  0.5789
   7523SM  H10T 9866   7.288   6.063  16.155 -1.0380  0.3879 -2.1062
   7523SM  C11S 9867   7.106   6.171  16.156  0.3819  0.8479 -0.9804
   7523SM  H11S 9868   7.157   6.267  16.180  3.9059 -1.7454  3.6425
   7523SM  H11T 9869   7.007   6.171  16.207  1.5753  0.0911  1.4966
   7523SM  C12S 9870   7.096   6.147  16.006  1.2109 -0.1414  0.8002
   7523SM  H12S 9871   7.189   6.188  15.961  0.5846  0.2080 -0.2082
   7523SM  H12T 9872   7.013   6.212  15.972  0.5092 -0.2560  2.2601
   7523SM  C13S 9873   7.055   6.007  15.961 -0.2193 -1.2329 -0.5759
   7523SM  H13S 9874   6.947   5.998  15.988 -0.2111 -0.5268 -0.2741
   7523SM  H13T 9875   7.124   5.935  16.011  1.7877 -0.0067 -1.4729
   7523SM  C14S 9876   7.063   5.983  15.810  0.5930  0.5106  0.2205
   7523SM  H14S 9877   7.159   6.022  15.770 -0.4878  4.6253  1.1964
   7523SM  H14T 9878   6.983   6.041  15.760  0.9684  0.3883 -0.5351
   7523SM  C15S 9879   7.039   5.836  15.778  0.5691 -0.8576 -1.0915
   7523SM  H15S 9880   6.928   5.835  15.786  0.3816  0.0877 -2.9102
   7523SM  H15T 9881   7.095   5.769  15.846 -0.6450 -1.3963 -0.5826
   7523SM  C16S 9882   7.051   5.804  15.633 -0.6396 -0.3474  0.0733
   7523SM  H16S 9883   6.972   5.861  15.580 -0.3617  1.5028  1.5289
   7523SM  H16T 9884   7.031   5.695  15.636 -1.9840 -0.1160  0.4045
   7523SM  C17S 9885   7.190   5.825  15.558 -0.9245  0.3891 -0.5021
   7523SM  H17S 9886   7.274   5.774  15.610 -1.9826 -0.7673  0.1445
   7523SM  H17T 9887   7.218   5.932  15.565  0.5110  0.0214 -0.2870
   7523SM  C18S 9888   7.177   5.786  15.415  0.3206  0.4323  1.3733
   7523SM  H18S 9889   7.144   5.680  15.407  1.4666 -0.0021  2.2298
   7523SM  H18T 9890   7.266   5.799  15.351 -2.1888  1.7049 -2.1805
   7523SM  H18U 9891   7.099   5.844  15.361  2.8695  3.4891  0.6323
   7523SM   C1F 9892   7.406   6.311  17.099 -0.1901 -0.4386 -0.4859
   7523SM    OF 9893   7.450   6.219  17.169  0.1102 -0.0341  0.0974
   7523SM   C2F 9894   7.481   6.438  17.059 -0.6990 -0.3783  0.2452
   7523SM   H2F 9895   7.555   6.456  17.140 -1.6574  0.6714  0.9187
   7523SM   H2G 9896   7.408   6.522  17.057  1.0546  1.1837 -0.5560
   7523SM   C3F 9897   7.565   6.433  16.925  0.3695  0.3542 -0.0885
   7523SM   H3F 9898   7.625   6.341  16.909 -0.8094 -0.7440  1.4698
   7523SM   H3G 9899   7.633   6.520  16.927 -0.9542  1.4294  2.8279
   7523SM   C4F 9900   7.470   6.454  16.805 -1.1673 -0.3538  0.3224
   7523SM   H4F 9901   7.430   6.557  16.816  3.7902  1.7729  1.0044
   7523SM   H4G 9902   7.382   6.386  16.804 -1.1923 -0.3285 -1.1288
   7523SM   C5F 9903   7.541   6.451  16.668  0.0783  0.2640  0.4233
   7523SM   H5F 9904   7.594   6.354  16.660 -1.6039 -0.6075 -0.7773
   7523SM   H5G 9905   7.616   6.532  16.667 -0.9612  1.2556  0.4637
   7523SM   C6F 9906   7.447   6.462  16.546 -0.1575 -0.1200  0.1217
   7523SM   H6F 9907   7.380   6.551  16.551 -1.3591 -0.9710 -0.2766
   7523SM   H6G 9908   7.389   6.368  16.537  2.6367 -2.0456  0.8844
   7523SM   C7F 9909   7.520   6.476  16.413  0.9276 -0.1443 -0.8300
   7523SM   H7F 9910   7.595   6.394  16.402  0.1231 -1.4902  2.3600
   7523SM   H7G 9911   7.581   6.569  16.411  1.0859  0.0439  3.2811
   7523SM   C8F 9912   7.418   6.472  16.300  0.4750  0.7903  0.6845
   7523SM   H8F 9913   7.366   6.570  16.302  0.3037  0.7003  0.6382
   7523SM   H8G 9914   7.344   6.391  16.311  1.3081  0.1207  1.5771
   7523SM   C9F 9915   7.496   6.465  16.164  0.0604  0.4394 -0.9573
   7523SM   H9F 9916   7.554   6.370  16.158 -1.7937 -0.6687 -2.6814
   7523SM   H9G 9917   7.576   6.542  16.166 -1.1448  1.7166 -0.0524
   7523SM  C10F 9918   7.403   6.475  16.043 -0.5910 -0.9869 -0.3534
   7523SM  H10F 9919   7.342   6.567  16.049 -0.1329 -0.7265  0.5080
   7523SM  H10G 9920   7.335   6.387  16.047 -3.1695  0.9551  1.3797
   7523SM  C11F 9921   7.486   6.478  15.915  0.0454  1.2477  0.7045
   7523SM  H11F 9922   7.546   6.385  15.913 -1.6817 -0.0008  2.5351
   7523SM  H11G 9923   7.551   6.568  15.918  0.2198  1.0980  2.2993
   7523SM  C12F 9924   7.394   6.489  15.802  0.2901 -0.5759  0.0760
   7523SM  H12F 9925   7.334   6.581  15.820  1.3654  0.5140 -1.5411
   7523SM  H12G 9926   7.326   6.402  15.795  0.5364 -0.7834  0.2959
   7523SM  C13F 9927   7.455   6.506  15.661 -0.4483 -0.3549  0.4804
   7523SM  H13F 9928   7.526   6.591  15.652 -1.5475  0.4321 -1.2425
   7523SM  H13G 9929   7.383   6.535  15.581 -1.6136 -2.8089  0.5245
   7523SM  C14F 9930   7.532   6.383  15.608 -0.4095 -0.0238  0.3759
   7523SM  H14F 9931   7.603   6.348  15.686  0.0174  2.1300  1.0444
   7523SM  H14G 9932   7.603   6.407  15.525  1.2599 -0.8087  1.5155
   7523SM  C15F 9933   7.436   6.266  15.570  0.0722  0.7117  0.1099
   7523SM  H15F 9934   7.350   6.252  15.639 -0.6470  0.9664 -0.7295
   7523SM  H15G 9935   7.490   6.169  15.563  0.5840  1.1142 -2.1578
   7523SM  C16F 9936   7.371   6.283  15.431  0.2596 -0.6289  0.2238
   7523SM  H16F 9937   7.452   6.300  15.357 -0.7296 -0.0716 -0.7452
   7523SM  H16G 9938   7.313   6.377  15.426  2.2465  0.6443 -0.2716
   7523SM  C17F 9939   7.277   6.167  15.387 -0.1387 -0.4473 -0.1776
   7523SM  H17F 9940   7.185   6.163  15.449  0.3011  0.4188  0.5558
   7523SM  H17G 9941   7.337   6.074  15.393  0.4192 -0.0140  1.2469
   7523SM  C18F 9942   7.234   6.170  15.238 -0.4713  0.6643  0.3200
   7523SM  H18F 9943   7.322   6.180  15.172 -2.6562 -1.0185 -3.1327
   7523SM  H18G 9944   7.182   6.269  15.238  0.4382  1.1617 -0.7582
   7523SM  C19F 9945   7.147   6.049  15.184  0.1496 -0.9196 -0.2021
   7523SM  H19F 9946   7.066   6.019  15.255  0.0270 -0.3161 -0.0802
   7523SM  H19G 9947   7.213   5.960  15.181  2.3897  0.6491 -0.1881
   7523SM  C20F 9948   7.090   6.080  15.042 -0.2099 -0.0706  0.1274
   7523SM  H20F 9949   7.038   5.989  15.004  0.1622 -0.9848  1.7397
   7523SM  H20G 9950   7.178   6.089  14.975 -1.0829  0.6265 -0.9727
   7523SM  C21F 9951   7.009   6.210  15.032 -0.3938  0.1957  0.3793
   7523SM  H21F 9952   6.960   6.211  14.933 -0.3582 -0.0963  0.3604
   7523SM  H21G 9953   7.079   6.295  15.048 -0.3152 -0.1150  1.8576
   7523SM  C22F 9954   6.897   6.226  15.139  0.8239  0.1058  0.2584
   7523SM  H22F 9955   6.942   6.230  15.241 -1.0244  1.2796  1.0822
   7523SM  H22G 9956   6.842   6.130  15.143 -1.6691  1.4779  1.4351
   7523SM  C23F 9957   6.798   6.346  15.116  0.0774  0.2534  0.0430
   7523SM  H23F 9958   6.703   6.336  15.172 -0.4607  2.9934 -0.2235
   7523SM  H23G 9959   6.771   6.340  15.008 -2.3517  0.7109  0.5800
   7523SM  H23H 9960   6.848   6.438  15.153  0.8723 -0.9613  2.1802
   7623SM     N 9961   0.938   5.110  17.518  0.1949  0.3144  0.3553
   7623SM   C15 9962   0.811   5.099  17.438 -0.7904  0.3197 -0.5238
   7623SM  H15A 9963   0.813   5.127  17.334 -0.5839  2.2915 -0.0233
   7623SM  H15B 9964   0.734   5.157  17.486  0.2014  1.5144 -0.3257
   7623SM  H15C 9965   0.774   4.997  17.436  0.0415  0.0008 -0.0463
   7623SM   C14 9966   0.908   5.040  17.654 -0.3011 -0.6892  0.1619
   7623SM  H14A 9967   0.829   5.092  17.707  0.5605 -0.5704  1.3528
   7623SM  H14B 9968   1.002   5.032  17.705 -0.7004  1.7589  1.4149
   7623SM  H14C 9969   0.872   4.938  17.645 -1.6251 -0.2861  0.6902
   7623SM   C13 9970   1.057   5.042  17.454 -0.3828 -0.5080  0.2495
   7623SM  H13A 9971   1.144   5.053  17.517 -2.4964  2.3789  2.9911
   7623SM  H13B 9972   1.067   5.087  17.357 -0.0881 -2.4821 -0.6968
   7623SM  H13C 9973   1.043   4.936  17.437 -1.8405 -0.1580 -1.0236
   7623SM   C12 9974   0.987   5.254  17.540 -0.1575  0.3142  0.3249
   7623SM  H12A 9975   0.998   5.303  17.444  1.4046  1.4662  1.0506
   7623SM  H12B 9976   1.087   5.247  17.580  0.0383 -1.5551 -0.3986
   7623SM   C11 9977   0.908   5.349  17.626 -0.6765 -0.3961 -0.1356
   7623SM  H11A 9978   0.987   5.423  17.653  1.5072 -2.1938 -1.2683
   7623SM  H11B 9979   0.871   5.302  17.720  1.3680 -1.8536  0.0292
   7623SM     P 9980   0.818   5.541  17.474  0.2208 -0.1087  0.2854
   7623SM   O13 9981   0.698   5.576  17.394 -0.0321  0.2341  0.1137
   7623SM   O14 9982   0.869   5.648  17.556 -0.7644  0.6047  0.3604
   7623SM   O11 9983   0.935   5.515  17.366  0.1798 -0.1926  0.5266
   7623SM   O12 9984   0.796   5.407  17.553 -0.2189  1.0724  0.1149
   7623SM   C1S 9985   0.919   5.438  17.250 -0.0285  0.4496 -0.1365
   7623SM   H1S 9986   0.819   5.390  17.258 -0.7511  2.1975  2.8672
   7623SM   H1T 9987   0.995   5.358  17.256  0.5329  1.0377  0.9452
   7623SM    NF 9988   0.897   5.424  16.999  0.3562 -0.5071 -0.6368
   7623SM   HNF 9989   0.965   5.407  16.929 -0.2700  0.9236 -1.6469
   7623SM   C2S 9990   0.926   5.515  17.116  0.3757  0.4425  0.7641
   7623SM   H2S 9991   0.852   5.598  17.113  0.4734  0.5483 -2.0113
   7623SM   C3S 9992   1.062   5.588  17.102 -0.2392 -0.2850  0.6182
   7623SM   H3S 9993   1.145   5.514  17.103  0.5579  0.5912  1.1506
   7623SM    O3 9994   1.101   5.685  17.202  0.0921 -0.2461 -0.1563
   7623SM   HO3 9995   1.051   5.658  17.280 -0.4735  0.8682 -0.1187
   7623SM   C4S 9996   1.056   5.657  16.968  0.0783 -0.7360  0.0078
   7623SM   H4S 9997   0.991   5.745  16.968  0.1452 -0.6384 -1.9388
   7623SM   C5S 9998   1.128   5.625  16.859  0.0624  0.5082 -0.2818
   7623SM   H5S 9999   1.204   5.545  16.860 -0.8694 -0.3985  0.7045
   7623SM   C6S10000   1.112   5.697  16.727  0.2710  0.0191 -0.3473
   7623SM   H6S10001   1.090   5.613  16.658  0.8213 -1.3062  1.0483
   7623SM   H6T10002   1.206   5.746  16.693 -0.4564  1.8717  0.1663
   7623SM   C7S10003   1.006   5.808  16.712 -0.4544  0.1740 -1.0365
   7623SM   H7S10004   1.021   5.902  16.770  1.1882  0.1821 -1.4393
   7623SM   H7T10005   0.908   5.769  16.749 -0.7669  2.4094  0.7113
   7623SM   C8S10006   0.988   5.855  16.563 -0.1646  0.3251 -0.0487
   7623SM   H8S10007   0.958   5.770  16.498 -2.3948  0.5163  0.6559
   7623SM   H8T10008   1.084   5.897  16.525  0.6357 -2.3008 -1.1620
   7623SM   C9S10009   0.879   5.954  16.539 -0.8666 -0.0848 -0.5666
   7623SM   H9S10010   0.840   5.989  16.637 -0.0444 -0.3763 -0.1263
   7623SM   H9T10011   0.789   5.909  16.491 -0.6793 -0.8519 -0.2096
   7623SM  C10S10012   0.923   6.079  16.455  0.3456  0.1675 -0.4275
   7623SM  H10S10013   0.989   6.044  16.372 -0.8150  1.7529 -2.1072
   7623SM  H10T10014   0.992   6.146  16.512  0.6703 -0.4191 -0.1227
   7623SM  C11S10015   0.800   6.141  16.390  0.6817  0.2084 -0.5884
   7623SM  H11S10016   0.727   6.165  16.470 -0.5455 -0.1215 -1.5782
   7623SM  H11T10017   0.747   6.077  16.316  0.3408  0.1738 -0.3176
   7623SM  C12S10018   0.830   6.277  16.321 -0.5457 -0.0497 -0.0490
   7623SM  H12S10019   0.925   6.276  16.263 -0.7071 -0.5519 -0.3115
   7623SM  H12T10020   0.847   6.350  16.403 -1.2857  0.5638 -0.4256
   7623SM  C13S10021   0.726   6.340  16.234  0.5787  0.0415  0.2417
   7623SM  H13S10022   0.748   6.447  16.209 -2.9345  0.8954  0.2698
   7623SM  H13T10023   0.639   6.342  16.302 -0.2864 -1.1147 -0.8036
   7623SM  C14S10024   0.676   6.268  16.106 -0.4842  0.3016 -0.9549
   7623SM  H14S10025   0.590   6.321  16.059  0.5279  1.8148 -1.1469
   7623SM  H14T10026   0.627   6.171  16.132 -0.7172  0.6393 -0.0795
   7623SM  C15S10027   0.791   6.239  16.012  0.1664 -0.1976  0.0932
   7623SM  H15S10028   0.863   6.172  16.064 -0.5668 -0.0758  1.3161
   7623SM  H15T10029   0.842   6.336  15.991 -1.0346  0.1252 -1.4599
   7623SM  C16S10030   0.751   6.178  15.878  0.3626  0.1594  0.1019
   7623SM  H16S10031   0.684   6.093  15.905  1.1788 -0.5145  0.0646
   7623SM  H16T10032   0.844   6.163  15.819  0.1738  0.5537 -0.3022
   7623SM  C17S10033   0.675   6.272  15.785 -0.1458  0.8922 -0.0768
   7623SM  H17S10034   0.740   6.356  15.752  1.0524  0.0461  0.0821
   7623SM  H17T10035   0.590   6.324  15.834 -1.1632 -0.3466 -0.4729
   7623SM  C18S10036   0.626   6.197  15.654 -0.0780  0.5856  0.1289
   7623SM  H18S10037   0.707   6.151  15.594 -0.8687 -0.2097 -0.3699
   7623SM  H18T10038   0.564   6.265  15.591 -0.0247  0.9298  0.4524
   7623SM  H18U10039   0.548   6.122  15.680 -0.4496  1.6235  2.1583
   7623SM   C1F10040   0.770   5.381  16.982 -0.0092 -0.1267 -0.1647
   7623SM    OF10041   0.682   5.432  17.045 -0.2434  0.1708 -0.8040
   7623SM   C2F10042   0.764   5.265  16.894  0.2175  0.4140 -0.4197
   7623SM   H2F10043   0.781   5.176  16.957  0.5902  0.8931  0.1683
   7623SM   H2G10044   0.854   5.278  16.830 -0.6488  1.0750 -1.5466
   7623SM   C3F10045   0.645   5.260  16.802 -0.3474 -0.3715 -0.6345
   7623SM   H3F10046   0.557   5.251  16.869  0.4418  0.2505  0.5041
   7623SM   H3G10047   0.651   5.168  16.740 -0.0664 -1.8889  1.5460
   7623SM   C4F10048   0.626   5.381  16.703 -0.0713 -0.1698  0.3411
   7623SM   H4F10049   0.626   5.482  16.748 -0.9645  0.4049 -0.8769
   7623SM   H4G10050   0.520   5.373  16.671 -0.1483 -1.6306  0.8662
   7623SM   C5F10051   0.719   5.381  16.584  0.0972 -0.7339  0.0649
   7623SM   H5F10052   0.687   5.302  16.513  0.8180 -0.6739 -0.3372
   7623SM   H5G10053   0.824   5.360  16.613  0.3183  0.7223  0.3781
   7623SM   C6F10054   0.727   5.514  16.501  0.0276  0.2409 -0.6180
   7623SM   H6F10055   0.773   5.599  16.557  0.0256 -0.6097  0.7199
   7623SM   H6G10056   0.622   5.543  16.478 -1.6833 -3.3412  1.6807
   7623SM   C7F10057   0.799   5.502  16.368 -0.5439  0.5096  0.3988
   7623SM   H7F10058   0.761   5.421  16.303  3.2862 -0.8055 -0.4982
   7623SM   H7G10059   0.905   5.471  16.384  0.3949  2.3703 -1.7762
   7623SM   C8F10060   0.789   5.628  16.288 -0.6461 -0.8664 -0.2842
   7623SM   H8F10061   0.812   5.718  16.347 -0.1447 -0.4870 -1.0415
   7623SM   H8G10062   0.685   5.647  16.255  0.3153  3.8377 -1.2082
   7623SM   C9F10063   0.882   5.639  16.160  0.0565  0.3162 -0.1452
   7623SM   H9F10064   0.841   5.563  16.090  0.2076 -0.2987  0.4207
   7623SM   H9G10065   0.985   5.609  16.190 -0.6863  0.3663  2.8064
   7623SM  C10F10066   0.863   5.771  16.085  0.0998  0.5877 -0.8477
   7623SM  H10F10067   0.868   5.852  16.161 -1.4973 -0.3830  0.3580
   7623SM  H10G10068   0.762   5.764  16.039 -0.6636  0.7818  0.7374
   7623SM  C11F10069   0.972   5.800  15.985 -0.0820  0.2411 -0.3337
   7623SM  H11F10070   1.072   5.792  16.031 -0.2554 -2.1076 -0.2250
   7623SM  H11G10071   0.953   5.900  15.940 -1.2900 -0.3757 -1.2567
   7623SM  C12F10072   0.991   5.678  15.888 -0.3444 -0.5063  0.3486
   7623SM  H12F10073   0.896   5.636  15.850 -1.4309  1.1549  1.1679
   7623SM  H12G10074   1.036   5.593  15.945  0.8459 -1.3391 -1.7386
   7623SM  C13F10075   1.102   5.708  15.777 -0.3280 -0.2897 -0.3592
   7623SM  H13F10076   1.196   5.740  15.828  0.2425 -0.9137 -0.9914
   7623SM  H13G10077   1.076   5.802  15.724 -1.1854 -0.4927 -0.3107
   7623SM  C14F10078   1.119   5.604  15.668 -0.0636  0.0754  0.1854
   7623SM  H14F10079   1.040   5.612  15.590  1.5432  0.1985 -1.5152
   7623SM  H14G10080   1.095   5.505  15.711  1.3692 -0.7561 -0.8636
   7623SM  C15F10081   1.261   5.611  15.597  0.6550 -0.1519  0.4455
   7623SM  H15F10082   1.299   5.512  15.562  2.2936  0.2472  1.0160
   7623SM  H15G10083   1.335   5.645  15.672  1.4505 -0.1425 -0.3276
   7623SM  C16F10084   1.251   5.712  15.475 -0.7001  0.4006 -0.4830
   7623SM  H16F10085   1.224   5.809  15.522 -1.3383  0.1846 -0.3952
   7623SM  H16G10086   1.172   5.679  15.403  0.8930 -0.8738 -1.7129
   7623SM  C17F10087   1.385   5.751  15.414  0.2996  0.5948  0.3882
   7623SM  H17F10088   1.422   5.668  15.350  1.0341 -0.4242  2.0804
   7623SM  H17G10089   1.463   5.761  15.493  1.4963  0.9930 -0.8089
   7623SM  C18F10090   1.383   5.883  15.338 -0.7894  0.0323  0.2616
   7623SM  H18F10091   1.366   5.965  15.411  0.3399 -0.1408  0.7450
   7623SM  H18G10092   1.301   5.875  15.264  2.0543 -1.7905 -2.9940
   7623SM  C19F10093   1.515   5.905  15.260  0.5111  0.0125  0.6538
   7623SM  H19F10094   1.541   5.803  15.225 -2.8845 -0.9462  0.5446
   7623SM  H19G10095   1.586   5.949  15.333  3.0566 -0.9404 -1.1271
   7623SM  C20F10096   1.490   6.004  15.149 -0.7637 -0.3964  0.4103
   7623SM  H20F10097   1.436   6.096  15.181 -0.4869  1.0370 -2.8820
   7623SM  H20G10098   1.412   5.964  15.081 -1.1869  1.9714 -0.5904
   7623SM  C21F10099   1.604   6.033  15.043 -0.6869  0.0581 -0.6591
   7623SM  H21F10100   1.558   6.112  14.979  2.0412  1.8541 -0.5843
   7623SM  H21G10101   1.628   5.940  14.988 -0.0717  0.4712 -1.1065
   7623SM  C22F10102   1.735   6.083  15.101  0.0397 -0.1874 -0.0011
   7623SM  H22F10103   1.712   6.153  15.184 -2.1075  0.6320 -1.2296
   7623SM  H22G10104   1.795   6.138  15.026  0.2177 -1.9786 -1.2405
   7623SM  C23F10105   1.836   5.966  15.148  0.4273  0.5332  0.3855
   7623SM  H23F10106   1.789   5.918  15.236  1.3994  1.0731  1.2132
   7623SM  H23G10107   1.934   6.010  15.176  0.1072  1.1125  0.6249
   7623SM  H23H10108   1.853   5.902  15.059  2.1549  2.5154 -0.8272
   7723SM     N10109   1.026   1.893  17.593  0.2624 -0.0124  0.3582
   7723SM   C1510110   1.060   2.031  17.649 -0.1886  0.1007 -0.0658
   7723SM  H15A10111   1.148   2.082  17.611  0.3403 -0.9473 -0.2958
   7723SM  H15B10112   1.062   2.038  17.757 -0.3854 -1.8954  0.1079
   7723SM  H15C10113   0.979   2.097  17.623  0.0267  0.6048  0.5109
   7723SM   C1410114   1.127   1.791  17.641  0.1706 -0.2316 -0.1564
   7723SM  H14A10115   1.086   1.693  17.621  1.8436 -0.8470 -0.7358
   7723SM  H14B10116   1.151   1.806  17.745 -0.2322 -0.7344  0.0174
   7723SM  H14C10117   1.209   1.801  17.572 -2.4271 -3.2382 -4.1636
   7723SM   C1310118   0.892   1.860  17.646  0.0573 -0.3892 -0.8538
   7723SM  H13A10119   0.807   1.902  17.593 -0.0012  1.2576  0.4456
   7723SM  H13B10120   0.888   1.892  17.749  3.0186 -0.1132 -0.7540
   7723SM  H13C10121   0.874   1.754  17.643 -0.9154 -0.3085  0.8115
   7723SM   C1210122   1.023   1.909  17.441 -0.2533  0.1427  0.0716
   7723SM  H12A10123   1.113   1.961  17.414 -0.3629  0.1565 -0.2796
   7723SM  H12B10124   0.948   1.985  17.421 -0.4307 -0.0451  0.0154
   7723SM   C1110125   0.996   1.791  17.343 -0.8675  0.3455 -0.6959
   7723SM  H11A10126   1.060   1.708  17.378 -0.3841  1.3741  0.9848
   7723SM  H11B10127   1.018   1.803  17.235 -1.0788 -3.2478 -1.2484
   7723SM     P10128   0.743   1.833  17.292 -0.6034  0.3116 -0.0723
   7723SM   O1310129   0.616   1.753  17.308  0.1770  0.1065  0.3146
   7723SM   O1410130   0.745   1.964  17.365  0.1246  0.3232 -0.0399
   7723SM   O1110131   0.788   1.847  17.147  0.2125  0.1796  0.2474
   7723SM   O1210132   0.860   1.743  17.357 -0.5264 -0.2712  0.6325
   7723SM   C1S10133   0.734   1.756  17.045  0.6409 -0.5308  0.2095
   7723SM   H1S10134   0.625   1.768  17.029  0.9424  2.1271 -0.3102
   7723SM   H1T10135   0.770   1.652  17.059  3.4065  0.2412 -0.6353
   7723SM    NF10136   0.763   1.691  16.812  0.7366  0.4924  0.3002
   7723SM   HNF10137   0.834   1.630  16.776 -0.9771 -1.3566 -0.1152
   7723SM   C2S10138   0.788   1.801  16.903 -0.9755  0.1550  0.8573
   7723SM   H2S10139   0.738   1.894  16.867  2.1367  1.9124  0.6737
   7723SM   C3S10140   0.944   1.822  16.905  0.7749  0.0335  0.0827
   7723SM   H3S10141   0.989   1.737  16.959  0.7198  0.7369  1.2646
   7723SM    O310142   0.963   1.944  16.971  0.1443  0.3535  0.1591
   7723SM   HO310143   0.891   1.936  17.034  0.7442  0.7121  0.9098
   7723SM   C4S10144   1.003   1.838  16.770 -0.6720  0.5429  0.1273
   7723SM   H4S10145   1.072   1.754  16.758 -1.6414 -0.0759 -1.6591
   7723SM   C5S10146   0.993   1.937  16.682  0.0011  0.9238  0.4404
   7723SM   H5S10147   0.931   2.028  16.692 -0.8827  0.5544 -1.1952
   7723SM   C6S10148   1.066   1.931  16.549  0.1020 -0.5999  0.0842
   7723SM   H6S10149   1.145   1.855  16.531 -0.5217 -0.8250 -1.9086
   7723SM   H6T10150   1.106   2.034  16.537 -1.8079  0.2462  0.5166
   7723SM   C7S10151   0.950   1.906  16.446  0.8757  0.2993 -0.2165
   7723SM   H7S10152   0.868   1.982  16.450 -0.3427 -0.9914  0.5437
   7723SM   H7T10153   0.903   1.811  16.480 -0.2553  0.7142 -0.5611
   7723SM   C8S10154   1.004   1.883  16.299 -0.6719 -0.0592  0.0594
   7723SM   H8S10155   1.091   1.814  16.308 -0.0943  0.4862 -1.0250
   7723SM   H8T10156   1.040   1.981  16.259 -0.3155  0.9993  2.7904
   7723SM   C9S10157   0.902   1.839  16.194  0.4489 -0.1610 -0.1553
   7723SM   H9S10158   0.817   1.911  16.204 -0.9146 -1.5689 -1.1674
   7723SM   H9T10159   0.861   1.737  16.206 -0.1173  0.1440  0.5540
   7723SM  C10S10160   0.959   1.855  16.049 -0.0343 -0.4811 -0.1290
   7723SM  H10S10161   1.053   1.795  16.045 -0.6090 -1.6884  2.3020
   7723SM  H10T10162   0.992   1.962  16.049 -0.7086 -0.2619 -1.0768
   7723SM  C11S10163   0.857   1.816  15.942  0.1684  0.1281  0.4578
   7723SM  H11S10164   0.777   1.893  15.944  0.4952  0.4704  2.4690
   7723SM  H11T10165   0.820   1.716  15.972 -0.2078  0.3578  0.7699
   7723SM  C12S10166   0.926   1.809  15.801 -0.4372  0.6769 -0.0054
   7723SM  H12S10167   1.005   1.732  15.797 -1.4103 -0.3049 -1.0951
   7723SM  H12T10168   0.970   1.909  15.780  0.6377  0.4034  0.8562
   7723SM  C13S10169   0.808   1.765  15.702  0.0976 -0.3666  0.0833
   7723SM  H13S10170   0.725   1.837  15.713 -0.5105 -1.1673  0.8443
   7723SM  H13T10171   0.767   1.663  15.718 -0.3493 -0.2672 -0.4042
   7723SM  C14S10172   0.859   1.792  15.556  0.6176  0.2530 -0.5654
   7723SM  H14S10173   0.944   1.863  15.556 -1.8110  3.3499 -0.4210
   7723SM  H14T10174   0.775   1.828  15.493 -2.2487 -3.0219  1.0065
   7723SM  C15S10175   0.915   1.664  15.487  0.2323  0.3147  0.6530
   7723SM  H15S10176   0.956   1.596  15.565  1.0999  1.1260  0.9153
   7723SM  H15T10177   0.996   1.703  15.423 -0.2492 -2.2371 -1.6816
   7723SM  C16S10178   0.822   1.577  15.391 -0.3385  0.7200 -0.4966
   7723SM  H16S10179   0.720   1.557  15.431 -0.1043 -0.2938 -0.3765
   7723SM  H16T10180   0.874   1.484  15.360  1.4351  1.3670  0.4160
   7723SM  C17S10181   0.786   1.643  15.252  0.2078 -0.4671  0.1746
   7723SM  H17S10182   0.879   1.664  15.194 -0.0637  0.1309 -0.0543
   7723SM  H17T10183   0.754   1.745  15.282  1.2017  0.2485 -1.1052
   7723SM  C18S10184   0.688   1.576  15.162 -0.1103 -0.4636 -0.2149
   7723SM  H18S10185   0.716   1.475  15.127 -0.0544  0.1753 -2.1457
   7723SM  H18T10186   0.668   1.648  15.079 -1.9041  0.3797  0.8756
   7723SM  H18U10187   0.592   1.557  15.215 -0.4166 -1.8808 -1.2179
   7723SM   C1F10188   0.634   1.681  16.761 -0.4908  0.1075  0.9369
   7723SM    OF10189   0.549   1.756  16.807 -0.2444  0.5447  0.5042
   7723SM   C2F10190   0.593   1.582  16.652 -0.4960  0.3153 -0.2820
   7723SM   H2F10191   0.513   1.519  16.697  0.1237  0.3118  0.8656
   7723SM   H2G10192   0.676   1.514  16.625  0.2661  0.7044  1.0009
   7723SM   C3F10193   0.542   1.650  16.518  0.2329  0.4457  0.2041
   7723SM   H3F10194   0.619   1.728  16.499 -1.6124  2.0700 -1.0839
   7723SM   H3G10195   0.442   1.693  16.540 -0.2690 -1.2943  1.5998
   7723SM   C4F10196   0.534   1.543  16.409 -0.0222 -0.1189  0.5249
   7723SM   H4F10197   0.491   1.447  16.444  0.3471 -0.2526  0.6217
   7723SM   H4G10198   0.637   1.530  16.368 -0.4545  1.3811 -1.1448
   7723SM   C5F10199   0.455   1.600  16.282 -0.1233  0.7823 -0.3072
   7723SM   H5F10200   0.483   1.707  16.274  1.1303  0.3982 -1.3744
   7723SM   H5G10201   0.351   1.599  16.323 -0.0834 -1.7005 -0.0995
   7723SM   C6F10202   0.479   1.524  16.149 -0.0387 -0.1605 -0.7122
   7723SM   H6F10203   0.416   1.433  16.149  0.8795 -0.8258  0.5428
   7723SM   H6G10204   0.585   1.493  16.140  0.1460  0.0575  0.5227
   7723SM   C7F10205   0.436   1.614  16.028 -0.6476 -0.2352  0.3363
   7723SM   H7F10206   0.500   1.703  16.013 -0.5060 -0.8285 -3.7896
   7723SM   H7G10207   0.332   1.649  16.048 -0.9355 -0.8105 -0.1438
   7723SM   C8F10208   0.438   1.545  15.894 -0.0120 -0.5603 -0.0490
   7723SM   H8F10209   0.364   1.465  15.877 -0.4201 -1.1252  3.6071
   7723SM   H8G10210   0.533   1.488  15.892 -0.3958 -1.2247  0.3136
   7723SM   C9F10211   0.418   1.644  15.780  0.3547 -0.2767  0.0519
   7723SM   H9F10212   0.485   1.732  15.794  2.8466 -1.8420 -1.2005
   7723SM   H9G10213   0.315   1.686  15.780  0.3994 -0.1592 -0.5113
   7723SM  C10F10214   0.449   1.589  15.641  0.3420  0.4698  0.1348
   7723SM  H10F10215   0.391   1.494  15.642  1.5249 -0.3127  2.5595
   7723SM  H10G10216   0.555   1.571  15.615  0.3944 -0.6946  1.0894
   7723SM  C11F10217   0.376   1.685  15.538  0.8116 -0.0510 -0.0841
   7723SM  H11F10218   0.269   1.704  15.560  0.7495 -0.5281  0.0366
   7723SM  H11G10219   0.380   1.637  15.438 -0.6358 -0.0709 -0.1546
   7723SM  C12F10220   0.443   1.821  15.533 -0.5522 -0.3882 -0.2293
   7723SM  H12F10221   0.552   1.811  15.511 -0.4691  1.2840 -0.6811
   7723SM  H12G10222   0.434   1.874  15.629  2.1542 -0.2248  0.0093
   7723SM  C13F10223   0.370   1.923  15.439  0.3827  0.6699 -0.2077
   7723SM  H13F10224   0.412   2.021  15.469 -0.3289  0.5284  1.3988
   7723SM  H13G10225   0.261   1.921  15.465  0.9215  1.4548  2.4116
   7723SM  C14F10226   0.387   1.890  15.292 -0.2491  0.6914 -0.0210
   7723SM  H14F10227   0.335   1.795  15.268 -1.1763  1.6082 -1.7382
   7723SM  H14G10228   0.496   1.876  15.279 -0.5199  0.2208 -2.0905
   7723SM  C15F10229   0.333   1.989  15.191  0.0478  0.7354  0.1155
   7723SM  H15F10230   0.406   2.072  15.188 -2.2340  2.8077 -0.6588
   7723SM  H15G10231   0.246   2.049  15.224  0.4875  0.6314  1.5512
   7723SM  C16F10232   0.316   1.932  15.051  0.6161 -0.6770  0.0301
   7723SM  H16F10233   0.234   1.857  15.058 -0.2334  0.2109 -0.1795
   7723SM  H16G10234   0.401   1.870  15.016  1.8289 -0.4587  2.4006
   7723SM  C17F10235   0.292   2.055  14.958 -0.6798  0.1162  0.4606
   7723SM  H17F10236   0.215   2.124  14.998  0.0606  1.8148 -0.9011
   7723SM  H17G10237   0.253   2.003  14.867 -2.2331 -1.5247  1.9884
   7723SM  C18F10238   0.416   2.141  14.922  0.5648  0.0756 -0.2544
   7723SM  H18F10239   0.476   2.158  15.014 -1.1340 -2.3608  1.4191
   7723SM  H18G10240   0.374   2.239  14.891  0.9265  0.9211  1.7386
   7723SM  C19F10241   0.485   2.075  14.803 -0.5696  0.4371  0.1398
   7723SM  H19F10242   0.409   2.050  14.726 -2.0808 -0.1844  1.7417
   7723SM  H19G10243   0.514   1.973  14.838  0.5808  0.9345  0.7053
   7723SM  C20F10244   0.601   2.143  14.734  0.0080  0.1987 -0.0500
   7723SM  H20F10245   0.564   2.246  14.714 -2.2161 -0.0690  2.2340
   7723SM  H20G10246   0.635   2.084  14.647 -2.3553 -1.5920  0.1599
   7723SM  C21F10247   0.717   2.174  14.835  0.2458  0.5149 -0.7307
   7723SM  H21F10248   0.673   2.224  14.923  1.4735  0.9037 -0.3187
   7723SM  H21G10249   0.787   2.244  14.785  1.9408 -0.6349 -0.0548
   7723SM  C22F10250   0.795   2.046  14.880 -0.2948  0.0317 -0.4522
   7723SM  H22F10251   0.849   1.995  14.798 -0.0777 -0.6979  0.1437
   7723SM  H22G10252   0.723   1.969  14.915 -0.6532 -0.4469 -2.1699
   7723SM  C23F10253   0.881   2.083  15.002  0.3567 -0.0071  0.7603
   7723SM  H23F10254   0.817   2.135  15.075 -2.2346 -3.7640  1.4774
   7723SM  H23G10255   0.959   2.153  14.965 -1.6016  1.4423 -0.8498
   7723SM  H23H10256   0.918   1.987  15.046  0.2585 -0.0303  0.7924
   7823SM     N10257   1.681   7.673  17.515  0.7707  0.4327  0.8211
   7823SM   C1510258   1.632   7.708  17.378  0.4106  0.2493 -0.6593
   7823SM  H15A10259   1.639   7.621  17.314  0.7947  0.2257 -0.5812
   7823SM  H15B10260   1.695   7.788  17.343 -0.3333  1.3840  0.4843
   7823SM  H15C10261   1.528   7.737  17.372  0.6243  0.9219 -1.3170
   7823SM   C1410262   1.647   7.775  17.616  0.4726  0.1934  0.6860
   7823SM  H14A10263   1.713   7.859  17.598 -0.0325  0.0297 -2.4028
   7823SM  H14B10264   1.658   7.740  17.718 -1.0456  0.2064  0.8677
   7823SM  H14C10265   1.543   7.802  17.608  0.5148  1.5545  3.5129
   7823SM   C1310266   1.604   7.553  17.545 -0.7233 -0.0551 -0.1358
   7823SM  H13A10267   1.500   7.571  17.566 -0.5435  2.3884 -0.9622
   7823SM  H13B10268   1.645   7.509  17.635  0.9756  1.5408 -0.0521
   7823SM  H13C10269   1.606   7.495  17.454 -0.1724 -0.4887  0.1468
   7823SM   C1210270   1.832   7.637  17.510  0.6451 -0.5834 -0.8179
   7823SM  H12A10271   1.858   7.605  17.609  0.6840 -1.0962 -0.9906
   7823SM  H12B10272   1.885   7.731  17.499  0.0742 -0.1741 -0.2252
   7823SM   C1110273   1.876   7.521  17.417 -0.1936 -0.3237  0.9519
   7823SM  H11A10274   1.987   7.514  17.421 -0.1665  0.4141  1.8008
   7823SM  H11B10275   1.854   7.558  17.314 -0.7352 -2.3119  0.3025
   7823SM     P10276   1.768   7.280  17.347  0.4612  0.2325 -0.2472
   7823SM   O1310277   1.862   7.165  17.361  0.0375  0.2805 -0.3506
   7823SM   O1410278   1.625   7.243  17.355  0.4672  0.6786  0.1646
   7823SM   O1110279   1.803   7.341  17.207 -0.3682  0.0212  0.7256
   7823SM   O1210280   1.810   7.396  17.451  0.0189  0.4765  1.0120
   7823SM   C1S10281   1.739   7.280  17.096  0.2605 -0.0197 -0.4820
   7823SM   H1S10282   1.635   7.318  17.090  0.5277  1.2055  1.6611
   7823SM   H1T10283   1.754   7.171  17.104  1.2751  0.0119 -1.5933
   7823SM    NF10284   1.750   7.237  16.854  0.2557 -0.0747 -0.3083
   7823SM   HNF10285   1.806   7.164  16.816  2.0206  0.3185  1.3524
   7823SM   C2S10286   1.806   7.321  16.958 -0.5414 -0.3255  0.2322
   7823SM   H2S10287   1.780   7.428  16.945  0.8572  0.2129  1.4581
   7823SM   C3S10288   1.971   7.313  16.959 -0.1057  0.4427 -0.0664
   7823SM   H3S10289   2.000   7.209  16.983 -1.6860  0.6218  3.1913
   7823SM    O310290   2.035   7.393  17.064 -0.3972  0.3954  0.3032
   7823SM   HO310291   1.962   7.403  17.125  0.1182 -0.0163  0.9993
   7823SM   C4S10292   2.019   7.356  16.836 -0.3668  0.0628  0.4533
   7823SM   H4S10293   2.009   7.462  16.808  2.9625  0.0215 -1.4079
   7823SM   C5S10294   2.082   7.278  16.750 -0.4751 -0.3113  0.4868
   7823SM   H5S10295   2.084   7.169  16.765 -1.1211 -0.4753 -0.5258
   7823SM   C6S10296   2.149   7.330  16.622 -0.1618 -0.4955  0.6476
   7823SM   H6S10297   2.239   7.273  16.589 -0.0792  0.0197 -0.0526
   7823SM   H6T10298   2.177   7.436  16.639  1.1347 -0.6836 -0.1123
   7823SM   C7S10299   2.045   7.325  16.511  0.3876  0.2084  0.1977
   7823SM   H7S10300   2.088   7.385  16.428 -0.2714 -0.1148 -0.3923
   7823SM   H7T10301   1.954   7.378  16.545 -0.0575 -0.9880  0.9454
   7823SM   C8S10302   2.009   7.184  16.450  0.1144  0.5423 -1.6746
   7823SM   H8S10303   1.988   7.127  16.543 -3.1762  0.8288 -2.1216
   7823SM   H8T10304   2.090   7.127  16.400 -0.3345 -0.4126 -1.3231
   7823SM   C9S10305   1.885   7.175  16.360  0.4578  0.0980  0.0861
   7823SM   H9S10306   1.913   7.237  16.273 -0.0974  0.0874 -0.1017
   7823SM   H9T10307   1.805   7.220  16.423 -0.4146  1.1610 -1.7248
   7823SM  C10S10308   1.837   7.040  16.316 -0.3894 -0.3257  0.7060
   7823SM  H10S10309   1.831   6.984  16.411  0.0909  0.2935  1.1045
   7823SM  H10T10310   1.917   6.986  16.261  0.6317  0.1741  1.6673
   7823SM  C11S10311   1.703   7.048  16.243 -0.1043  0.0433  0.2935
   7823SM  H11S10312   1.694   7.141  16.184 -1.4779 -0.1622  0.1407
   7823SM  H11T10313   1.638   7.072  16.330 -0.1554  1.5209 -0.1375
   7823SM  C12S10314   1.676   6.925  16.162  0.0244  0.5484  0.1556
   7823SM  H12S10315   1.768   6.918  16.099  0.7129 -1.0897  1.2907
   7823SM  H12T10316   1.586   6.938  16.099 -0.5359 -1.1743  0.5483
   7823SM  C13S10317   1.649   6.796  16.243 -0.0655 -0.5597 -0.3555
   7823SM  H13S10318   1.574   6.818  16.322  2.3044 -0.7667  2.0977
   7823SM  H13T10319   1.740   6.773  16.302  1.0344 -1.4939 -2.3124
   7823SM  C14S10320   1.610   6.673  16.160 -0.0976 -0.3351 -0.9711
   7823SM  H14S10321   1.666   6.673  16.064  2.9492 -1.4164  0.6871
   7823SM  H14T10322   1.501   6.691  16.145  0.1196 -0.7547 -3.5327
   7823SM  C15S10323   1.621   6.540  16.243  0.2669  0.0430  0.8085
   7823SM  H15S10324   1.562   6.538  16.337 -1.5301 -2.7677 -0.2482
   7823SM  H15T10325   1.721   6.535  16.292 -1.2084 -0.7440  4.0293
   7823SM  C16S10326   1.593   6.417  16.154  0.3613  0.3134  0.4088
   7823SM  H16S10327   1.491   6.428  16.110 -0.7876 -2.4523  2.1540
   7823SM  H16T10328   1.596   6.322  16.211 -0.2722 -0.3394 -0.6277
   7823SM  C17S10329   1.699   6.381  16.057  0.4893 -0.4245 -0.4154
   7823SM  H17S10330   1.795   6.379  16.113 -0.2391  1.5080  0.9938
   7823SM  H17T10331   1.704   6.468  15.988  1.5596  0.3066  0.5481
   7823SM  C18S10332   1.681   6.248  15.983  0.2757 -0.3524 -0.8061
   7823SM  H18S10333   1.584   6.247  15.930  0.9519  0.3674 -2.1190
   7823SM  H18T10334   1.685   6.169  16.061  4.0105  0.3417 -0.0835
   7823SM  H18U10335   1.766   6.214  15.919  0.1150 -2.2323 -0.0729
   7823SM   C1F10336   1.633   7.253  16.803 -0.9304  0.1639 -0.4229
   7823SM    OF10337   1.567   7.352  16.834 -0.0602  0.3682  0.6704
   7823SM   C2F10338   1.580   7.141  16.723 -0.1004 -0.1446  0.3670
   7823SM   H2F10339   1.566   7.058  16.795  0.4219 -1.2678 -0.7750
   7823SM   H2G10340   1.653   7.112  16.643 -1.4228 -0.8157 -0.6375
   7823SM   C3F10341   1.437   7.163  16.660  0.3003  0.9160  0.8140
   7823SM   H3F10342   1.454   7.238  16.580  0.6419 -0.2918 -0.2767
   7823SM   H3G10343   1.362   7.182  16.740  0.4892  0.9389  0.9851
   7823SM   C4F10344   1.387   7.033  16.589 -0.3217 -0.2154  0.1579
   7823SM   H4F10345   1.362   6.963  16.672  1.0194 -1.6846 -0.6288
   7823SM   H4G10346   1.484   6.996  16.548  1.5625  1.5534  2.7242
   7823SM   C5F10347   1.267   7.045  16.490  0.5394 -0.1219 -0.2649
   7823SM   H5F10348   1.204   7.127  16.531  0.2480 -1.4844  2.1824
   7823SM   H5G10349   1.208   6.950  16.487 -1.0668  0.7533  1.4741
   7823SM   C6F10350   1.319   7.068  16.350 -0.6554  0.5930  0.7662
   7823SM   H6F10351   1.395   6.988  16.335 -0.0451  1.2333  0.3992
   7823SM   H6G10352   1.384   7.157  16.339  2.2712 -1.4560  0.0491
   7823SM   C7F10353   1.222   7.052  16.235 -0.2799 -0.3334 -0.2453
   7823SM   H7F10354   1.139   7.124  16.251  1.8277  2.5562 -1.4887
   7823SM   H7G10355   1.172   6.953  16.235 -0.7186 -0.1282 -1.3466
   7823SM   C8F10356   1.293   7.084  16.101 -0.2999 -0.2078  1.0411
   7823SM   H8F10357   1.369   7.003  16.094 -2.1264 -1.9296  0.2936
   7823SM   H8G10358   1.344   7.182  16.107 -1.6094  0.4704  1.3291
   7823SM   C9F10359   1.207   7.079  15.977  0.1998 -0.0412  0.1814
   7823SM   H9F10360   1.136   7.163  15.964  0.1149 -0.4360 -2.8011
   7823SM   H9G10361   1.149   6.986  15.964 -0.5127  0.6074 -1.6527
   7823SM  C10F10362   1.290   7.083  15.850  0.2516 -0.6337  0.6584
   7823SM  H10F10363   1.362   6.999  15.845  1.7164  0.6341 -0.7153
   7823SM  H10G10364   1.342   7.181  15.843 -2.4176  0.8372 -0.1279
   7823SM  C11F10365   1.199   7.081  15.725  0.2319  0.4319  0.6260
   7823SM  H11F10366   1.150   7.181  15.732 -1.3870 -0.2769 -0.0348
   7823SM  H11G10367   1.117   7.006  15.726  2.3490 -2.0278 -0.1479
   7823SM  C12F10368   1.281   7.073  15.598  0.3018  0.3002  0.2406
   7823SM  H12F10369   1.337   6.977  15.602 -0.6410 -0.2186  2.8954
   7823SM  H12G10370   1.347   7.162  15.585 -1.6057  1.6337 -0.7224
   7823SM  C13F10371   1.195   7.072  15.473  0.3666 -0.0943  0.3489
   7823SM  H13F10372   1.128   7.161  15.468 -1.6139 -1.3799  2.2141
   7823SM  H13G10373   1.120   6.990  15.474  0.0560  0.1837  0.3721
   7823SM  C14F10374   1.273   7.048  15.335  0.1986  0.1072 -0.4774
   7823SM  H14F10375   1.335   6.958  15.353  0.5634  0.5580  0.5898
   7823SM  H14G10376   1.353   7.118  15.304  3.1964 -2.3516  1.1452
   7823SM  C15F10377   1.181   7.018  15.217 -0.2197 -0.0464  0.4030
   7823SM  H15F10378   1.092   7.081  15.199  0.6012  0.7166 -1.1371
   7823SM  H15G10379   1.147   6.915  15.241 -1.9115  0.3361 -0.2188
   7823SM  C16F10380   1.264   7.027  15.090  0.2955 -0.2140 -0.0468
   7823SM  H16F10381   1.228   6.947  15.022 -1.2504  2.4037 -2.4982
   7823SM  H16G10382   1.373   7.010  15.103  0.1893 -1.5406 -0.6789
   7823SM  C17F10383   1.245   7.162  15.010 -0.3228 -0.5251 -0.2928
   7823SM  H17F10384   1.249   7.254  15.073 -1.1833  0.8824 -2.1830
   7823SM  H17G10385   1.148   7.157  14.957  0.3197  1.0978 -1.6943
   7823SM  C18F10386   1.341   7.197  14.896 -0.4579 -1.0356  0.1906
   7823SM  H18F10387   1.302   7.283  14.839  2.6922  1.0093  0.8824
   7823SM  H18G10388   1.343   7.114  14.823 -0.2034  0.1991 -1.2468
   7823SM  C19F10389   1.479   7.251  14.942  0.2412  0.3400  0.3585
   7823SM  H19F10390   1.521   7.183  15.019 -0.7346  2.6123  3.1021
   7823SM  H19G10391   1.476   7.350  14.994  2.8606  0.4439  0.4533
   7823SM  C20F10392   1.564   7.271  14.818 -0.4696 -0.4864  0.1806
   7823SM  H20F10393   1.509   7.314  14.731 -1.8786 -2.1963  0.1815
   7823SM  H20G10394   1.618   7.179  14.788  1.1899  0.6175 -0.3508
   7823SM  C21F10395   1.668   7.374  14.845 -0.0989 -0.5174  0.0109
   7823SM  H21F10396   1.723   7.357  14.940  2.0805  0.2529 -1.0425
   7823SM  H21G10397   1.621   7.475  14.852  0.6194  0.2287 -3.6027
   7823SM  C22F10398   1.769   7.396  14.730  0.0339 -0.2241 -0.0979
   7823SM  H22F10399   1.706   7.416  14.640 -0.4895 -0.3689  0.2334
   7823SM  H22G10400   1.835   7.309  14.709  0.4250  0.3277 -1.2617
   7823SM  C23F10401   1.864   7.512  14.749 -0.0880 -0.3354  0.3773
   7823SM  H23F10402   1.936   7.499  14.833  0.5632 -1.7520 -0.3651
   7823SM  H23G10403   1.793   7.593  14.777  0.7017  1.6320 -2.8840
   7823SM  H23H10404   1.929   7.544  14.666  0.1856  0.1873  0.7823
   7923SM     N10405   7.507   0.164  17.230  0.2979  0.3699 -0.1264
   7923SM   C1510406   7.404   0.239  17.309 -0.5806  0.0467  0.0529
   7923SM  H15A10407   7.456   0.266  17.400 -0.7283  2.6122 -0.5727
   7923SM  H15B10408   7.313   0.186  17.333 -2.2188  2.4640 -0.5710
   7923SM  H15C10409   7.371   0.331  17.264 -2.8142 -0.8833 -0.3003
   7923SM   C1410410   7.532   0.027  17.296  0.0599  0.4380 -0.0022
   7923SM  H14A10411   7.439  -0.027  17.308  0.1297 -0.1264 -1.7457
   7923SM  H14B10412   7.588   0.042  17.387  2.7684 -0.8640 -1.3529
   7923SM  H14C10413   7.591  -0.040  17.237  0.0384  1.5332 -1.3206
   7923SM   C1310414   7.452   0.142  17.095 -0.3548  0.4277 -0.5508
   7923SM  H13A10415   7.526   0.090  17.035  1.0038  1.9577 -0.2662
   7923SM  H13B10416   7.418   0.234  17.048  2.1191  1.7403  0.0967
   7923SM  H13C10417   7.369   0.073  17.097  0.6876 -0.8333  0.2860
   7923SM   C1210418   7.640   0.237  17.231 -0.3394  0.5484 -0.2233
   7923SM  H12A10419   7.640   0.323  17.165  1.4388  0.3688 -0.4976
   7923SM  H12B10420   7.715   0.166  17.202 -0.9261  0.4257 -1.5236
   7923SM   C1110421   7.681   0.297  17.369  0.4967  0.1321 -0.6325
   7923SM  H11A10422   7.792   0.298  17.373  0.5227  0.6632 -1.2476
   7923SM  H11B10423   7.643   0.234  17.452 -0.4651  0.6234 -0.6895
   7923SM     P10424   7.716   0.557  17.372 -0.2200 -0.4538 -0.2215
   7923SM   O1310425   7.639   0.679  17.410 -0.5503  0.2945 -0.4569
   7923SM   O1410426   7.845   0.539  17.442 -0.4791 -0.8382  1.0832
   7923SM   O1110427   7.745   0.560  17.215  0.1373 -0.2102 -0.2687
   7923SM   O1210428   7.626   0.427  17.378  0.2498  0.2653  0.0932
   7923SM   C1S10429   7.631   0.608  17.142  0.2574 -0.1387 -0.3183
   7923SM   H1S10430   7.616   0.717  17.158  1.9126  0.3003 -1.5315
   7923SM   H1T10431   7.544   0.540  17.154  0.3442 -0.2856 -0.5262
   7923SM    NF10432   7.534   0.644  16.916  0.4482  0.3221 -0.4075
   7923SM   HNF10433   7.471   0.570  16.895 -1.6905  1.1106  2.6306
   7923SM   C2S10434   7.658   0.609  16.984  0.9050 -0.7388 -0.2412
   7923SM   H2S10435   7.730   0.691  16.963 -1.3968  1.4059 -0.2814
   7923SM   C3S10436   7.716   0.476  16.933  1.0655 -0.3997 -0.4691
   7923SM   H3S10437   7.639   0.400  16.955  0.9361 -0.2199 -0.2995
   7923SM    O310438   7.823   0.432  17.015 -0.1961  0.0628  0.0789
   7923SM   HO310439   7.819   0.491  17.091  2.5090 -1.0600  1.2047
   7923SM   C4S10440   7.752   0.481  16.789 -0.0636 -0.0919  0.6925
   7923SM   H4S10441   7.843   0.542  16.780 -0.1344 -0.0543  0.2585
   7923SM   C5S10442   7.710   0.414  16.679 -0.8988 -0.1797 -0.4774
   7923SM   H5S10443   7.631   0.337  16.691 -1.8282  0.8114 -0.0594
   7923SM   C6S10444   7.773   0.436  16.544  0.2680  0.3523 -0.4408
   7923SM   H6S10445   7.807   0.337  16.508 -4.0612 -1.1583 -1.0268
   7923SM   H6T10446   7.860   0.503  16.529  0.8881  0.2888  2.3062
   7923SM   C7S10447   7.663   0.487  16.443 -0.0383 -0.2637 -0.4499
   7923SM   H7S10448   7.601   0.569  16.485 -0.6418 -1.1705  0.4690
   7923SM   H7T10449   7.588   0.407  16.425 -1.4486  0.7679  0.6068
   7923SM   C8S10450   7.719   0.519  16.303 -0.0660 -0.3146  0.0119
   7923SM   H8S10451   7.807   0.451  16.295  0.1057 -0.2638  1.2189
   7923SM   H8T10452   7.758   0.623  16.300 -1.3737  0.1707 -0.8223
   7923SM   C9S10453   7.616   0.507  16.189  0.0262 -0.0831  0.6637
   7923SM   H9S10454   7.528   0.572  16.211 -1.8146 -1.4225 -2.1230
   7923SM   H9T10455   7.575   0.403  16.187  0.6275 -0.3171 -0.7150
   7923SM  C10S10456   7.675   0.530  16.049  0.3795 -0.0904  0.2787
   7923SM  H10S10457   7.763   0.464  16.038  0.2409 -0.0231 -1.6837
   7923SM  H10T10458   7.720   0.631  16.043 -3.5216  1.8890  1.0985
   7923SM  C11S10459   7.559   0.507  15.945  0.7862 -0.4316 -0.5822
   7923SM  H11S10460   7.484   0.586  15.964  1.4837 -0.0232  0.5795
   7923SM  H11T10461   7.506   0.412  15.969  2.2194 -1.0562  0.3073
   7923SM  C12S10462   7.592   0.499  15.791  0.0293 -0.2687 -1.0043
   7923SM  H12S10463   7.649   0.404  15.777 -1.3499 -1.3535  0.3522
   7923SM  H12T10464   7.663   0.582  15.769 -0.7182  0.6698  0.0344
   7923SM  C13S10465   7.470   0.497  15.694  0.1660 -0.1612 -0.5961
   7923SM  H13S10466   7.432   0.601  15.685  0.7413  0.0532 -0.5345
   7923SM  H13T10467   7.379   0.448  15.736 -2.6159  2.8855 -2.5768
   7923SM  C14S10468   7.508   0.447  15.560 -0.5246  0.2523 -0.2891
   7923SM  H14S10469   7.549   0.344  15.570 -0.5631  0.0269 -2.1127
   7923SM  H14T10470   7.590   0.506  15.515 -0.6908  3.4327  3.1084
   7923SM  C15S10471   7.388   0.447  15.462  0.1505  0.2899 -0.2430
   7923SM  H15S10472   7.371   0.545  15.412 -0.1326  0.2158 -0.2964
   7923SM  H15T10473   7.304   0.429  15.533 -0.1745 -0.0943 -0.7221
   7923SM  C16S10474   7.404   0.330  15.369 -0.7099  0.2032  0.5523
   7923SM  H16S10475   7.421   0.241  15.433  1.8776  0.5441  0.4148
   7923SM  H16T10476   7.499   0.341  15.314 -1.8987 -1.6318 -2.1032
   7923SM  C17S10477   7.298   0.298  15.266 -0.3726  0.0967  0.5620
   7923SM  H17S10478   7.282   0.384  15.197  0.9982 -0.0780 -0.0027
   7923SM  H17T10479   7.205   0.293  15.326 -1.1004  2.2141 -0.2769
   7923SM  C18S10480   7.300   0.159  15.187  0.1194 -1.1321 -0.2899
   7923SM  H18S10481   7.205   0.138  15.134  0.0173  1.4169 -1.2633
   7923SM  H18T10482   7.311   0.070  15.253  2.4990 -0.0792  0.8459
   7923SM  H18U10483   7.379   0.155  15.109 -1.7266 -1.1709 -2.2545
   7923SM   C1F10484   7.488   0.764  16.910  0.2798 -0.4075  0.0424
   7923SM    OF10485   7.551   0.862  16.941  0.3322 -0.3201  0.0759
   7923SM   C2F10486   7.352   0.780  16.851  0.7522 -0.0197 -0.0209
   7923SM   H2F10487   7.284   0.823  16.927 -0.6479 -1.3294 -0.4785
   7923SM   H2G10488   7.305   0.680  16.839 -1.1432  0.9453 -1.0642
   7923SM   C3F10489   7.351   0.850  16.718 -0.1203  0.4649 -0.6817
   7923SM   H3F10490   7.417   0.939  16.723 -3.1608  2.8090  3.1146
   7923SM   H3G10491   7.251   0.900  16.711 -1.0124 -1.0968  0.3246
   7923SM   C4F10492   7.367   0.773  16.587 -0.5167 -0.4142 -0.4029
   7923SM   H4F10493   7.290   0.693  16.585 -1.8578  0.8306 -0.3414
   7923SM   H4G10494   7.469   0.729  16.588 -0.0703  0.6016  0.2808
   7923SM   C5F10495   7.357   0.854  16.463  0.1819 -0.3600  0.4033
   7923SM   H5F10496   7.437   0.931  16.464  2.8467 -2.8960  1.9580
   7923SM   H5G10497   7.258   0.902  16.473  0.2888 -0.0916  0.1897
   7923SM   C6F10498   7.370   0.764  16.338  0.3892 -0.6357 -1.2320
   7923SM   H6F10499   7.464   0.707  16.358  0.6576  0.9569  3.3812
   7923SM   H6G10500   7.397   0.831  16.253  0.2147  1.0780 -0.0100
   7923SM   C7F10501   7.247   0.693  16.295  0.3821 -0.5975  0.0302
   7923SM   H7F10502   7.168   0.770  16.290 -0.3422 -1.2730  0.8014
   7923SM   H7G10503   7.224   0.620  16.377  0.0749 -0.2506  0.2568
   7923SM   C8F10504   7.253   0.633  16.155 -1.1907 -0.7036 -0.3978
   7923SM   H8F10505   7.336   0.560  16.157  0.5723  1.2227  0.0275
   7923SM   H8G10506   7.276   0.713  16.080 -1.1113 -0.8702 -0.5512
   7923SM   C9F10507   7.127   0.567  16.107 -0.0967  0.5009  0.7309
   7923SM   H9F10508   7.038   0.633  16.117  1.6295  2.8437  1.5622
   7923SM   H9G10509   7.092   0.476  16.160 -1.4911 -0.9412 -2.3971
   7923SM  C10F10510   7.155   0.516  15.972  0.3518 -0.0386  0.2023
   7923SM  H10F10511   7.206   0.418  15.980  3.9175  1.5484 -1.2835
   7923SM  H10G10512   7.224   0.572  15.905  2.8073 -4.5382 -1.4550
   7923SM  C11F10513   7.020   0.495  15.895  0.0089 -0.3939 -0.5187
   7923SM  H11F10514   6.958   0.588  15.893  1.7259  0.9143  1.8482
   7923SM  H11G10515   6.956   0.418  15.942 -1.8386  2.4488  2.0112
   7923SM  C12F10516   7.049   0.449  15.754 -0.5779  0.1452 -0.2264
   7923SM  H12F10517   7.095   0.349  15.772 -2.0635 -0.4712  0.3381
   7923SM  H12G10518   7.112   0.527  15.707 -2.8186  1.6156 -0.9436
   7923SM  C13F10519   6.921   0.442  15.668 -1.0823  0.1200 -0.6064
   7923SM  H13F10520   6.881   0.545  15.655  1.9495  1.5458  0.2717
   7923SM  H13G10521   6.842   0.375  15.709  0.4258 -0.7333  1.0438
   7923SM  C14F10522   6.949   0.382  15.536  0.4544  0.3866  0.4892
   7923SM  H14F10523   6.974   0.277  15.564 -0.4726  0.2941  0.9930
   7923SM  H14G10524   7.030   0.430  15.476 -1.3143  2.5169 -0.3425
   7923SM  C15F10525   6.830   0.384  15.445  0.5027 -0.2670  0.0642
   7923SM  H15F10526   6.817   0.493  15.426  0.6890 -0.1600  0.5272
   7923SM  H15G10527   6.739   0.353  15.501 -1.3148 -1.2939 -3.2383
   7923SM  C16F10528   6.856   0.311  15.316 -0.2341 -0.0465  0.3065
   7923SM  H16F10529   6.763   0.263  15.279  1.2545 -2.3003 -0.7689
   7923SM  H16G10530   6.928   0.227  15.320  1.6628  1.3258 -2.2089
   7923SM  C17F10531   6.911   0.407  15.210 -0.7131  0.9535  0.1593
   7923SM  H17F10532   7.013   0.447  15.228 -0.6376  1.2640 -0.8841
   7923SM  H17G10533   6.854   0.502  15.211  0.5974  1.7808 -0.6050
   7923SM  C18F10534   6.906   0.350  15.067  0.0835 -0.4192 -0.0841
   7923SM  H18F10535   6.937   0.243  15.063 -0.3605 -0.5261 -0.8688
   7923SM  H18G10536   6.988   0.388  15.002  0.7244 -0.2788  0.7904
   7923SM  C19F10537   6.768   0.381  15.002 -0.4521 -0.6236 -0.0790
   7923SM  H19F10538   6.765   0.492  15.000  1.1327 -0.5354  0.6724
   7923SM  H19G10539   6.685   0.343  15.066 -2.0856  1.6319 -0.7459
   7923SM  C20F10540   6.752   0.334  14.854  0.1958  0.3876 -0.1998
   7923SM  H20F10541   6.843   0.361  14.796 -0.7560  1.5070 -1.2307
   7923SM  H20G10542   6.660   0.375  14.806 -1.4735  0.6916  2.9825
   7923SM  C21F10543   6.730   0.183  14.846 -0.7688 -1.1224  0.4184
   7923SM  H21F10544   6.642   0.165  14.912  0.5014 -2.0975  1.9089
   7923SM  H21G10545   6.818   0.133  14.892 -0.2116  1.1455  1.9933
   7923SM  C22F10546   6.700   0.118  14.711  0.1918 -0.4015 -0.0859
   7923SM  H22F10547   6.605   0.162  14.676  0.9292  1.9790  0.6629
   7923SM  H22G10548   6.698   0.007  14.714  0.2746 -0.3810  1.0003
   7923SM  C23F10549   6.805   0.151  14.606 -0.0779 -0.1174 -0.2847
   7923SM  H23F10550   6.902   0.130  14.655 -1.1191 -2.7735  0.7808
   7923SM  H23G10551   6.817   0.260  14.584  1.2395 -0.2090 -0.1044
   7923SM  H23H10552   6.810   0.085  14.516 -0.0256 -1.4595  0.6815
   8023SM     N10553   0.554   7.443  17.272  0.2281 -0.1917  0.4404
   8023SM   C1510554   0.564   7.514  17.401 -0.4828 -0.3585  0.3461
   8023SM  H15A10555   0.477   7.569  17.431 -1.7020 -1.2160 -1.3996
   8023SM  H15B10556   0.653   7.575  17.403  0.7667 -2.0112 -0.8064
   8023SM  H15C10557   0.587   7.443  17.479  1.6688 -0.9218 -0.7099
   8023SM   C1410558   0.439   7.350  17.294  0.8282 -0.0208  0.5833
   8023SM  H14A10559   0.417   7.292  17.205 -0.6494  0.9120  0.3055
   8023SM  H14B10560   0.348   7.391  17.335  0.1733 -2.1565  1.3948
   8023SM  H14C10561   0.477   7.275  17.362  1.3552 -0.8758 -0.6187
   8023SM   C1310562   0.509   7.540  17.170 -0.0397  0.5760 -0.5188
   8023SM  H13A10563   0.580   7.621  17.164 -1.3652  1.8720  0.5615
   8023SM  H13B10564   0.418   7.596  17.188  0.2377  0.9455 -0.2599
   8023SM  H13C10565   0.502   7.493  17.073  1.7542  1.5089 -1.1409
   8023SM   C1210566   0.687   7.378  17.231 -0.2494  0.0732  0.4744
   8023SM  H12A10567   0.680   7.302  17.155  0.0423 -1.2312  1.7175
   8023SM  H12B10568   0.727   7.331  17.320 -0.6366 -1.2550 -0.0351
   8023SM   C1110569   0.806   7.476  17.197  0.3960 -0.4812  0.2153
   8023SM  H11A10570   0.801   7.516  17.094 -3.2727  0.5380  0.6429
   8023SM  H11B10571   0.894   7.408  17.189  0.1210 -0.6700 -1.7431
   8023SM     P10572   0.969   7.584  17.375  0.2942  0.0625  0.2823
   8023SM   O1310573   0.975   7.708  17.454 -0.1011  0.4050 -0.3459
   8023SM   O1410574   0.992   7.454  17.442 -0.2397 -0.4122  0.7658
   8023SM   O1110575   1.073   7.591  17.257  0.8297  0.3993  0.2570
   8023SM   O1210576   0.835   7.573  17.298  0.3838  0.3360  0.0968
   8023SM   C1S10577   1.044   7.689  17.157 -0.0067  0.4311  0.6755
   8023SM   H1S10578   1.063   7.792  17.196 -0.2511  0.6160  0.3218
   8023SM   H1T10579   0.942   7.691  17.113 -0.6641  2.8495  2.1245
   8023SM    NF10580   1.109   7.742  16.921 -0.1944 -0.7080  0.7351
   8023SM   HNF10581   1.054   7.714  16.843 -0.6963 -0.0797  0.8546
   8023SM   C2S10582   1.132   7.650  17.029 -0.2190  0.1190  0.2051
   8023SM   H2S10583   1.238   7.665  17.060 -0.2585  2.0181 -0.4249
   8023SM   C3S10584   1.114   7.504  16.986 -0.4392  0.1916 -0.1183
   8023SM   H3S10585   1.007   7.475  16.972 -0.2379  0.3485 -2.4756
   8023SM    O310586   1.162   7.413  17.086 -0.4206 -0.0954  0.5620
   8023SM   HO310587   1.118   7.445  17.165 -0.4090 -0.1804  0.6025
   8023SM   C4S10588   1.187   7.478  16.864 -0.4584 -0.3211  0.2234
   8023SM   H4S10589   1.290   7.513  16.853 -1.0765  1.6517  0.3110
   8023SM   C5S10590   1.129   7.441  16.746  0.4797  0.3920  1.3281
   8023SM   H5S10591   1.023   7.419  16.725  0.4363  1.5049  0.2844
   8023SM   C6S10592   1.200   7.413  16.620 -0.1132  0.3394  0.1550
   8023SM   H6S10593   1.203   7.302  16.614 -0.8437  0.3505 -0.5421
   8023SM   H6T10594   1.307   7.436  16.639 -0.2614  0.1688  1.2345
   8023SM   C7S10595   1.137   7.468  16.491 -0.0791 -0.7304 -0.0431
   8023SM   H7S10596   1.122   7.576  16.511 -2.5971 -0.8377 -0.9650
   8023SM   H7T10597   1.037   7.430  16.460 -0.3364  0.0315 -0.1747
   8023SM   C8S10598   1.215   7.464  16.362  0.2744  0.0501 -0.0430
   8023SM   H8S10599   1.233   7.358  16.335  0.1623 -0.0330  0.2053
   8023SM   H8T10600   1.305   7.525  16.382 -0.4969  0.9541  0.7993
   8023SM   C9S10601   1.135   7.539  16.250 -0.7932  0.2215 -0.1095
   8023SM   H9S10602   1.141   7.649  16.266 -0.5935  0.2003 -0.0347
   8023SM   H9T10603   1.028   7.512  16.246 -0.7194  0.0758 -2.6677
   8023SM  C10S10604   1.187   7.518  16.109  0.5203 -0.0594  0.4575
   8023SM  H10S10605   1.187   7.408  16.093  0.3587 -0.0426  0.3353
   8023SM  H10T10606   1.293   7.547  16.096  0.6957 -1.5557 -2.1323
   8023SM  C11S10607   1.111   7.597  16.007 -0.2729 -0.1098  0.3524
   8023SM  H11S10608   1.123   7.706  16.026 -2.4235  0.3363 -0.6037
   8023SM  H11T10609   1.004   7.568  16.010 -0.4735  0.0413 -2.4714
   8023SM  C12S10610   1.165   7.554  15.869  0.1093 -1.2125  1.0927
   8023SM  H12S10611   1.167   7.445  15.848 -0.2180 -0.9742 -0.3168
   8023SM  H12T10612   1.268   7.593  15.856 -1.0181  2.0588  0.9683
   8023SM  C13S10613   1.075   7.599  15.757  0.4791 -0.0263  0.4959
   8023SM  H13S10614   1.093   7.708  15.744 -0.8585  0.6196  3.2907
   8023SM  H13T10615   0.967   7.593  15.785  0.9228 -0.5156  2.2170
   8023SM  C14S10616   1.100   7.522  15.628 -0.4123 -0.3411 -0.6220
   8023SM  H14S10617   1.050   7.426  15.654 -0.7558 -0.0142 -0.0429
   8023SM  H14T10618   1.206   7.500  15.605  0.3156 -0.4568  2.4492
   8023SM  C15S10619   1.037   7.583  15.508 -0.0379  0.1994 -0.6084
   8023SM  H15S10620   1.044   7.693  15.495 -0.6606  0.1036 -1.8768
   8023SM  H15T10621   0.927   7.568  15.515 -0.2776  1.9195 -0.3571
   8023SM  C16S10622   1.076   7.506  15.387  0.1161  0.7972 -0.2332
   8023SM  H16S10623   1.061   7.397  15.397  1.1815  0.8341  3.1289
   8023SM  H16T10624   1.180   7.510  15.349 -0.3573  0.5301 -1.6253
   8023SM  C17S10625   0.986   7.545  15.272 -0.5777 -0.0581  0.0237
   8023SM  H17S10626   1.001   7.654  15.260 -0.6942 -0.1760 -1.2454
   8023SM  H17T10627   0.882   7.520  15.300 -1.0218 -1.4015 -2.5096
   8023SM  C18S10628   1.020   7.481  15.130  0.0792 -0.0971 -0.0502
   8023SM  H18S10629   1.128   7.478  15.101  0.1197  1.4603 -0.1569
   8023SM  H18T10630   0.976   7.544  15.050  1.8253  1.3222  0.0596
   8023SM  H18U10631   0.981   7.377  15.127 -0.2572 -0.0838  2.3601
   8023SM   C1F10632   1.131   7.870  16.921 -0.1156 -0.5811  0.2912
   8023SM    OF10633   1.185   7.907  17.026  0.1510 -0.8203 -0.0543
   8023SM   C2F10634   1.094   7.964  16.808  0.7336 -0.1767  0.0333
   8023SM   H2F10635   1.083   8.061  16.861  0.3128 -1.3198  2.1264
   8023SM   H2G10636   0.991   7.940  16.776 -0.0169 -0.6615  2.6746
   8023SM   C3F10637   1.203   7.959  16.688 -0.6175  0.0951 -0.9995
   8023SM   H3F10638   1.294   7.991  16.742 -1.8429  0.3351  1.0447
   8023SM   H3G10639   1.176   8.042  16.620  0.5958  0.7698 -0.6705
   8023SM   C4F10640   1.224   7.816  16.631  1.4056  0.0751 -0.3618
   8023SM   H4F10641   1.125   7.777  16.597  1.0635  0.0800  0.6003
   8023SM   H4G10642   1.267   7.751  16.710  0.4782  1.6413  1.5147
   8023SM   C5F10643   1.317   7.815  16.514 -0.1091 -0.2908 -0.0126
   8023SM   H5F10644   1.330   7.713  16.470 -1.8162 -1.9186  2.9613
   8023SM   H5G10645   1.414   7.851  16.555  0.0284 -0.8530  0.1680
   8023SM   C6F10646   1.273   7.912  16.395 -0.5709 -0.5822 -0.2609
   8023SM   H6F10647   1.268   8.013  16.440 -2.6856 -0.9483  0.4407
   8023SM   H6G10648   1.166   7.891  16.373 -1.4544  3.1527 -0.1074
   8023SM   C7F10649   1.361   7.897  16.274  0.2628 -0.4650 -0.8123
   8023SM   H7F10650   1.383   7.788  16.267  1.0028 -0.6050  2.3848
   8023SM   H7G10651   1.460   7.939  16.301  1.7367 -3.7875 -0.5350
   8023SM   C8F10652   1.291   7.942  16.146  0.0889  0.7480  0.6312
   8023SM   H8F10653   1.285   8.052  16.138 -1.0122  0.7456  1.2461
   8023SM   H8G10654   1.185   7.909  16.143 -0.0198  1.0659 -2.8477
   8023SM   C9F10655   1.352   7.892  16.026  0.0646  0.2046 -0.0719
   8023SM   H9F10656   1.332   7.785  16.007 -1.3028  0.6601 -1.4258
   8023SM   H9G10657   1.462   7.902  16.015  0.5306 -3.5266 -0.0632
   8023SM  C10F10658   1.283   7.954  15.902 -0.6316  0.0013  0.0336
   8023SM  H10F10659   1.272   8.064  15.908  0.4894  0.4511 -3.6542
   8023SM  H10G10660   1.187   7.900  15.890 -0.4257 -0.2737 -0.4090
   8023SM  C11F10661   1.365   7.924  15.772  0.2142 -1.0692  0.2667
   8023SM  H11F10662   1.358   7.814  15.765 -0.0117 -1.1704  1.7771
   8023SM  H11G10663   1.468   7.965  15.778 -0.3306  1.6154 -3.9815
   8023SM  C12F10664   1.283   7.974  15.651 -0.2849 -0.3788 -0.0026
   8023SM  H12F10665   1.286   8.083  15.630  1.1442 -0.4606 -0.2862
   8023SM  H12G10666   1.179   7.940  15.673 -0.8284 -0.0134 -1.7846
   8023SM  C13F10667   1.338   7.914  15.519 -0.9447  0.1399  0.3539
   8023SM  H13F10668   1.325   7.804  15.526  0.4693 -0.0045  0.9985
   8023SM  H13G10669   1.447   7.933  15.514 -0.8235 -0.2416  1.4255
   8023SM  C14F10670   1.257   7.969  15.404  0.5607  0.3246 -0.6424
   8023SM  H14F10671   1.287   8.068  15.364 -1.4605  1.0312 -0.4984
   8023SM  H14G10672   1.156   7.988  15.446  1.6295  0.8914  1.7843
   8023SM  C15F10673   1.227   7.872  15.284  0.3929  0.2521  0.0794
   8023SM  H15F10674   1.188   7.780  15.332  0.6915  0.5467  0.8951
   8023SM  H15G10675   1.327   7.857  15.237 -0.2440  2.2736 -2.1736
   8023SM  C16F10676   1.126   7.918  15.185  0.3821  0.4663  0.1606
   8023SM  H16F10677   1.038   7.958  15.241  1.0622 -0.2301  1.8052
   8023SM  H16G10678   1.102   7.827  15.127  1.2116 -1.5262  2.7390
   8023SM  C17F10679   1.188   8.011  15.083  0.1489 -0.5023 -0.1819
   8023SM  H17F10680   1.268   7.968  15.020 -0.8698 -2.7059 -0.0801
   8023SM  H17G10681   1.241   8.094  15.135 -0.5875  1.7335 -2.7492
   8023SM  C18F10682   1.079   8.080  15.001 -0.4484 -0.0677 -0.7548
   8023SM  H18F10683   1.118   8.169  14.946 -0.6154  0.1370 -0.5415
   8023SM  H18G10684   0.998   8.106  15.071  0.8500  1.0072  0.4039
   8023SM  C19F10685   1.011   7.990  14.894  0.0418 -0.4083 -0.0589
   8023SM  H19F10686   1.012   7.881  14.915  0.5546 -0.3989 -0.0175
   8023SM  H19G10687   1.069   8.013  14.802 -0.7178 -0.6988 -0.6139
   8023SM  C20F10688   0.870   8.036  14.861  0.0180 -0.3199  0.0176
   8023SM  H20F10689   0.858   8.147  14.861 -1.9530 -0.5094  0.0800
   8023SM  H20G10690   0.801   8.022  14.947  0.3252  0.5672  0.4324
   8023SM  C21F10691   0.799   7.975  14.739 -0.0549  0.3207  0.5479
   8023SM  H21F10692   0.779   7.867  14.752  0.6900 -0.0952 -1.3208
   8023SM  H21G10693   0.852   7.981  14.641 -2.5776  1.3702 -0.8464
   8023SM  C22F10694   0.667   8.055  14.723 -0.9130 -0.0753  1.1558
   8023SM  H22F10695   0.699   8.153  14.683  0.0543 -0.7412  0.2298
   8023SM  H22G10696   0.623   8.076  14.823 -0.4325  0.7123  1.2064
   8023SM  C23F10697   0.563   7.987  14.637 -0.6745 -1.1204 -0.0885
   8023SM  H23F10698   0.608   7.963  14.538 -1.1549  2.0884 -1.2080
   8023SM  H23G10699   0.470   8.045  14.618 -0.3814 -0.0224  1.6237
   8023SM  H23H10700   0.531   7.896  14.691  0.7243 -1.5855  0.0139
   8123SM     N10701   3.071   3.722  12.291  0.5833 -0.5556  0.5246
   8123SM   C1510702   2.971   3.817  12.237 -0.2705 -0.0373 -0.3884
   8123SM  H15A10703   2.988   3.841  12.134  1.5073  2.5627  0.4085
   8123SM  H15B10704   2.973   3.916  12.279 -1.3942 -0.1277 -0.0850
   8123SM  H15C10705   2.868   3.790  12.254 -0.3339  1.2833  1.6962
   8123SM   C1410706   3.054   3.599  12.215 -0.0372 -0.1138  0.0484
   8123SM  H14A10707   3.125   3.521  12.240 -1.1785 -0.6234  1.8438
   8123SM  H14B10708   3.066   3.618  12.109 -0.9569  0.3834  0.0242
   8123SM  H14C10709   2.952   3.564  12.222  0.2786 -1.4847 -1.4536
   8123SM   C1310710   3.208   3.769  12.257  0.3077  0.1773  0.5790
   8123SM  H13A10711   3.227   3.768  12.151 -1.1137 -0.6144  0.3066
   8123SM  H13B10712   3.275   3.693  12.294 -3.1556 -3.4136  0.0367
   8123SM  H13C10713   3.215   3.868  12.301 -1.7106 -0.0469  1.5232
   8123SM   C1210714   3.059   3.702  12.443  0.6124 -0.9960 -0.0605
   8123SM  H12A10715   3.124   3.626  12.486  0.6409 -0.5832  0.6378
   8123SM  H12B10716   2.963   3.657  12.461  1.0947 -1.0801  2.7976
   8123SM   C1110717   3.080   3.821  12.536  0.5743  0.3632 -0.1252
   8123SM  H11A10718   3.042   3.794  12.637 -0.0608 -1.9776 -0.9132
   8123SM  H11B10719   3.009   3.897  12.498 -0.2648  0.6365  1.8388
   8123SM     P10720   3.324   3.753  12.605  0.3150 -0.3619  0.2404
   8123SM   O1310721   3.261   3.627  12.652 -0.0182  0.2415  0.0374
   8123SM   O1410722   3.435   3.742  12.506  0.3626 -0.4889 -0.6677
   8123SM   O1110723   3.386   3.836  12.723  0.0906 -0.7719  0.0068
   8123SM   O1210724   3.220   3.858  12.539 -0.3785  0.0011  0.6795
   8123SM   C1S10725   3.312   3.894  12.825 -0.6905  0.6462  0.1236
   8123SM   H1S10726   3.204   3.868  12.823 -0.3610 -0.7780 -0.9158
   8123SM   H1T10727   3.320   4.005  12.822 -1.0258  0.6858  0.6062
   8123SM    NF10728   3.274   3.918  13.060 -0.1933  0.4009 -0.6400
   8123SM   HNF10729   3.290   4.013  13.085  0.5287 -0.1055  1.0026
   8123SM   C2S10730   3.371   3.867  12.967  0.4010 -0.6071  0.6203
   8123SM   H2S10731   3.377   3.757  12.982 -1.8587 -0.8353  0.1330
   8123SM   C3S10732   3.511   3.941  12.976 -0.2049  0.2071  0.0966
   8123SM   H3S10733   3.485   4.049  12.971 -1.3415 -0.1089 -2.7052
   8123SM    O310734   3.606   3.907  12.877 -0.2405  0.0705 -0.2324
   8123SM   HO310735   3.555   3.856  12.813  1.4631  0.0931 -1.7138
   8123SM   C4S10736   3.562   3.906  13.115  0.8412 -0.5499  0.0903
   8123SM   H4S10737   3.565   3.800  13.144 -0.4473 -0.1860  1.7380
   8123SM   C5S10738   3.613   4.002  13.198  0.0716  0.3097 -0.3080
   8123SM   H5S10739   3.621   4.107  13.168  0.5885  0.0413 -1.1285
   8123SM   C6S10740   3.670   3.975  13.335 -0.5802 -0.4023 -0.4355
   8123SM   H6S10741   3.775   4.010  13.336 -0.9027  0.7367 -1.8423
   8123SM   H6T10742   3.666   3.868  13.365 -1.6729 -0.6004 -1.2164
   8123SM   C7S10743   3.601   4.051  13.451  0.3046 -0.0772 -0.0742
   8123SM   H7S10744   3.490   4.039  13.444  0.5689 -2.2773 -1.3069
   8123SM   H7T10745   3.612   4.159  13.426  2.3659 -0.6415 -1.8784
   8123SM   C8S10746   3.659   4.018  13.592  0.1523  0.0062 -0.1066
   8123SM   H8S10747   3.764   4.053  13.586  1.0664 -2.3896  0.6218
   8123SM   H8T10748   3.659   3.907  13.601 -0.7885  0.0609  0.8034
   8123SM   C9S10749   3.602   4.090  13.718 -0.1624 -0.2021 -0.4434
   8123SM   H9S10750   3.494   4.083  13.744 -0.1328  0.8975  0.0434
   8123SM   H9T10751   3.619   4.197  13.692  1.7884 -0.3288  0.1368
   8123SM  C10S10752   3.681   4.043  13.840  0.4680  0.4239  0.1028
   8123SM  H10S10753   3.785   4.075  13.820  0.2182  0.7918 -0.6518
   8123SM  H10T10754   3.669   3.935  13.864 -1.2296  0.8316  1.3915
   8123SM  C11S10755   3.643   4.105  13.974 -0.1206 -0.5122 -0.9070
   8123SM  H11S10756   3.536   4.087  13.996 -0.3588  1.6291 -0.1138
   8123SM  H11T10757   3.660   4.215  13.971  1.7324 -0.6878  0.7955
   8123SM  C12S10758   3.734   4.042  14.084 -0.0574  0.5434 -0.2472
   8123SM  H12S10759   3.842   4.047  14.059  0.1171 -1.0367  0.0724
   8123SM  H12T10760   3.702   3.936  14.099 -0.2960  0.7154  0.5126
   8123SM  C13S10761   3.708   4.094  14.230  0.0281 -0.4834  0.7079
   8123SM  H13S10762   3.604   4.068  14.258 -0.4384 -1.4975 -1.6971
   8123SM  H13T10763   3.745   4.199  14.235 -2.3408  0.4355  0.3885
   8123SM  C14S10764   3.804   4.013  14.322  0.8424  0.3668 -0.2586
   8123SM  H14S10765   3.907   4.013  14.281  0.7882  0.4956 -0.3943
   8123SM  H14T10766   3.778   3.905  14.318  0.2765  0.2461  3.2104
   8123SM  C15S10767   3.785   4.057  14.471 -0.3951  0.6034  0.3550
   8123SM  H15S10768   3.676   4.044  14.490 -0.5186 -2.2009 -1.6050
   8123SM  H15T10769   3.796   4.167  14.475 -1.0187  0.7410 -1.0694
   8123SM  C16S10770   3.867   3.983  14.573  0.0161  0.3822  0.2850
   8123SM  H16S10771   3.976   3.996  14.558  0.0464 -0.4564 -0.2926
   8123SM  H16T10772   3.840   3.875  14.573 -1.1603  0.6627 -0.2221
   8123SM  C17S10773   3.841   4.032  14.720  0.0562 -0.2649  0.0229
   8123SM  H17S10774   3.731   4.031  14.736  0.3494 -1.6666  2.4355
   8123SM  H17T10775   3.874   4.138  14.723  3.1025 -1.1516  0.5925
   8123SM  C18S10776   3.916   3.955  14.830 -1.0052  0.6634 -0.0883
   8123SM  H18S10777   3.863   3.857  14.836 -2.3995  1.1014 -3.4685
   8123SM  H18T10778   3.915   4.002  14.930  1.2796  1.3048 -0.2974
   8123SM  H18U10779   4.024   3.943  14.805 -0.8111 -1.0129  1.3236
   8123SM   C1F10780   3.172   3.847  13.100 -0.6724 -0.2519  0.3471
   8123SM    OF10781   3.132   3.755  13.031 -0.1523  0.7245 -0.5832
   8123SM   C2F10782   3.101   3.886  13.230 -0.4258  0.5024  0.1947
   8123SM   H2F10783   2.992   3.868  13.213 -0.3273 -1.2727  1.1493
   8123SM   H2G10784   3.120   3.993  13.251  1.2587  0.0242  1.3023
   8123SM   C3F10785   3.144   3.796  13.348 -0.4512 -0.1350 -0.1854
   8123SM   H3F10786   3.130   3.690  13.316 -0.3619 -0.0920 -0.3702
   8123SM   H3G10787   3.083   3.819  13.438 -0.2027 -0.2962  0.0254
   8123SM   C4F10788   3.285   3.835  13.388 -0.3220 -0.4715  0.6585
   8123SM   H4F10789   3.303   3.941  13.418  1.2051 -0.3778 -0.4416
   8123SM   H4G10790   3.365   3.817  13.313  0.4235  3.8829  0.1366
   8123SM   C5F10791   3.332   3.761  13.515 -0.2748 -0.0174  0.3222
   8123SM   H5F10792   3.440   3.739  13.498 -1.0448 -3.2597 -1.1788
   8123SM   H5G10793   3.285   3.660  13.518  0.5530 -0.4185  0.1958
   8123SM   C6F10794   3.316   3.839  13.640  0.6387 -0.5422  0.7249
   8123SM   H6F10795   3.209   3.869  13.645  0.7283  0.4262 -1.8644
   8123SM   H6G10796   3.381   3.928  13.637  0.9544 -0.7984 -0.2520
   8123SM   C7F10797   3.339   3.750  13.758  0.4809 -0.4987 -0.8083
   8123SM   H7F10798   3.436   3.695  13.752 -0.6570 -3.0391  1.7870
   8123SM   H7G10799   3.259   3.674  13.770  1.0110 -0.7206  1.7319
   8123SM   C8F10800   3.345   3.826  13.886  0.4449 -0.1901 -0.2232
   8123SM   H8F10801   3.245   3.874  13.893 -0.4510 -1.5592 -2.3990
   8123SM   H8G10802   3.415   3.912  13.885  0.1403  0.0742  0.6483
   8123SM   C9F10803   3.355   3.737  14.012  0.7213 -0.5588 -0.2817
   8123SM   H9F10804   3.454   3.686  14.018  0.4595 -1.2861 -1.6170
   8123SM   H9G10805   3.271   3.663  14.009 -0.1897  0.3435  1.5559
   8123SM  C10F10806   3.333   3.832  14.128  0.4226 -0.1517 -0.3483
   8123SM  H10F10807   3.230   3.870  14.114  0.2256 -1.4719 -3.0713
   8123SM  H10G10808   3.409   3.913  14.126  2.2194 -1.7820 -1.8065
   8123SM  C11F10809   3.338   3.758  14.260  0.0124 -0.9085 -0.3958
   8123SM  H11F10810   3.291   3.658  14.254 -0.6488 -0.7060  1.1475
   8123SM  H11G10811   3.283   3.818  14.335  1.0568 -0.5922  0.1255
   8123SM  C12F10812   3.481   3.740  14.314 -0.3781  0.3514  0.3425
   8123SM  H12F10813   3.540   3.833  14.323 -0.6014  0.4525  0.7805
   8123SM  H12G10814   3.534   3.671  14.245  0.4056 -0.0818  1.3516
   8123SM  C13F10815   3.476   3.665  14.450  0.2588 -0.2139 -0.0727
   8123SM  H13F10816   3.419   3.571  14.433  1.3500 -1.2898  1.8803
   8123SM  H13G10817   3.425   3.727  14.527  1.3609  0.3176  0.2541
   8123SM  C14F10818   3.613   3.624  14.509  0.7123 -0.1079  0.5389
   8123SM  H14F10819   3.679   3.711  14.531 -0.0122  0.3843  0.8021
   8123SM  H14G10820   3.664   3.546  14.448  0.7916  0.0543  0.3958
   8123SM  C15F10821   3.601   3.566  14.657 -0.1613  0.1555 -0.2824
   8123SM  H15F10822   3.552   3.469  14.634  0.7299  0.1510 -2.3916
   8123SM  H15G10823   3.536   3.629  14.722  1.3874  0.6442  0.8561
   8123SM  C16F10824   3.740   3.562  14.724  0.1716 -0.4145  0.3224
   8123SM  H16F10825   3.768   3.668  14.743  0.4514 -0.4157 -0.0771
   8123SM  H16G10826   3.813   3.524  14.650  1.5544  1.4917  0.6316
   8123SM  C17F10827   3.747   3.498  14.864  0.1341  0.2730 -0.1778
   8123SM  H17F10828   3.693   3.403  14.876  0.9886 -0.0607  1.3508
   8123SM  H17G10829   3.700   3.557  14.945 -1.3567  0.3630 -1.0757
   8123SM  C18F10830   3.893   3.484  14.913 -0.2357  0.0460 -0.6161
   8123SM  H18F10831   3.940   3.584  14.898  0.3277 -0.1664 -0.2978
   8123SM  H18G10832   3.946   3.410  14.850  0.9170  0.2122  0.1239
   8123SM  C19F10833   3.896   3.426  15.062 -0.1669  0.0289 -0.3126
   8123SM  H19F10834   3.832   3.335  15.065  1.2901 -1.0244 -0.1761
   8123SM  H19G10835   3.853   3.502  15.131 -0.6942 -0.9380  0.4555
   8123SM  C20F10836   4.037   3.379  15.107  0.1143  0.3180 -0.1951
   8123SM  H20F10837   4.106   3.464  15.095  0.6652 -0.0570  0.2560
   8123SM  H20G10838   4.075   3.305  15.033 -0.1859 -0.7657  0.6971
   8123SM  C21F10839   4.038   3.321  15.247  0.3427  0.6717 -0.0959
   8123SM  H21F10840   4.141   3.301  15.283 -0.4604 -1.3061  1.3564
   8123SM  H21G10841   3.995   3.219  15.238 -0.3400  0.9598 -0.1298
   8123SM  C22F10842   3.962   3.406  15.349  0.6353 -0.7312  0.3018
   8123SM  H22F10843   3.955   3.356  15.448  0.7998  1.1454  1.3084
   8123SM  H22G10844   3.854   3.420  15.328  0.4359 -1.2624  0.9346
   8123SM  C23F10845   4.024   3.546  15.370 -0.2306  0.1443 -0.2229
   8123SM  H23F10846   4.135   3.543  15.371 -0.1467 -0.6849  3.3787
   8123SM  H23G10847   3.998   3.593  15.467  0.0412 -0.5214  0.1805
   8123SM  H23H10848   3.989   3.611  15.288 -2.5783 -1.4818 -0.6013
   8223SM     N10849   3.786   3.867  12.142  0.4790 -0.7007  0.0300
   8223SM   C1510850   3.646   3.913  12.160  0.2516  0.0862  1.1656
   8223SM  H15A10851   3.623   3.932  12.264 -0.6150  2.0818  0.6559
   8223SM  H15B10852   3.584   3.829  12.130 -0.2161 -0.0090  2.3128
   8223SM  H15C10853   3.611   3.984  12.087  0.7373 -1.0473 -0.2056
   8223SM   C1410854   3.802   3.743  12.215  0.8063  0.2448  0.4635
   8223SM  H14A10855   3.714   3.683  12.199  1.3147 -0.1565 -0.9560
   8223SM  H14B10856   3.812   3.759  12.321  1.2852  0.8837  0.3265
   8223SM  H14C10857   3.894   3.698  12.180 -0.0572  0.6382 -2.5878
   8223SM   C1310858   3.804   3.844  11.998  0.5024 -0.2735  0.7090
   8223SM  H13A10859   3.746   3.759  11.964 -0.1370  0.2356  0.5088
   8223SM  H13B10860   3.904   3.815  11.971  0.6232  1.7178 -1.2214
   8223SM  H13C10861   3.768   3.929  11.943  1.1808 -0.4334  0.0090
   8223SM   C1210862   3.883   3.979  12.191 -0.3305  0.3795 -0.1287
   8223SM  H12A10863   3.833   4.073  12.174 -1.4821 -0.0644  0.6250
   8223SM  H12B10864   3.962   3.970  12.118  0.2558  0.2437  0.5151
   8223SM   C1110865   3.930   3.977  12.335  0.2488 -0.0675  0.0389
   8223SM  H11A10866   3.843   3.984  12.404  0.9512 -1.4430  1.1237
   8223SM  H11B10867   3.997   4.063  12.356 -2.9267  2.3042  1.1778
   8223SM     P10868   4.040   3.813  12.503  0.2938 -0.0794 -0.2658
   8223SM   O1310869   3.919   3.783  12.578  0.7652 -0.0093 -0.2391
   8223SM   O1410870   4.138   3.701  12.481  0.0007  0.0137  0.2784
   8223SM   O1110871   4.116   3.939  12.566 -0.4813 -0.0407 -0.0070
   8223SM   O1210872   4.009   3.863  12.356  0.3621 -0.0636  0.3821
   8223SM   C1S10873   4.043   4.036  12.641 -0.5814  0.2458  0.1594
   8223SM   H1S10874   3.955   3.992  12.695 -0.7630 -1.9590 -1.7521
   8223SM   H1T10875   3.997   4.115  12.578  1.2136  2.0014  0.9541
   8223SM    NF10876   4.052   4.175  12.838 -0.1501  0.3715 -0.1821
   8223SM   HNF10877   4.012   4.262  12.810  1.8684  1.4030 -0.0507
   8223SM   C2S10878   4.140   4.111  12.737 -0.6227  0.2751  0.1395
   8223SM   H2S10879   4.215   4.044  12.783 -1.6753 -0.0976  1.3831
   8223SM   C3S10880   4.220   4.213  12.653  0.0800  0.0871 -0.0365
   8223SM   H3S10881   4.143   4.265  12.592  0.1578 -0.6643 -0.8042
   8223SM    O310882   4.299   4.141  12.563  0.2567 -0.1251  0.3635
   8223SM   HO310883   4.296   4.047  12.579 -0.1822 -0.0106  0.9601
   8223SM   C4S10884   4.301   4.305  12.741 -0.0236  0.0844  0.8097
   8223SM   H4S10885   4.348   4.250  12.824  0.3427  1.4476  1.5284
   8223SM   C5S10886   4.324   4.435  12.729  0.8631 -0.4519  0.5878
   8223SM   H5S10887   4.300   4.481  12.632  0.4270  0.0677  0.9425
   8223SM   C6S10888   4.406   4.528  12.819  0.7254 -0.0924 -0.3788
   8223SM   H6S10889   4.346   4.621  12.833  0.8892  0.3436 -2.2848
   8223SM   H6T10890   4.500   4.553  12.766 -0.9864  2.3465 -2.5663
   8223SM   C7S10891   4.462   4.485  12.957  0.1642 -0.8718  0.3502
   8223SM   H7S10892   4.522   4.571  12.992  1.7011 -0.7823 -2.2521
   8223SM   H7T10893   4.523   4.393  12.944  3.0596  1.0280 -0.5710
   8223SM   C8S10894   4.344   4.454  13.059 -0.3588  0.0941 -0.1522
   8223SM   H8S10895   4.287   4.367  13.021 -1.4434 -0.7980  3.1281
   8223SM   H8T10896   4.262   4.528  13.048 -1.1501 -0.5811  0.9303
   8223SM   C9S10897   4.384   4.433  13.207 -0.3793 -0.1661  0.5629
   8223SM   H9S10898   4.448   4.343  13.213 -1.7992 -1.1204  2.7492
   8223SM   H9T10899   4.302   4.413  13.280  1.2029  2.1544  3.1651
   8223SM  C10S10900   4.477   4.541  13.268 -0.3523  0.5107  0.6674
   8223SM  H10S10901   4.434   4.642  13.253  1.6791  1.3057 -0.1229
   8223SM  H10T10902   4.573   4.537  13.213 -0.0722  1.6920  1.0347
   8223SM  C11S10903   4.502   4.518  13.414 -0.3979  1.0568  0.8322
   8223SM  H11S10904   4.410   4.486  13.467 -1.0085 -0.6108 -1.1131
   8223SM  H11T10905   4.532   4.619  13.449 -0.3815  1.3091  0.1070
   8223SM  C12S10906   4.608   4.410  13.449  1.0438  0.9441 -0.2021
   8223SM  H12S10907   4.711   4.448  13.430  1.4205  0.4110  0.7124
   8223SM  H12T10908   4.590   4.324  13.382 -1.5284  1.7360 -0.6528
   8223SM  C13S10909   4.592   4.365  13.598 -0.1849  0.5667  0.3373
   8223SM  H13S10910   4.672   4.291  13.617  0.9432  1.6807  0.0381
   8223SM  H13T10911   4.495   4.312  13.614  0.4451 -1.5901 -2.2895
   8223SM  C14S10912   4.617   4.481  13.693  0.5883  0.8124  0.2571
   8223SM  H14S10913   4.524   4.543  13.687 -1.0911 -1.6018 -0.1474
   8223SM  H14T10914   4.700   4.540  13.650  2.0127  0.7354  2.6933
   8223SM  C15S10915   4.646   4.442  13.835  0.1247 -0.2224 -0.2890
   8223SM  H15S10916   4.686   4.523  13.899  0.2224 -0.4167 -0.1021
   8223SM  H15T10917   4.726   4.367  13.818 -0.4652 -0.6516 -1.2882
   8223SM  C16S10918   4.526   4.385  13.916 -0.6366  0.1082 -0.0142
   8223SM  H16S10919   4.461   4.323  13.851 -0.9615 -0.3976  0.7798
   8223SM  H16T10920   4.471   4.473  13.955  1.5109  2.6316 -2.3395
   8223SM  C17S10921   4.573   4.297  14.033 -0.4025 -0.0086  0.0504
   8223SM  H17S10922   4.645   4.217  14.005 -0.4018 -0.3747  1.0638
   8223SM  H17T10923   4.486   4.254  14.085 -0.6919  0.9545  0.3882
   8223SM  C18S10924   4.649   4.374  14.143  0.0149  0.2200  0.0651
   8223SM  H18S10925   4.724   4.443  14.098  0.6524 -0.4333  0.1143
   8223SM  H18T10926   4.681   4.304  14.223  0.5550 -0.4157 -0.6893
   8223SM  H18U10927   4.584   4.448  14.194  0.5387  0.3325  0.5828
   8223SM   C1F10928   4.008   4.112  12.943  0.5348  0.3878  0.4028
   8223SM    OF10929   4.032   3.992  12.951  0.2696  0.1850  0.0206
   8223SM   C2F10930   3.937   4.182  13.052 -0.1741  0.2244  0.2467
   8223SM   H2F10931   3.839   4.135  13.077 -0.3995 -0.4693 -1.6949
   8223SM   H2G10932   3.915   4.287  13.023 -0.9227  0.4927  1.7044
   8223SM   C3F10933   4.035   4.175  13.165  0.2407 -0.4836 -0.1294
   8223SM   H3F10934   4.138   4.215  13.152 -0.7335  2.0062 -0.6972
   8223SM   H3G10935   4.051   4.069  13.193  0.1927 -0.1030  1.4411
   8223SM   C4F10936   3.979   4.239  13.297  0.4507 -0.3584 -0.9839
   8223SM   H4F10937   3.883   4.184  13.309  1.4981 -1.8714  0.8604
   8223SM   H4G10938   3.957   4.347  13.279  1.8121  0.1271  0.1426
   8223SM   C5F10939   4.070   4.223  13.418 -0.4446 -0.3513  0.2606
   8223SM   H5F10940   4.158   4.290  13.410  0.7435 -1.8986 -0.0517
   8223SM   H5G10941   4.127   4.129  13.430 -0.3381 -0.0817  2.2115
   8223SM   C6F10942   4.007   4.264  13.549  0.3431  0.8639 -0.6267
   8223SM   H6F10943   3.912   4.213  13.577  2.2904 -1.5256  2.1389
   8223SM   H6G10944   3.987   4.373  13.543  1.6992  1.2683  1.4456
   8223SM   C7F10945   4.096   4.247  13.669  0.4776 -0.1515 -0.5451
   8223SM   H7F10946   4.196   4.290  13.646 -0.9395  3.2867 -0.9886
   8223SM   H7G10947   4.114   4.141  13.695 -2.0680 -0.2463  1.2469
   8223SM   C8F10948   4.045   4.306  13.806 -0.1602 -0.1218 -0.0399
   8223SM   H8F10949   3.944   4.263  13.821 -0.2796 -0.0720 -0.6885
   8223SM   H8G10950   4.034   4.416  13.794 -2.6296 -0.2846  0.2453
   8223SM   C9F10951   4.139   4.277  13.917 -0.1061 -1.0110  0.2283
   8223SM   H9F10952   4.229   4.343  13.909 -1.2910  0.6243 -0.2517
   8223SM   H9G10953   4.176   4.173  13.915 -0.7624 -1.2550  0.5522
   8223SM  C10F10954   4.087   4.290  14.057  0.3436 -0.7392 -0.3062
   8223SM  H10F10955   3.987   4.241  14.064  0.9382 -1.9589 -0.0513
   8223SM  H10G10956   4.071   4.398  14.078  0.1583 -0.9257  0.5308
   8223SM  C11F10957   4.172   4.234  14.175  0.1904 -0.1977  0.5479
   8223SM  H11F10958   4.269   4.287  14.162 -0.0182 -0.1801 -1.3226
   8223SM  H11G10959   4.190   4.127  14.155 -1.3480 -0.2952 -0.5023
   8223SM  C12F10960   4.105   4.259  14.314 -0.1989  0.2211  0.5013
   8223SM  H12F10961   4.018   4.190  14.322 -0.2024  0.2204  0.4644
   8223SM  H12G10962   4.067   4.363  14.315  0.7222  0.6418 -2.0308
   8223SM  C13F10963   4.205   4.222  14.420 -0.0905  0.9318  0.3778
   8223SM  H13F10964   4.299   4.277  14.403  0.4466  0.0282  0.3479
   8223SM  H13G10965   4.232   4.117  14.396  0.8611  1.4543 -0.9136
   8223SM  C14F10966   4.158   4.231  14.565 -0.5304 -0.2796  0.0405
   8223SM  H14F10967   4.245   4.197  14.625  0.3224 -1.2718 -1.6769
   8223SM  H14G10968   4.063   4.180  14.590  0.0765 -0.2596  2.6828
   8223SM  C15F10969   4.141   4.375  14.607  0.4881 -0.3845  0.1002
   8223SM  H15F10970   4.045   4.417  14.571  0.1403 -2.2928 -1.3447
   8223SM  H15G10971   4.220   4.437  14.561  0.1548 -0.9483 -1.2833
   8223SM  C16F10972   4.140   4.389  14.767 -0.2989  0.1890  0.8494
   8223SM  H16F10973   4.066   4.312  14.798 -1.6004  0.9124 -0.3925
   8223SM  H16G10974   4.105   4.493  14.780  2.3439  1.2075  0.4834
   8223SM  C17F10975   4.281   4.397  14.840 -0.3272  0.3311 -0.4201
   8223SM  H17F10976   4.335   4.472  14.780 -1.1064  0.8042 -0.5463
   8223SM  H17G10977   4.330   4.297  14.839 -0.6538  0.1659 -1.4549
   8223SM  C18F10978   4.270   4.456  14.980  1.0449  0.4763  0.4624
   8223SM  H18F10979   4.220   4.554  14.970  1.5264  0.5417 -2.0014
   8223SM  H18G10980   4.374   4.467  15.018  2.1786  0.5456 -2.3608
   8223SM  C19F10981   4.183   4.377  15.081 -1.1003  0.1511  0.3932
   8223SM  H19F10982   4.080   4.372  15.040 -1.0978  0.2937  0.3685
   8223SM  H19G10983   4.172   4.441  15.171  0.5877  0.7527  0.2150
   8223SM  C20F10984   4.242   4.237  15.112 -0.6779 -0.6596  0.1752
   8223SM  H20F10985   4.349   4.253  15.136 -0.9725  1.5011  0.2703
   8223SM  H20G10986   4.246   4.178  15.018 -4.2984 -1.5351  0.4178
   8223SM  C21F10987   4.173   4.159  15.221 -0.6116 -0.9329  0.4836
   8223SM  H21F10988   4.064   4.156  15.198 -0.7058 -1.2153  0.9372
   8223SM  H21G10989   4.167   4.221  15.314 -0.8094  1.3591 -0.9866
   8223SM  C22F10990   4.231   4.020  15.259 -0.1742  0.6533  0.4854
   8223SM  H22F10991   4.165   3.980  15.338  0.6486 -0.1410  0.7883
   8223SM  H22G10992   4.332   4.012  15.304 -0.3366 -1.9298  0.5337
   8223SM  C23F10993   4.228   3.911  15.148 -0.7473 -0.0751  0.2402
   8223SM  H23F10994   4.125   3.871  15.143 -0.3268 -1.1272 -0.4628
   8223SM  H23G10995   4.309   3.837  15.168 -2.1441 -1.5202  0.7177
   8223SM  H23H10996   4.253   3.958  15.051 -0.8322  2.2665  1.2783
   8323SM     N10997   4.435   3.929  12.195  0.0168 -0.3618  0.7105
   8323SM   C1510998   4.303   3.862  12.196  0.2295 -0.5211 -0.3448
   8323SM  H15A10999   4.275   3.840  12.094  0.7468  1.2370 -0.9020
   8323SM  H15B11000   4.225   3.928  12.230  1.6020  1.2388 -0.4890
   8323SM  H15C11001   4.304   3.772  12.256 -0.7815 -0.9609 -0.9511
   8323SM   C1411002   4.538   3.826  12.156 -0.0523  0.0940 -0.1752
   8323SM  H14A11003   4.523   3.728  12.198  1.1052  0.8184  2.0964
   8323SM  H14B11004   4.640   3.848  12.181  0.4040 -1.0989 -0.9086
   8323SM  H14C11005   4.539   3.813  12.049 -1.6272 -0.0750 -0.1959
   8323SM   C1311006   4.448   4.036  12.091  0.2887 -0.1118 -0.8408
   8323SM  H13A11007   4.445   4.006  11.987 -1.8976  1.0216 -1.1644
   8323SM  H13B11008   4.539   4.092  12.110  0.3357 -0.5970  0.4576
   8323SM  H13C11009   4.368   4.106  12.106  1.2560  1.0653 -0.9614
   8323SM   C1211010   4.462   3.985  12.334 -0.1262  0.5673 -0.0458
   8323SM  H12A11011   4.399   4.071  12.350  0.6158  1.0381  0.3414
   8323SM  H12B11012   4.560   4.028  12.333 -0.4527  1.3180 -1.0462
   8323SM   C1111013   4.468   3.884  12.453  0.3401 -0.0490  0.1293
   8323SM  H11A11014   4.361   3.857  12.468  0.2464  0.5352  0.5337
   8323SM  H11B11015   4.496   3.955  12.534 -0.5451  0.2956  0.1446
   8323SM     P11016   4.669   3.754  12.540  0.0725 -0.0821  0.3947
   8323SM   O1311017   4.714   3.617  12.562  0.1100  0.1198 -0.7518
   8323SM   O1411018   4.765   3.850  12.492 -0.5032  0.4174 -0.7149
   8323SM   O1111019   4.621   3.813  12.674 -0.5853 -0.4261  0.0904
   8323SM   O1211020   4.544   3.762  12.447  0.3083  0.8044 -0.7312
   8323SM   C1S11021   4.511   3.754  12.749 -0.1862 -0.2318  0.0044
   8323SM   H1S11022   4.528   3.645  12.744 -0.4553 -0.2287 -1.4833
   8323SM   H1T11023   4.415   3.772  12.696  1.8486  0.7727 -3.6383
   8323SM    NF11024   4.441   3.720  12.976  0.3899  0.0546  0.0681
   8323SM   HNF11025   4.346   3.751  12.979 -0.4085 -2.2121 -0.1322
   8323SM   C2S11026   4.522   3.807  12.893 -0.3994 -0.5034 -0.3606
   8323SM   H2S11027   4.627   3.799  12.926 -0.8636 -1.5080  0.9727
   8323SM   C3S11028   4.475   3.957  12.905 -0.3136  0.0194 -0.6789
   8323SM   H3S11029   4.368   3.966  12.878 -0.4108  0.2346 -0.2293
   8323SM    O311030   4.550   4.043  12.822  0.5947 -0.2225 -0.4957
   8323SM   HO311031   4.588   3.971  12.771  2.5579  0.0143  0.5525
   8323SM   C4S11032   4.491   4.016  13.044 -0.0498  0.0425 -0.5342
   8323SM   H4S11033   4.580   4.075  13.073 -0.2359 -0.1861  0.5111
   8323SM   C5S11034   4.413   3.984  13.148  0.3401  0.5890 -0.8548
   8323SM   H5S11035   4.325   3.918  13.144  0.5109 -0.0699  2.9799
   8323SM   C6S11036   4.434   4.040  13.289 -0.2499 -0.7334  0.0540
   8323SM   H6S11037   4.355   4.118  13.298 -0.0546 -0.6646  1.3207
   8323SM   H6T11038   4.526   4.101  13.298 -1.6624  1.4124  0.6764
   8323SM   C7S11039   4.413   3.937  13.395  0.4854 -0.1409 -0.4621
   8323SM   H7S11040   4.489   3.859  13.374 -0.4191 -0.8322 -1.2536
   8323SM   H7T11041   4.307   3.903  13.391  0.3948  0.1834 -1.1775
   8323SM   C8S11042   4.437   4.008  13.533  0.5433  0.8513  0.3222
   8323SM   H8S11043   4.357   4.085  13.544 -1.2070 -0.7075 -0.7914
   8323SM   H8T11044   4.533   4.063  13.538  0.7589  0.4464  0.6410
   8323SM   C9S11045   4.438   3.910  13.653 -0.2247  0.1874 -0.2494
   8323SM   H9S11046   4.531   3.852  13.637 -0.5049 -0.1215 -0.8107
   8323SM   H9T11047   4.354   3.837  13.654 -1.2395  1.2097 -2.2930
   8323SM  C10S11048   4.460   3.984  13.789 -0.3203  0.3817  0.1491
   8323SM  H10S11049   4.380   4.059  13.810  0.1398  1.0302 -0.3645
   8323SM  H10T11050   4.552   4.047  13.789  0.3110 -0.3032 -3.2661
   8323SM  C11S11051   4.453   3.891  13.909 -0.6866  0.6270  0.1214
   8323SM  H11S11052   4.534   3.819  13.885  0.1814  2.1765 -1.9417
   8323SM  H11T11053   4.360   3.832  13.899 -1.3407  1.1497  2.5121
   8323SM  C12S11054   4.459   3.962  14.042 -0.2008  0.6963 -0.8262
   8323SM  H12S11055   4.378   4.036  14.055  2.1229  3.2406  0.1671
   8323SM  H12T11056   4.552   4.023  14.046 -0.0446  0.4265  1.9227
   8323SM  C13S11057   4.458   3.867  14.164  0.3151  0.7296  0.0875
   8323SM  H13S11058   4.550   3.804  14.167  0.1441  0.4613 -0.1788
   8323SM  H13T11059   4.367   3.804  14.158 -1.4423  2.8961  1.9622
   8323SM  C14S11060   4.447   3.927  14.306  0.1191 -0.0084  0.8534
   8323SM  H14S11061   4.406   3.854  14.379 -0.4792  1.4918  2.0585
   8323SM  H14T11062   4.368   4.004  14.295 -0.2805 -0.1958  2.2232
   8323SM  C15S11063   4.577   3.995  14.358 -0.3656 -0.0989  0.4735
   8323SM  H15S11064   4.610   4.077  14.291 -0.6834 -1.3620 -1.2794
   8323SM  H15T11065   4.665   3.928  14.360 -0.4756 -0.3604 -1.5638
   8323SM  C16S11066   4.556   4.066  14.487  0.1004 -0.3696 -0.1486
   8323SM  H16S11067   4.466   4.132  14.482  1.2277  1.2845  0.3787
   8323SM  H16T11068   4.637   4.138  14.512 -1.1793  1.1338 -0.1875
   8323SM  C17S11069   4.555   3.986  14.615  0.1139  0.0447 -0.0736
   8323SM  H17S11070   4.644   3.921  14.628 -0.4774 -0.8475 -0.3394
   8323SM  H17T11071   4.469   3.916  14.621 -0.0019  0.2501  0.7180
   8323SM  C18S11072   4.546   4.074  14.738 -0.6702  0.0734 -0.8522
   8323SM  H18S11073   4.638   4.132  14.762 -0.7389  0.9720 -2.5926
   8323SM  H18T11074   4.517   4.017  14.828  0.1190  3.6200  1.8694
   8323SM  H18U11075   4.465   4.143  14.709 -0.8339 -0.1648 -0.9676
   8323SM   C1F11076   4.469   3.589  12.990  0.2668 -0.5428 -1.1666
   8323SM    OF11077   4.569   3.537  12.945  0.2835  0.0970 -0.0943
   8323SM   C2F11078   4.365   3.517  13.064  0.1240 -0.2001  0.2332
   8323SM   H2F11079   4.304   3.461  12.991 -2.1316  1.3596  0.8328
   8323SM   H2G11080   4.296   3.591  13.110 -1.1952 -0.8718 -0.5972
   8323SM   C3F11081   4.414   3.423  13.178  0.1374 -0.1794 -0.1044
   8323SM   H3F11082   4.493   3.359  13.135  1.1092  1.9970 -1.7459
   8323SM   H3G11083   4.327   3.365  13.216 -0.6268  0.9646 -0.0393
   8323SM   C4F11084   4.472   3.496  13.301  0.0053  0.7036  0.2058
   8323SM   H4F11085   4.433   3.600  13.301  1.5510  1.3145  0.4972
   8323SM   H4G11086   4.577   3.525  13.277 -0.5856  1.2742 -1.8653
   8323SM   C5F11087   4.461   3.423  13.435 -0.2759 -0.5719 -0.5259
   8323SM   H5F11088   4.544   3.349  13.446  1.2078  1.3155  2.1974
   8323SM   H5G11089   4.360   3.377  13.436 -0.5753 -0.0240  2.1072
   8323SM   C6F11090   4.488   3.513  13.562  0.5134  0.6509 -0.1243
   8323SM   H6F11091   4.431   3.608  13.559  1.0175  1.0759  2.0136
   8323SM   H6G11092   4.592   3.551  13.567  0.3394  1.1285 -0.0756
   8323SM   C7F11093   4.466   3.439  13.696  0.8708  0.0878  0.3671
   8323SM   H7F11094   4.506   3.337  13.677  0.6568  0.2225 -0.8830
   8323SM   H7G11095   4.355   3.441  13.697  0.8125 -1.6132 -0.1918
   8323SM   C8F11096   4.530   3.501  13.814  0.1088 -0.8272  0.3436
   8323SM   H8F11097   4.527   3.612  13.815  0.9812 -0.7931  1.5893
   8323SM   H8G11098   4.638   3.475  13.820  0.9100  1.7459 -1.1032
   8323SM   C9F11099   4.460   3.460  13.946  0.8285 -0.8784 -0.4459
   8323SM   H9F11100   4.352   3.450  13.922  0.3070  2.0104  0.3343
   8323SM   H9G11101   4.478   3.529  14.032  2.1576 -0.6780 -0.8645
   8323SM  C10F11102   4.509   3.331  14.010 -0.4051  0.0961 -0.0456
   8323SM  H10F11103   4.617   3.343  14.035 -0.5006 -0.6866  0.8229
   8323SM  H10G11104   4.494   3.254  13.931 -0.4078 -0.7226  0.7303
   8323SM  C11F11105   4.432   3.270  14.132  0.2489 -0.1444  0.0070
   8323SM  H11F11106   4.453   3.161  14.130  1.0069 -0.0223 -3.0314
   8323SM  H11G11107   4.323   3.278  14.114 -0.5716 -0.8116  3.8166
   8323SM  C12F11108   4.481   3.328  14.263 -0.5367 -0.5098 -0.9245
   8323SM  H12F11109   4.475   3.439  14.269  0.2521 -0.3927 -1.9931
   8323SM  H12G11110   4.588   3.300  14.263 -0.5737 -0.7329 -2.3530
   8323SM  C13F11111   4.410   3.266  14.383 -0.8095 -0.5825 -0.3155
   8323SM  H13F11112   4.469   3.292  14.474 -0.2155  0.1057 -0.8896
   8323SM  H13G11113   4.417   3.155  14.374  0.8913 -0.6252  0.8811
   8323SM  C14F11114   4.261   3.290  14.398  0.3267  0.5993  0.0466
   8323SM  H14F11115   4.200   3.278  14.306 -0.9873  0.2421  0.9335
   8323SM  H14G11116   4.244   3.393  14.436  4.1338  1.4379 -0.1693
   8323SM  C15F11117   4.189   3.187  14.497  0.5525 -0.5659 -0.4833
   8323SM  H15F11118   4.234   3.085  14.496 -2.4761 -2.1995  3.4490
   8323SM  H15G11119   4.081   3.190  14.472  0.6747 -0.0920 -0.9782
   8323SM  C16F11120   4.186   3.235  14.638  0.7080 -0.3838 -0.7350
   8323SM  H16F11121   4.123   3.326  14.629 -1.1663 -1.7455 -2.4934
   8323SM  H16G11122   4.290   3.258  14.668  0.4999 -0.4296  0.0330
   8323SM  C17F11123   4.116   3.137  14.739 -0.0492  0.1262  0.3451
   8323SM  H17F11124   4.039   3.078  14.684  0.5044  1.3488 -1.8339
   8323SM  H17G11125   4.076   3.191  14.827 -1.5376 -0.4144  0.0196
   8323SM  C18F11126   4.214   3.031  14.793  0.2075  0.5361 -0.7591
   8323SM  H18F11127   4.260   2.981  14.706 -1.8277 -0.2845 -1.4347
   8323SM  H18G11128   4.161   2.951  14.850  1.3986  0.3247  0.0901
   8323SM  C19F11129   4.322   3.089  14.886 -0.3347  0.2132  0.3894
   8323SM  H19F11130   4.279   3.139  14.976  1.1309  0.3636  1.0479
   8323SM  H19G11131   4.378   3.176  14.845  0.6298  0.3169  1.8347
   8323SM  C20F11132   4.425   2.980  14.937  0.4028  0.4295 -0.2880
   8323SM  H20F11133   4.502   2.941  14.867  0.8060 -0.4743  0.6155
   8323SM  H20G11134   4.371   2.894  14.982  1.1827 -0.3558 -0.8115
   8323SM  C21F11135   4.511   3.031  15.057  0.1846  0.1533  0.6604
   8323SM  H21F11136   4.565   2.940  15.093 -0.9116 -0.4972  0.6853
   8323SM  H21G11137   4.432   3.075  15.121  0.0129 -0.2451  0.7199
   8323SM  C22F11138   4.602   3.148  15.014 -0.4673 -0.1843  0.6538
   8323SM  H22F11139   4.539   3.218  14.956 -0.0034  0.7945  1.3185
   8323SM  H22G11140   4.674   3.095  14.949  0.5391 -0.2300  1.7775
   8323SM  C23F11141   4.675   3.212  15.130  0.0057 -0.3291  0.1017
   8323SM  H23F11142   4.600   3.233  15.209  1.2419 -2.0238  1.8440
   8323SM  H23G11143   4.734   3.300  15.097 -0.8913  0.9753  1.8545
   8323SM  H23H11144   4.745   3.133  15.167  0.8467 -0.2658 -1.2658
   8423SM     N11145   3.470   2.339  12.305 -0.2216  0.4448 -0.1052
   8423SM   C1511146   3.343   2.424  12.311 -0.3301  0.3732  0.4775
   8423SM  H15A11147   3.379   2.514  12.358  1.3926 -0.7152  1.3270
   8423SM  H15B11148   3.271   2.378  12.377 -0.0523  1.0634  1.2697
   8423SM  H15C11149   3.294   2.446  12.217 -2.2288 -0.8767  1.1140
   8423SM   C1411150   3.452   2.228  12.196 -0.5649 -0.2112 -0.3914
   8423SM  H14A11151   3.545   2.173  12.191  0.6963  1.9186 -3.1855
   8423SM  H14B11152   3.439   2.280  12.102  1.2705 -0.2968 -0.7313
   8423SM  H14C11153   3.377   2.151  12.209 -0.5027  0.0168  1.5865
   8423SM   C1311154   3.592   2.420  12.265 -0.5925  0.2984  0.6667
   8423SM  H13A11155   3.685   2.364  12.269 -0.5000  0.4364  0.4844
   8423SM  H13B11156   3.609   2.507  12.326 -2.3870  0.4588  0.9916
   8423SM  H13C11157   3.585   2.455  12.163 -0.1643 -2.6578 -0.4904
   8423SM   C1211158   3.497   2.274  12.442  0.3414  0.1365 -0.1180
   8423SM  H12A11159   3.560   2.188  12.429 -0.2832 -0.3928  0.2972
   8423SM  H12B11160   3.401   2.235  12.475  0.8220 -0.3883  0.6757
   8423SM   C1111161   3.569   2.366  12.551  0.1472  0.1168  0.2582
   8423SM  H11A11162   3.564   2.300  12.641 -0.9884 -1.4507 -0.8971
   8423SM  H11B11163   3.517   2.461  12.575 -1.3784 -1.0750  1.9254
   8423SM     P11164   3.828   2.303  12.556 -0.2378  0.0165  0.3374
   8423SM   O1311165   3.787   2.162  12.514 -0.5291 -0.7686  0.7447
   8423SM   O1411166   3.963   2.353  12.515  0.0568  0.1446  0.0316
   8423SM   O1111167   3.825   2.307  12.715  0.0450 -0.2893  0.4219
   8423SM   O1211168   3.707   2.389  12.513  0.2653  0.3917  0.1361
   8423SM   C1S11169   3.909   2.240  12.813 -0.2824  0.3412  0.6497
   8423SM   H1S11170   4.018   2.254  12.798 -0.2293 -1.5343 -1.0569
   8423SM   H1T11171   3.876   2.135  12.802 -0.3324  0.4100  0.1107
   8423SM    NF11172   3.989   2.237  13.048  0.0035 -0.0347 -0.0690
   8423SM   HNF11173   3.962   2.173  13.120 -2.3826  1.0283  0.0775
   8423SM   C2S11174   3.884   2.289  12.958 -0.3102 -0.1180 -0.4159
   8423SM   H2S11175   3.897   2.399  12.959  0.2829 -0.1731 -1.0522
   8423SM   C3S11176   3.737   2.255  13.002 -0.4156 -0.4869 -0.5674
   8423SM   H3S11177   3.716   2.147  12.986 -2.4073 -0.0152 -1.5620
   8423SM    O311178   3.650   2.333  12.917  0.0337 -0.0288 -0.0561
   8423SM   HO311179   3.689   2.319  12.830 -0.4630 -0.4016 -0.2219
   8423SM   C4S11180   3.720   2.300  13.148  0.2453  0.4658 -0.7286
   8423SM   H4S11181   3.681   2.402  13.157  0.8014  0.7611 -1.5395
   8423SM   C5S11182   3.747   2.222  13.247 -0.1496  0.3138 -0.1281
   8423SM   H5S11183   3.771   2.116  13.228  0.2147  0.4064 -0.1857
   8423SM   C6S11184   3.740   2.250  13.393 -0.1898 -0.3206 -0.2832
   8423SM   H6S11185   3.651   2.217  13.451 -0.3620 -0.9712 -0.9062
   8423SM   H6T11186   3.746   2.359  13.412 -0.2469 -0.2511 -0.6624
   8423SM   C7S11187   3.867   2.189  13.459  0.2501 -0.6391 -0.3328
   8423SM   H7S11188   3.875   2.245  13.555 -0.3511 -0.1335 -0.5733
   8423SM   H7T11189   3.965   2.209  13.409  0.2394 -2.3133 -1.0832
   8423SM   C8S11190   3.871   2.045  13.494  0.1431  0.1890 -0.2108
   8423SM   H8S11191   3.839   1.979  13.410  1.1181 -0.0451 -0.4115
   8423SM   H8T11192   3.800   2.023  13.577 -1.0107  1.4304 -0.8343
   8423SM   C9S11193   4.007   1.996  13.555  0.5124  0.0526  0.4233
   8423SM   H9S11194   4.040   2.066  13.634  0.0920  0.1350  0.5322
   8423SM   H9T11195   4.078   2.010  13.471 -1.0523  0.4140 -0.9013
   8423SM  C10S11196   4.004   1.854  13.606 -0.5447  0.7871  0.5254
   8423SM  H10S11197   3.973   1.777  13.531 -1.2074  1.1338  0.4329
   8423SM  H10T11198   3.942   1.849  13.698  0.7146  0.5380  1.3798
   8423SM  C11S11199   4.143   1.808  13.658 -0.2885  0.6593 -0.1793
   8423SM  H11S11200   4.209   1.824  13.570  1.8549 -2.6516  0.6463
   8423SM  H11T11201   4.150   1.703  13.694  1.3927  1.8138  3.2826
   8423SM  C12S11202   4.196   1.881  13.778 -0.2078 -0.4411  0.6830
   8423SM  H12S11203   4.143   1.865  13.874 -1.8087  1.1694  0.1278
   8423SM  H12T11204   4.212   1.989  13.755 -1.2997 -0.1958  1.0389
   8423SM  C13S11205   4.335   1.839  13.831  0.4956 -0.1607  0.4191
   8423SM  H13S11206   4.408   1.867  13.752  1.0909 -0.8896  0.6929
   8423SM  H13T11207   4.355   1.730  13.838 -1.4566 -0.7660 -2.1437
   8423SM  C14S11208   4.374   1.928  13.959  0.0329  0.6222 -0.2368
   8423SM  H14S11209   4.471   1.890  13.997 -0.9982 -1.1840  0.7489
   8423SM  H14T11210   4.301   1.900  14.038 -0.5046  0.5508 -0.7460
   8423SM  C15S11211   4.372   2.078  13.929 -0.1510 -0.1563  0.5081
   8423SM  H15S11212   4.274   2.126  13.910 -0.5685 -0.9984  0.4971
   8423SM  H15T11213   4.434   2.089  13.837  1.0495 -1.9336  1.0402
   8423SM  C16S11214   4.434   2.163  14.047  0.4435  0.1251  0.4143
   8423SM  H16S11215   4.471   2.256  13.998 -1.4498 -0.1325 -1.7343
   8423SM  H16T11216   4.520   2.110  14.092  0.5454  0.9040  1.1669
   8423SM  C17S11217   4.328   2.204  14.157 -0.8617  0.3785  0.3788
   8423SM  H17S11218   4.286   2.112  14.203  3.6779 -1.7554  0.8308
   8423SM  H17T11219   4.237   2.253  14.116 -1.6172 -1.5613 -0.4368
   8423SM  C18S11220   4.398   2.283  14.261 -0.5963 -0.1377 -0.3835
   8423SM  H18S11221   4.332   2.319  14.343  0.9740  1.6982  0.1564
   8423SM  H18T11222   4.449   2.373  14.219 -1.0223 -0.4901 -1.6776
   8423SM  H18U11223   4.485   2.226  14.300  1.6750  2.5025 -1.2371
   8423SM   C1F11224   4.116   2.283  13.049 -0.4447  0.4159  1.0424
   8423SM    OF11225   4.150   2.373  12.975  0.3313 -0.2961  0.7684
   8423SM   C2F11226   4.208   2.213  13.144  0.7180  0.7469  0.1218
   8423SM   H2F11227   4.293   2.176  13.082 -0.6803 -2.0912 -0.2382
   8423SM   H2G11228   4.156   2.126  13.188  0.2481  0.8275 -0.2626
   8423SM   C3F11229   4.246   2.318  13.245 -0.4316  0.1148  0.5470
   8423SM   H3F11230   4.166   2.383  13.287 -0.4922  0.2147  0.2784
   8423SM   H3G11231   4.327   2.384  13.207 -0.1581 -0.0174  0.8931
   8423SM   C4F11232   4.305   2.256  13.371 -0.2935  0.0155 -0.1160
   8423SM   H4F11233   4.226   2.185  13.406  1.1028 -1.4058  0.2855
   8423SM   H4G11234   4.314   2.334  13.450  0.1027 -0.5933  0.4577
   8423SM   C5F11235   4.429   2.176  13.357 -0.0229 -0.0024  0.2540
   8423SM   H5F11236   4.505   2.242  13.311  1.7083 -0.8559  1.7459
   8423SM   H5G11237   4.407   2.099  13.280 -1.1470 -0.3545  0.8962
   8423SM   C6F11238   4.474   2.114  13.490  0.1037 -0.3748  0.4659
   8423SM   H6F11239   4.380   2.083  13.541  0.1515  0.3202  0.9845
   8423SM   H6G11240   4.525   2.194  13.547  0.3316  1.3585 -2.0000
   8423SM   C7F11241   4.581   2.005  13.463 -0.4714 -0.4060  0.8425
   8423SM   H7F11242   4.655   2.052  13.394  0.6696 -1.9925  0.9485
   8423SM   H7G11243   4.534   1.923  13.405  0.6018  0.1564 -0.8827
   8423SM   C8F11244   4.673   1.953  13.574 -0.4602 -1.2766  0.0499
   8423SM   H8F11245   4.744   1.876  13.538  1.8733  0.2140  1.1888
   8423SM   H8G11246   4.609   1.898  13.646  0.7430 -0.2278  1.9916
   8423SM   C9F11247   4.753   2.059  13.655  0.1432  0.1880  0.4663
   8423SM   H9F11248   4.690   2.145  13.685 -0.5000  0.7608 -2.2187
   8423SM   H9G11249   4.838   2.090  13.590  1.1655  0.0856  1.7219
   8423SM  C10F11250   4.826   1.982  13.770 -0.5539  0.4947  0.5111
   8423SM  H10F11251   4.887   1.900  13.728  0.2657  0.9100  0.8655
   8423SM  H10G11252   4.754   1.946  13.845 -0.7813 -0.0268  0.0470
   8423SM  C11F11253   4.919   2.074  13.842  0.0489 -0.1472  0.1571
   8423SM  H11F11254   4.877   2.172  13.874  2.5042  0.6636  1.1602
   8423SM  H11G11255   4.998   2.097  13.768 -2.1293 -0.0250 -2.2498
   8423SM  C12F11256   4.987   2.026  13.972 -0.7005 -0.1924 -0.5468
   8423SM  H12F11257   5.057   2.109  13.994 -1.3499 -0.1243  1.5204
   8423SM  H12G11258   5.053   1.939  13.953 -1.4828 -1.8111  3.1460
   8423SM  C13F11259   4.895   2.009  14.090  0.1732  0.7270 -0.8131
   8423SM  H13F11260   4.823   1.924  14.087  2.1076 -1.0651  0.6191
   8423SM  H13G11261   4.833   2.100  14.104  0.6297  1.1348 -1.4184
   8423SM  C14F11262   4.965   1.994  14.226 -0.1499  0.4336  0.6090
   8423SM  H14F11263   4.906   2.024  14.316 -1.6458 -1.4772  0.3499
   8423SM  H14G11264   5.051   2.064  14.219 -0.6490  0.9102 -1.1438
   8423SM  C15F11265   5.009   1.852  14.269  0.7865 -0.5468 -0.0080
   8423SM  H15F11266   5.046   1.785  14.188 -0.3312 -0.8387 -0.2989
   8423SM  H15G11267   4.917   1.811  14.315  0.0034  0.4124 -0.6765
   8423SM  C16F11268   5.132   1.851  14.364  0.4644 -0.6492  0.6073
   8423SM  H16F11269   5.094   1.896  14.458  0.5594  0.2399  0.2278
   8423SM  H16G11270   5.214   1.915  14.326  0.5755  0.7745  2.9939
   8423SM  C17F11271   5.186   1.711  14.392 -0.9211  1.1367 -0.7171
   8423SM  H17F11272   5.259   1.677  14.316  0.7630 -0.6652  1.5389
   8423SM  H17G11273   5.100   1.642  14.391 -0.7684  0.8332  1.3625
   8423SM  C18F11274   5.241   1.688  14.534 -0.7149  0.6577  0.1407
   8423SM  H18F11275   5.268   1.581  14.545  0.3389  1.0625  1.7900
   8423SM  H18G11276   5.162   1.717  14.606  0.4792  1.8178  1.0417
   8423SM  C19F11277   5.372   1.766  14.557  0.6604  0.5271 -0.3392
   8423SM  H19F11278   5.365   1.863  14.503 -1.0389  0.8624  0.4296
   8423SM  H19G11279   5.448   1.707  14.502 -0.5104 -1.4248  0.0596
   8423SM  C20F11280   5.408   1.792  14.706 -0.0569  0.7231 -0.7076
   8423SM  H20F11281   5.506   1.844  14.710  0.0193  0.5440  2.3485
   8423SM  H20G11282   5.419   1.689  14.746 -0.7297  1.0250  0.3053
   8423SM  C21F11283   5.311   1.863  14.803 -0.4788  0.3516  0.1548
   8423SM  H21F11284   5.376   1.856  14.893  0.2069 -0.1407 -0.3719
   8423SM  H21G11285   5.221   1.805  14.831  0.0002 -0.9789 -0.9741
   8423SM  C22F11286   5.283   2.007  14.762  0.2246 -0.2464 -0.3129
   8423SM  H22F11287   5.224   2.018  14.669  0.1779  0.3848 -0.2116
   8423SM  H22G11288   5.377   2.067  14.758 -0.7883  1.4645  0.1877
   8423SM  C23F11289   5.192   2.076  14.863  0.0951  0.5619 -0.0100
   8423SM  H23F11290   5.100   2.018  14.887  2.1246 -2.6635  0.6263
   8423SM  H23G11291   5.156   2.169  14.815 -2.3046 -0.3007 -0.0069
   8423SM  H23H11292   5.253   2.083  14.956 -1.2814  0.3394  0.9330
   8523SM     N11293   5.366   3.133  12.247  1.1526  0.5151 -0.5805
   8523SM   C1511294   5.329   3.253  12.167 -0.1672 -0.1825  0.1784
   8523SM  H15A11295   5.302   3.336  12.230  1.7229 -0.3375  1.2310
   8523SM  H15B11296   5.241   3.244  12.104  1.2316 -0.0490 -1.8989
   8523SM  H15C11297   5.409   3.297  12.110  2.0882 -0.0686  3.2343
   8523SM   C1411298   5.247   3.075  12.309  0.1271  0.3186  0.4116
   8523SM  H14A11299   5.264   2.995  12.380 -0.7862 -0.3492 -0.0896
   8523SM  H14B11300   5.170   3.035  12.244 -0.2402 -1.0307  1.6168
   8523SM  H14C11301   5.199   3.150  12.369 -2.2008 -1.6974  1.2589
   8523SM   C1311302   5.415   3.039  12.144 -0.3632  0.1679  0.4032
   8523SM  H13A11303   5.331   3.035  12.075 -0.7004 -2.1574  0.8597
   8523SM  H13B11304   5.425   2.938  12.179  0.7521  0.3315  0.5834
   8523SM  H13C11305   5.505   3.056  12.087  0.0109 -0.7151  0.7196
   8523SM   C1211306   5.465   3.163  12.354 -0.4374  0.5362  0.4012
   8523SM  H12A11307   5.541   3.226  12.310 -1.6445  2.4596  0.9361
   8523SM  H12B11308   5.514   3.071  12.383  0.0768  0.2447 -1.2598
   8523SM   C1111309   5.420   3.246  12.477 -0.1553  0.2502  0.5368
   8523SM  H11A11310   5.503   3.265  12.548  1.3836 -0.8127 -0.8931
   8523SM  H11B11311   5.349   3.189  12.540  1.9769 -4.7047 -1.0982
   8523SM     P11312   5.462   3.498  12.405  0.1368  0.0888  0.7890
   8523SM   O1311313   5.602   3.458  12.384 -0.0492 -0.1382 -0.3689
   8523SM   O1411314   5.397   3.585  12.301  0.0355  0.0071 -0.4033
   8523SM   O1111315   5.448   3.572  12.546 -0.1381  0.2726  0.2338
   8523SM   O1211316   5.359   3.375  12.431 -0.2447  0.8659  0.4948
   8523SM   C1S11317   5.357   3.542  12.652 -0.0079 -0.4821 -0.6715
   8523SM   H1S11318   5.374   3.443  12.700  3.3707  0.0066 -0.6240
   8523SM   H1T11319   5.252   3.551  12.614 -0.3021  0.5725  0.3635
   8523SM    NF11320   5.281   3.608  12.890  0.0581  0.8584 -0.1518
   8523SM   HNF11321   5.210   3.678  12.895 -2.4677 -1.4605 -0.7007
   8523SM   C2S11322   5.369   3.639  12.778 -0.5277  0.9394 -0.0243
   8523SM   H2S11323   5.469   3.632  12.824  0.2116  0.3989 -1.6375
   8523SM   C3S11324   5.356   3.789  12.729 -0.8458  0.0301 -0.0151
   8523SM   H3S11325   5.255   3.819  12.693 -2.6173  1.0600  5.0357
   8523SM    O311326   5.435   3.817  12.615  0.7789 -0.2781  0.2612
   8523SM   HO311327   5.444   3.725  12.587 -0.9248 -0.9089  1.5717
   8523SM   C4S11328   5.388   3.872  12.853 -0.0826  0.7904  0.2483
   8523SM   H4S11329   5.483   3.846  12.903 -0.5858  1.2084  1.4660
   8523SM   C5S11330   5.300   3.952  12.913 -0.3646 -0.3901  0.2149
   8523SM   H5S11331   5.196   3.957  12.877 -0.2224  0.3911 -0.0995
   8523SM   C6S11332   5.325   4.026  13.039  0.1066  0.0572 -1.2206
   8523SM   H6S11333   5.244   3.988  13.104  1.2703 -0.3250  0.0535
   8523SM   H6T11334   5.309   4.134  13.015  0.0829  0.3303 -0.0394
   8523SM   C7S11335   5.452   4.008  13.127  0.0535 -0.1446 -0.0099
   8523SM   H7S11336   5.541   4.034  13.064  2.1538 -0.7484  2.5421
   8523SM   H7T11337   5.468   3.899  13.143  1.4141 -0.1719 -1.3273
   8523SM   C8S11338   5.446   4.075  13.261 -0.9465  0.2621 -0.0816
   8523SM   H8S11339   5.339   4.058  13.284 -1.8086  0.0817 -3.6027
   8523SM   H8T11340   5.459   4.184  13.246  1.1571 -0.1924 -2.3783
   8523SM   C9S11341   5.549   4.020  13.361 -0.2146 -0.5996  0.6337
   8523SM   H9S11342   5.650   4.022  13.315 -0.5548  1.3492 -0.1244
   8523SM   H9T11343   5.509   3.918  13.381 -3.1547  0.4611  0.6936
   8523SM  C10S11344   5.557   4.101  13.489  0.0303 -0.0444  0.5077
   8523SM  H10S11345   5.462   4.125  13.540  0.1820 -0.7615  1.1361
   8523SM  H10T11346   5.595   4.198  13.450 -0.4044  0.7858  2.0895
   8523SM  C11S11347   5.660   4.035  13.584 -0.1645 -0.7372  0.1199
   8523SM  H11S11348   5.750   4.012  13.524  0.7204 -1.6773  1.7242
   8523SM  H11T11349   5.612   3.940  13.616  1.2413 -1.0860  1.3160
   8523SM  C12S11350   5.686   4.122  13.707  0.1006  0.4504  0.0934
   8523SM  H12S11351   5.590   4.122  13.764 -1.5486  0.7715 -2.4889
   8523SM  H12T11352   5.704   4.226  13.674 -0.2741  0.6344  0.4663
   8523SM  C13S11353   5.792   4.067  13.803 -0.4659 -0.3871  0.4219
   8523SM  H13S11354   5.881   4.029  13.748  0.5473  1.5708  0.6318
   8523SM  H13T11355   5.750   3.973  13.846  0.5784 -0.4427  1.3566
   8523SM  C14S11356   5.827   4.165  13.906 -0.2555  0.5296  0.7406
   8523SM  H14S11357   5.775   4.129  13.997 -3.0336  0.2369 -0.8369
   8523SM  H14T11358   5.793   4.266  13.875 -0.0706 -0.1198 -1.8748
   8523SM  C15S11359   5.979   4.178  13.929 -0.1648 -0.7917 -0.0616
   8523SM  H15S11360   6.029   4.213  13.837  1.4061  1.8303  1.6610
   8523SM  H15T11361   6.023   4.080  13.958  2.1735 -0.0908 -1.0139
   8523SM  C16S11362   6.013   4.292  14.035 -0.1655  0.4288  0.0574
   8523SM  H16S11363   5.957   4.384  14.006  0.6813  0.7464 -0.5867
   8523SM  H16T11364   6.119   4.325  14.031  0.7376 -2.3362 -1.0009
   8523SM  C17S11365   5.984   4.259  14.184 -0.3762  0.3218  0.5322
   8523SM  H17S11366   6.039   4.165  14.205  1.1122  0.9974 -0.1823
   8523SM  H17T11367   5.877   4.234  14.199 -0.3278  1.8703  5.1388
   8523SM  C18S11368   6.037   4.371  14.281  0.1629  0.3400 -0.7291
   8523SM  H18S11369   5.994   4.467  14.245 -0.4998  0.1690 -0.3997
   8523SM  H18T11370   6.148   4.379  14.277  0.3832 -1.4778  0.6469
   8523SM  H18U11371   6.002   4.348  14.383 -0.6752  1.5629 -0.7194
   8523SM   C1F11372   5.275   3.497  12.964  0.8400 -0.5709 -0.5798
   8523SM    OF11373   5.321   3.383  12.936 -0.5416 -0.9940  0.3393
   8523SM   C2F11374   5.216   3.526  13.095  0.6056 -0.1368 -0.0675
   8523SM   H2F11375   5.122   3.469  13.110  0.0769  0.5187 -0.8320
   8523SM   H2G11376   5.198   3.635  13.104 -0.5401 -0.3832  0.8716
   8523SM   C3F11377   5.312   3.461  13.195 -0.3214  0.0945  0.2305
   8523SM   H3F11378   5.408   3.515  13.180 -0.5958  0.0683 -1.9573
   8523SM   H3G11379   5.336   3.356  13.172  1.8578  0.6958 -0.4552
   8523SM   C4F11380   5.275   3.474  13.342  0.7769  0.2821 -0.1222
   8523SM   H4F11381   5.284   3.581  13.370  2.5695  0.2942 -0.5909
   8523SM   H4G11382   5.358   3.430  13.402  0.7425 -0.3610 -0.5306
   8523SM   C5F11383   5.143   3.414  13.384  0.1672 -0.2769 -0.4974
   8523SM   H5F11384   5.145   3.304  13.378 -3.1370 -0.3886 -1.2702
   8523SM   H5G11385   5.071   3.432  13.301 -0.6942 -1.5119 -0.0360
   8523SM   C6F11386   5.098   3.450  13.530  0.1847  0.1326  0.6352
   8523SM   H6F11387   5.070   3.557  13.513  0.7472  0.0777 -0.7817
   8523SM   H6G11388   5.178   3.440  13.607  2.6640  0.9137 -1.7032
   8523SM   C7F11389   4.982   3.356  13.563 -0.3452 -0.2505  0.2934
   8523SM   H7F11390   5.018   3.252  13.576 -0.4568 -0.2555  0.5699
   8523SM   H7G11391   4.921   3.349  13.472  1.2396 -0.7116 -0.7818
   8523SM   C8F11392   4.904   3.410  13.679  0.0936  0.1306  0.2739
   8523SM   H8F11393   4.818   3.343  13.697 -0.0947  0.1812 -0.4076
   8523SM   H8G11394   4.883   3.517  13.659  0.5067  0.2666  0.5509
   8523SM   C9F11395   4.999   3.419  13.800 -0.0753  0.3392 -0.0091
   8523SM   H9F11396   5.085   3.487  13.785  0.8909 -0.6944  0.6236
   8523SM   H9G11397   5.045   3.320  13.824 -0.3623 -0.8443 -3.7525
   8523SM  C10F11398   4.933   3.468  13.934 -0.0444  0.6131  0.1875
   8523SM  H10F11399   4.837   3.413  13.942  0.5285 -0.4548 -0.1783
   8523SM  H10G11400   4.900   3.574  13.927 -1.8554 -0.0122 -2.1065
   8523SM  C11F11401   5.011   3.454  14.063 -0.1881  0.5679  0.3296
   8523SM  H11F11402   5.109   3.504  14.056  1.1073 -1.8140  0.5396
   8523SM  H11G11403   5.036   3.346  14.073 -2.0408 -0.0631 -1.1811
   8523SM  C12F11404   4.939   3.509  14.192 -0.1704  0.1001 -0.0512
   8523SM  H12F11405   4.862   3.441  14.235 -0.5239  0.9110  0.6262
   8523SM  H12G11406   4.880   3.602  14.178 -0.6333  0.0791  1.5189
   8523SM  C13F11407   5.032   3.542  14.308  0.5166  0.0241 -0.5252
   8523SM  H13F11408   5.071   3.443  14.342  1.2789  1.2126  2.3425
   8523SM  H13G11409   4.976   3.577  14.397  1.0651  2.9821 -1.2338
   8523SM  C14F11410   5.151   3.631  14.295 -0.7295 -0.6881 -0.2847
   8523SM  H14F11411   5.110   3.723  14.248 -2.3632 -1.0095  0.4429
   8523SM  H14G11412   5.233   3.584  14.237  0.1879  1.1413 -0.5389
   8523SM  C15F11413   5.202   3.676  14.435  0.3179 -0.4567  0.4062
   8523SM  H15F11414   5.237   3.587  14.491  0.6368 -0.4295  0.2492
   8523SM  H15G11415   5.116   3.723  14.489  0.9581  3.0938 -1.3511
   8523SM  C16F11416   5.325   3.768  14.422 -0.3691 -0.4865  0.4750
   8523SM  H16F11417   5.284   3.861  14.377 -1.6678 -0.9523  0.6654
   8523SM  H16G11418   5.403   3.737  14.349 -2.1400 -2.1586 -0.7881
   8523SM  C17F11419   5.397   3.790  14.555 -0.3304 -0.0402 -0.1888
   8523SM  H17F11420   5.447   3.698  14.591 -1.6119 -0.7075 -0.0441
   8523SM  H17G11421   5.311   3.809  14.622 -1.2523 -1.1061 -1.0245
   8523SM  C18F11422   5.508   3.891  14.562 -0.0529 -0.9287 -0.1577
   8523SM  H18F11423   5.463   3.982  14.606 -0.5157 -1.1040 -0.2580
   8523SM  H18G11424   5.549   3.912  14.461  0.0667  0.3581  0.1504
   8523SM  C19F11425   5.629   3.849  14.649  0.1151  0.0280  0.3039
   8523SM  H19F11426   5.699   3.935  14.646  1.3176 -0.9367 -1.7303
   8523SM  H19G11427   5.685   3.762  14.609 -0.0929 -0.1539  0.4024
   8523SM  C20F11428   5.588   3.804  14.790 -0.3635  0.3649 -0.1945
   8523SM  H20F11429   5.540   3.704  14.798 -0.9082  0.7181  1.1311
   8523SM  H20G11430   5.504   3.872  14.816 -1.4406 -1.0272  0.0827
   8523SM  C21F11431   5.694   3.812  14.894 -0.0279 -0.3379  0.6951
   8523SM  H21F11432   5.750   3.907  14.884 -2.0174  0.6880 -1.6604
   8523SM  H21G11433   5.778   3.741  14.875  1.6863  1.9871 -1.0320
   8523SM  C22F11434   5.642   3.813  15.035  0.2422  0.6635  0.6981
   8523SM  H22F11435   5.595   3.714  15.049 -1.2621  1.6382  3.0269
   8523SM  H22G11436   5.563   3.891  15.041  0.9287  1.4657 -0.2986
   8523SM  C23F11437   5.747   3.832  15.142  0.1935 -0.3009  0.4382
   8523SM  H23F11438   5.771   3.940  15.149 -0.6258 -0.1542  1.0483
   8523SM  H23G11439   5.841   3.780  15.112  0.3365 -0.1447  0.6191
   8523SM  H23H11440   5.725   3.793  15.243  1.1107  0.0036  0.7709
   8623SM     N11441   3.142   1.642  12.717  1.1670 -0.4130 -0.1205
   8623SM   C1511442   3.150   1.706  12.846 -0.5772 -0.2840 -0.4786
   8623SM  H15A11443   3.188   1.639  12.923  0.2789 -0.5120 -1.0799
   8623SM  H15B11444   3.054   1.743  12.878 -1.1093 -0.6779 -1.5703
   8623SM  H15C11445   3.207   1.798  12.841 -2.0344  1.0988  3.7192
   8623SM   C1411446   3.274   1.612  12.672  1.0604  0.1410  0.0928
   8623SM  H14A11447   3.276   1.576  12.570  1.9458  0.2282  0.0743
   8623SM  H14B11448   3.334   1.545  12.732  0.8827 -0.6666 -0.6024
   8623SM  H14C11449   3.331   1.702  12.660  0.5398  0.2670 -1.8097
   8623SM   C1311450   3.078   1.506  12.730 -0.4076 -0.4896 -0.1022
   8623SM  H13A11451   3.147   1.449  12.790  1.2242  0.3447 -1.0848
   8623SM  H13B11452   3.070   1.463  12.631  0.1181  1.9720 -1.3126
   8623SM  H13C11453   2.974   1.508  12.758 -0.2795  0.5201  0.3356
   8623SM   C1211454   3.065   1.726  12.616  0.2866 -0.4612  0.6546
   8623SM  H12A11455   2.982   1.778  12.663 -0.4771  0.6984 -1.8114
   8623SM  H12B11456   3.036   1.675  12.526 -0.0627 -0.3855  0.7211
   8623SM   C1111457   3.135   1.856  12.567 -0.0770  0.1723  0.6630
   8623SM  H11A11458   3.073   1.906  12.489  0.9985 -0.7396 -0.8241
   8623SM  H11B11459   3.220   1.823  12.503  0.4097  0.9891  0.8782
   8623SM     P11460   3.304   2.036  12.639  0.6517  0.2871 -0.0572
   8623SM   O1311461   3.419   1.946  12.651  0.1718  0.5094 -0.3127
   8623SM   O1411462   3.276   2.102  12.511 -0.2065  0.0781  0.0764
   8623SM   O1111463   3.294   2.134  12.758  0.4401  0.2591 -0.1034
   8623SM   O1211464   3.180   1.942  12.666 -0.6103 -0.7319  0.6765
   8623SM   C1S11465   3.262   2.087  12.880  0.0924  0.1541 -1.1764
   8623SM   H1S11466   3.325   1.999  12.905  2.0632  2.2936  2.4029
   8623SM   H1T11467   3.153   2.069  12.886  0.1696 -0.6978 -2.0895
   8623SM    NF11468   3.273   2.132  13.124 -0.3316 -0.2531 -0.5174
   8623SM   HNF11469   3.208   2.187  13.176  0.0867  0.0267 -0.2845
   8623SM   C2S11470   3.318   2.180  12.992  0.4605 -0.2140 -0.1590
   8623SM   H2S11471   3.429   2.170  12.989  0.3139 -1.8748 -2.2233
   8623SM   C3S11472   3.287   2.327  12.968 -0.0583  0.7157 -0.3877
   8623SM   H3S11473   3.178   2.344  12.976 -0.3154 -1.1001  0.5507
   8623SM    O311474   3.332   2.377  12.846 -0.1253 -0.0627 -0.4844
   8623SM   HO311475   3.312   2.303  12.788  1.9587  1.4243 -3.3787
   8623SM   C4S11476   3.350   2.408  13.076  0.8249 -0.0967  0.8877
   8623SM   H4S11477   3.455   2.435  13.056  1.3751 -2.5905  0.1655
   8623SM   C5S11478   3.285   2.475  13.174 -0.1866  0.4917 -0.1705
   8623SM   H5S11479   3.176   2.468  13.185  0.0805 -2.9152  1.9976
   8623SM   C6S11480   3.360   2.553  13.281  0.1309 -0.3362 -0.9780
   8623SM   H6S11481   3.296   2.636  13.317  2.0881  0.3695  1.1112
   8623SM   H6T11482   3.449   2.599  13.232 -0.6399  2.1437 -0.1936
   8623SM   C7S11483   3.405   2.468  13.397 -0.1548  0.4624  0.6787
   8623SM   H7S11484   3.456   2.376  13.360 -1.4142  0.0833 -0.1804
   8623SM   H7T11485   3.310   2.436  13.445 -0.4871 -0.8886 -0.7553
   8623SM   C8S11486   3.491   2.555  13.488 -0.3601  0.6288 -0.2065
   8623SM   H8S11487   3.441   2.650  13.515 -0.7475  0.7704 -1.3466
   8623SM   H8T11488   3.588   2.587  13.444  0.6209 -0.9600  0.7067
   8623SM   C9S11489   3.515   2.492  13.624 -0.4877 -0.3372 -0.3707
   8623SM   H9S11490   3.455   2.399  13.635 -0.3417 -0.1628  2.8478
   8623SM   H9T11491   3.480   2.551  13.712 -0.7923  0.7390 -1.1877
   8623SM  C10S11492   3.661   2.473  13.668  0.8169 -0.0709 -0.2477
   8623SM  H10S11493   3.710   2.572  13.656  2.1780 -0.6426  0.4334
   8623SM  H10T11494   3.717   2.402  13.604  0.2963  0.4026 -1.2700
   8623SM  C11S11495   3.667   2.427  13.817 -0.3902 -0.2828  0.0237
   8623SM  H11S11496   3.587   2.487  13.866 -0.0964 -0.4149  0.6870
   8623SM  H11T11497   3.765   2.460  13.857 -1.0653 -0.0392  1.5694
   8623SM  C12S11498   3.650   2.279  13.828  0.4936  0.4239  0.5640
   8623SM  H12S11499   3.698   2.236  13.738 -2.1636 -3.1313  0.6199
   8623SM  H12T11500   3.544   2.245  13.822  1.6893 -3.6980 -0.9846
   8623SM  C13S11501   3.728   2.237  13.954 -0.0605 -0.1170 -0.2485
   8623SM  H13S11502   3.677   2.151  14.002  1.0673 -0.6218  0.0663
   8623SM  H13T11503   3.731   2.309  14.039  1.1304 -0.6415  0.1714
   8623SM  C14S11504   3.875   2.211  13.922 -0.5288  0.0087 -0.2205
   8623SM  H14S11505   3.923   2.306  13.891 -0.3193  0.4910  1.4923
   8623SM  H14T11506   3.885   2.138  13.839 -1.7295  1.6909 -1.9171
   8623SM  C15S11507   3.960   2.164  14.046 -0.3334 -0.0122 -0.0899
   8623SM  H15S11508   3.963   2.247  14.120  1.0317 -0.2408  0.1465
   8623SM  H15T11509   4.062   2.132  14.015 -1.1622 -1.6602 -1.2213
   8623SM  C16S11510   3.894   2.054  14.131  0.4847  0.3246  0.0201
   8623SM  H16S11511   3.892   1.960  14.072  2.2745  0.0528  0.3379
   8623SM  H16T11512   3.796   2.085  14.174  1.0646 -1.2775  2.7311
   8623SM  C17S11513   3.979   2.030  14.255  0.1303 -0.1761 -0.6811
   8623SM  H17S11514   4.084   2.007  14.224  0.1967  0.9313 -1.3411
   8623SM  H17T11515   3.936   1.934  14.291 -2.1383  0.7363 -0.8292
   8623SM  C18S11516   3.981   2.143  14.363 -0.4967  0.0493 -0.3797
   8623SM  H18S11517   4.006   2.109  14.466 -1.9489  1.2424  0.4142
   8623SM  H18T11518   3.882   2.193  14.373 -0.8686 -0.3635 -1.7241
   8623SM  H18U11519   4.057   2.217  14.331 -0.4803  0.0311 -0.3826
   8623SM   C1F11520   3.305   2.016  13.179 -0.4084 -0.3198 -0.4099
   8623SM    OF11521   3.403   1.951  13.138 -0.3593 -0.4207  0.1707
   8623SM   C2F11522   3.235   1.973  13.302  0.0460  0.0811  0.1540
   8623SM   H2F11523   3.313   1.957  13.380  0.8616  1.0706 -0.4265
   8623SM   H2G11524   3.202   1.868  13.297  0.3361 -0.0663  1.2318
   8623SM   C3F11525   3.121   2.053  13.361  0.6125  0.0209 -0.2278
   8623SM   H3F11526   3.044   2.067  13.283  0.4258 -0.0314 -0.0554
   8623SM   H3G11527   3.161   2.156  13.375 -0.6361  0.7285 -1.5318
   8623SM   C4F11528   3.069   1.993  13.492 -0.6518 -0.0412 -0.3202
   8623SM   H4F11529   3.137   2.014  13.578 -0.7981  0.4228 -0.3194
   8623SM   H4G11530   3.087   1.886  13.467 -1.8615  0.5334 -4.4952
   8623SM   C5F11531   2.918   2.024  13.509  0.4172  0.2055  0.6807
   8623SM   H5F11532   2.868   2.015  13.411 -1.1488  1.5968  1.3052
   8623SM   H5G11533   2.892   2.128  13.541 -0.9008 -0.4554  1.8433
   8623SM   C6F11534   2.851   1.927  13.602  0.9702 -0.1860  0.2280
   8623SM   H6F11535   2.918   1.922  13.689 -0.2907  0.6122  1.2884
   8623SM   H6G11536   2.860   1.824  13.562  0.4032  0.3784 -1.4821
   8623SM   C7F11537   2.704   1.954  13.645 -0.5363 -0.6680 -0.4870
   8623SM   H7F11538   2.639   1.897  13.577 -0.4355  1.5671 -2.5942
   8623SM   H7G11539   2.685   2.063  13.650  1.5729 -0.2476 -0.6775
   8623SM   C8F11540   2.684   1.898  13.792 -0.0028  0.6595  0.1104
   8623SM   H8F11541   2.745   1.958  13.863  0.9421 -0.9597  0.7364
   8623SM   H8G11542   2.717   1.793  13.780  1.3756  1.3356 -3.1243
   8623SM   C9F11543   2.529   1.906  13.828  0.2493  0.0903  0.5056
   8623SM   H9F11544   2.477   1.813  13.797  1.0574  0.1586 -1.1979
   8623SM   H9G11545   2.485   1.981  13.759  0.7817 -1.0311 -1.1075
   8623SM  C10F11546   2.496   1.922  13.978 -0.4572  0.0524 -0.0169
   8623SM  H10F11547   2.385   1.912  13.982 -0.4604  0.2043  0.2947
   8623SM  H10G11548   2.525   2.028  13.987 -3.0943  1.0411 -1.9241
   8623SM  C11F11549   2.563   1.833  14.075  0.3186  0.1784 -0.3768
   8623SM  H11F11550   2.522   1.848  14.177  2.1372  3.8716 -0.0194
   8623SM  H11G11551   2.667   1.870  14.088  0.2602  0.1578  0.1772
   8623SM  C12F11552   2.563   1.683  14.045 -0.0210  0.7547  0.5809
   8623SM  H12F11553   2.636   1.628  14.109  1.8929  1.0647 -1.2217
   8623SM  H12G11554   2.589   1.663  13.939 -0.2079  1.6266  0.3648
   8623SM  C13F11555   2.426   1.626  14.082  0.4188  1.0716 -0.1934
   8623SM  H13F11556   2.345   1.645  14.008 -0.5900 -0.7218  0.3892
   8623SM  H13G11557   2.396   1.680  14.175 -0.9620  3.4639 -1.9128
   8623SM  C14F11558   2.438   1.473  14.111  0.2611 -0.4103 -0.2699
   8623SM  H14F11559   2.530   1.474  14.173  0.6119  2.4245 -0.6752
   8623SM  H14G11560   2.462   1.426  14.013  0.0453 -1.7283  0.2978
   8623SM  C15F11561   2.321   1.411  14.185  0.4836 -0.4598  0.5237
   8623SM  H15F11562   2.351   1.308  14.213  0.5541 -0.9192 -1.1738
   8623SM  H15G11563   2.242   1.402  14.107  2.2659  1.6613 -1.6674
   8623SM  C16F11564   2.270   1.486  14.310 -0.5700  0.6595 -0.1533
   8623SM  H16F11565   2.206   1.573  14.284 -1.1069  0.2307 -0.2889
   8623SM  H16G11566   2.356   1.518  14.374  1.3853 -0.9817 -1.8333
   8623SM  C17F11567   2.196   1.394  14.414 -1.0129  0.4434 -0.2584
   8623SM  H17F11568   2.264   1.322  14.464 -1.3940  0.3177  0.0855
   8623SM  H17G11569   2.117   1.333  14.365  1.3466 -1.1575 -2.2946
   8623SM  C18F11570   2.145   1.469  14.541  0.0564 -0.9193  0.6179
   8623SM  H18F11571   2.070   1.547  14.517  1.9657  0.2814 -1.9615
   8623SM  H18G11572   2.229   1.525  14.588  1.0792 -1.2075 -0.8129
   8623SM  C19F11573   2.102   1.361  14.642  0.0578 -0.4881  0.7250
   8623SM  H19F11574   2.047   1.403  14.729 -1.2350  0.0937 -0.3451
   8623SM  H19G11575   2.190   1.307  14.683  0.8859  0.8784  0.8196
   8623SM  C20F11576   2.003   1.258  14.589 -0.3726  0.2078 -0.2942
   8623SM  H20F11577   2.032   1.221  14.489  1.1474  0.6191 -0.0245
   8623SM  H20G11578   1.901   1.301  14.578 -0.5471  0.6213  2.2804
   8623SM  C21F11579   1.985   1.128  14.672 -0.6298  0.4568  0.1199
   8623SM  H21F11580   1.956   1.159  14.775  0.9657 -0.0020  0.7517
   8623SM  H21G11581   2.074   1.061  14.678 -1.3987 -0.5590  0.6244
   8623SM  C22F11582   1.874   1.044  14.606  0.2543  0.0161 -0.1773
   8623SM  H22F11583   1.883   1.027  14.496 -2.0907  1.7236 -0.7025
   8623SM  H22G11584   1.782   1.104  14.619  1.8047  2.7820 -1.0163
   8623SM  C23F11585   1.841   0.912  14.680 -0.6115 -0.3207  0.2324
   8623SM  H23F11586   1.930   0.846  14.683 -0.7702 -0.5324  0.3450
   8623SM  H23G11587   1.753   0.854  14.645 -0.4351 -0.7474  0.4864
   8623SM  H23H11588   1.816   0.939  14.785 -2.6346 -0.9438 -0.0404
   8723SM     N11589   4.356   1.773  12.298  0.1750  0.4229  0.0289
   8723SM   C1511590   4.382   1.923  12.323 -0.2512  0.1502 -0.0126
   8723SM  H15A11591   4.377   1.948  12.428 -0.6242 -1.6417  0.4224
   8723SM  H15B11592   4.307   1.980  12.271  1.2605  0.5908 -1.8414
   8723SM  H15C11593   4.472   1.960  12.276  1.1982 -2.1760  0.7507
   8723SM   C1411594   4.212   1.740  12.328 -0.3680 -0.7889  0.3559
   8723SM  H14A11595   4.187   1.761  12.431 -2.2221  1.6167 -0.5003
   8723SM  H14B11596   4.196   1.640  12.289 -0.9107 -0.0713 -1.3647
   8723SM  H14C11597   4.157   1.818  12.278  1.0031  0.1603  0.2714
   8723SM   C1311598   4.380   1.748  12.151  0.4492  0.3805  0.2821
   8723SM  H13A11599   4.371   1.642  12.132 -0.5577  0.1529  1.9460
   8723SM  H13B11600   4.471   1.778  12.101  0.0659 -1.9005 -2.0584
   8723SM  H13C11601   4.310   1.794  12.083 -1.0687 -0.7838  1.0005
   8723SM   C1211602   4.455   1.682  12.376  0.0768 -0.3497 -0.6395
   8723SM  H12A11603   4.557   1.698  12.344  0.6411 -0.9877  0.7498
   8723SM  H12B11604   4.436   1.578  12.355 -2.9051 -0.4061  1.6868
   8723SM   C1111605   4.460   1.686  12.537 -0.8742  0.5612  0.7315
   8723SM  H11A11606   4.494   1.784  12.576  0.3790  0.8577 -1.0236
   8723SM  H11B11607   4.539   1.613  12.567 -0.3973  0.6402 -0.3035
   8723SM     P11608   4.279   1.509  12.584  0.1814 -0.0366 -0.2701
   8723SM   O1311609   4.131   1.511  12.569 -0.0145 -0.5024 -0.6848
   8723SM   O1411610   4.361   1.424  12.494  0.0518  0.1394 -0.5582
   8723SM   O1111611   4.304   1.462  12.736 -1.2306 -0.3687  0.3695
   8723SM   O1211612   4.328   1.658  12.588 -0.2409 -0.0005  0.4563
   8723SM   C1S11613   4.225   1.515  12.847  0.2397 -0.0726 -0.4068
   8723SM   H1S11614   4.132   1.455  12.854  0.5197 -0.4967 -0.2444
   8723SM   H1T11615   4.197   1.621  12.834  0.6467 -0.1770 -2.5504
   8723SM    NF11616   4.214   1.542  13.102  0.2738 -0.0223 -0.0138
   8723SM   HNF11617   4.212   1.631  13.147  0.1135  0.2941 -0.6256
   8723SM   C2S11618   4.297   1.505  12.989 -0.5641 -0.0918  0.2174
   8723SM   H2S11619   4.330   1.399  13.000  1.3533  0.1815 -2.0588
   8723SM   C3S11620   4.430   1.587  12.979 -0.0928 -0.0606 -0.0404
   8723SM   H3S11621   4.404   1.694  12.963 -2.1918 -0.3674  0.9946
   8723SM    O311622   4.514   1.554  12.859 -0.0554  0.1889  0.1521
   8723SM   HO311623   4.447   1.501  12.814  0.8254  0.0522 -1.0539
   8723SM   C4S11624   4.511   1.571  13.106 -0.1541  0.1141 -0.0410
   8723SM   H4S11625   4.579   1.484  13.101  1.4064  1.3502 -1.1630
   8723SM   C5S11626   4.509   1.639  13.222 -0.7295  0.5074  0.0082
   8723SM   H5S11627   4.446   1.729  13.225  1.6967  2.3345 -0.7023
   8723SM   C6S11628   4.592   1.619  13.346 -0.3854  0.2965 -0.4866
   8723SM   H6S11629   4.655   1.709  13.366  0.2217 -0.4633  1.2866
   8723SM   H6T11630   4.653   1.527  13.329 -0.1134 -0.0432  1.8733
   8723SM   C7S11631   4.506   1.588  13.459  0.3481  0.1389 -0.3997
   8723SM   H7S11632   4.433   1.671  13.469 -0.0052  0.2070 -2.9456
   8723SM   H7T11633   4.571   1.589  13.550 -0.9056  2.1233  0.5472
   8723SM   C8S11634   4.419   1.464  13.454  0.1073  0.0721 -0.2691
   8723SM   H8S11635   4.485   1.375  13.467 -1.2165 -0.8340  0.4965
   8723SM   H8T11636   4.364   1.451  13.359  0.9315 -3.6637 -0.3897
   8723SM   C9S11637   4.321   1.452  13.575 -0.2087 -0.0137  0.8731
   8723SM   H9S11638   4.265   1.358  13.559 -0.6561  0.1567  1.3998
   8723SM   H9T11639   4.244   1.530  13.557  0.0788 -0.1258 -1.0712
   8723SM  C10S11640   4.388   1.454  13.707  0.1635 -0.1510 -0.6188
   8723SM  H10S11641   4.441   1.548  13.733  0.5091 -0.3097 -0.7477
   8723SM  H10T11642   4.466   1.375  13.703 -1.3368 -1.7554  0.1192
   8723SM  C11S11643   4.283   1.424  13.824  0.6363  0.3465  0.3699
   8723SM  H11S11644   4.224   1.340  13.780  2.0428  1.0082 -3.1167
   8723SM  H11T11645   4.215   1.507  13.852 -0.4089 -0.0163 -0.9773
   8723SM  C12S11646   4.355   1.397  13.962  0.3421  0.3332 -0.1612
   8723SM  H12S11647   4.408   1.484  14.008 -0.8963  0.1387  1.7674
   8723SM  H12T11648   4.436   1.325  13.937  0.1623 -0.1080  0.5082
   8723SM  C13S11649   4.261   1.346  14.069 -0.3213  0.2267 -0.0792
   8723SM  H13S11650   4.310   1.307  14.161 -2.3078  0.0057  0.9290
   8723SM  H13T11651   4.199   1.265  14.026  0.4826 -0.6621  0.3930
   8723SM  C14S11652   4.151   1.451  14.115 -0.1513  0.4908  0.1451
   8723SM  H14S11653   4.082   1.405  14.189 -0.4160  1.2982  0.4174
   8723SM  H14T11654   4.089   1.470  14.025 -0.7070  2.8157  0.9240
   8723SM  C15S11655   4.210   1.583  14.167  0.6524 -0.4588 -0.5722
   8723SM  H15S11656   4.252   1.638  14.079  1.0108  0.9539  0.4460
   8723SM  H15T11657   4.292   1.556  14.237 -0.5416 -1.7522  0.3786
   8723SM  C16S11658   4.105   1.671  14.249 -0.0107 -0.1037  0.8955
   8723SM  H16S11659   4.003   1.677  14.206  0.0255 -0.9874  0.6509
   8723SM  H16T11660   4.156   1.769  14.258  0.3875 -0.1620 -0.5327
   8723SM  C17S11661   4.093   1.621  14.393 -0.0900  0.0489 -0.1541
   8723SM  H17S11662   4.195   1.624  14.437  0.1938  2.1648 -0.8517
   8723SM  H17T11663   4.060   1.515  14.380 -0.1949  0.3671 -3.1937
   8723SM  C18S11664   3.989   1.693  14.485  0.1229 -0.5657 -0.5658
   8723SM  H18S11665   3.893   1.692  14.428 -2.2010  3.1569  2.7342
   8723SM  H18T11666   4.026   1.795  14.510 -1.3259  0.2053 -1.3740
   8723SM  H18U11667   3.982   1.637  14.580 -2.4613  1.7968  0.7880
   8723SM   C1F11668   4.113   1.466  13.129  0.2357  0.1881  0.0110
   8723SM    OF11669   4.093   1.357  13.077 -0.1011 -0.0975 -0.2618
   8723SM   C2F11670   4.025   1.516  13.235  0.1358  0.2779  0.2329
   8723SM   H2F11671   3.957   1.594  13.196 -0.7688 -1.2856 -1.4816
   8723SM   H2G11672   4.078   1.553  13.325 -1.0177 -1.5578  1.7443
   8723SM   C3F11673   3.936   1.404  13.296  0.2145 -0.1056 -0.0349
   8723SM   H3F11674   3.987   1.332  13.363 -0.9029 -1.7781 -0.9152
   8723SM   H3G11675   3.881   1.344  13.220 -0.9062 -0.8271  1.2926
   8723SM   C4F11676   3.826   1.473  13.388  1.2422 -0.0088 -0.2332
   8723SM   H4F11677   3.871   1.550  13.454  0.9020  1.3707 -1.5646
   8723SM   H4G11678   3.779   1.394  13.450 -0.3014  0.5157 -0.6943
   8723SM   C5F11679   3.712   1.529  13.306 -0.3490 -0.2030  0.5637
   8723SM   H5F11680   3.672   1.448  13.240 -1.7015  0.3646  0.6487
   8723SM   H5G11681   3.750   1.604  13.234 -0.0027  0.2096  1.1671
   8723SM   C6F11682   3.593   1.591  13.386 -0.3565 -0.7437  1.1378
   8723SM   H6F11683   3.562   1.533  13.476 -2.4893 -1.9174 -0.2564
   8723SM   H6G11684   3.508   1.603  13.316  0.1943  1.3029  0.7542
   8723SM   C7F11685   3.633   1.731  13.437  0.2812 -0.2530  0.3467
   8723SM   H7F11686   3.636   1.801  13.351  0.7648 -2.6983 -1.7326
   8723SM   H7G11687   3.738   1.730  13.475  1.0313  1.2430 -1.5020
   8723SM   C8F11688   3.539   1.784  13.546  0.2931  0.1727 -0.4845
   8723SM   H8F11689   3.433   1.774  13.515  0.3847 -1.5463 -0.3404
   8723SM   H8G11690   3.573   1.889  13.561  0.2737 -0.1350  2.3994
   8723SM   C9F11691   3.553   1.712  13.682 -0.6411 -0.8907 -0.6661
   8723SM   H9F11692   3.662   1.711  13.702 -1.0533 -2.6515  1.9259
   8723SM   H9G11693   3.515   1.608  13.672 -4.1474  0.2402 -0.5396
   8723SM  C10F11694   3.472   1.798  13.776 -0.0849  0.8552  0.1395
   8723SM  H10F11695   3.361   1.795  13.773 -0.0580 -0.9075 -0.0210
   8723SM  H10G11696   3.508   1.902  13.758  2.6932 -0.3573 -1.9658
   8723SM  C11F11697   3.495   1.765  13.922 -0.7450  0.4591 -0.1289
   8723SM  H11F11698   3.473   1.656  13.925 -0.2322  0.2916 -1.4309
   8723SM  H11G11699   3.432   1.826  13.989  1.6120  1.5006  1.2490
   8723SM  C12F11700   3.639   1.801  13.979  0.0433  0.2791  0.3121
   8723SM  H12F11701   3.666   1.909  13.973 -0.7426  0.4912  0.4898
   8723SM  H12G11702   3.711   1.750  13.912  0.4706 -0.4013  1.2678
   8723SM  C13F11703   3.653   1.741  14.121  0.9060 -0.6157  0.2017
   8723SM  H13F11704   3.760   1.741  14.150  0.6674  1.7655  1.3275
   8723SM  H13G11705   3.607   1.640  14.109 -0.1715  0.0686 -2.1477
   8723SM  C14F11706   3.584   1.815  14.237  0.4564 -0.0198  0.0023
   8723SM  H14F11707   3.476   1.788  14.236  0.2392  0.7602  0.7399
   8723SM  H14G11708   3.581   1.925  14.223  3.0624  0.1459  0.2975
   8723SM  C15F11709   3.648   1.794  14.369 -0.9187 -0.1236 -0.4773
   8723SM  H15F11710   3.753   1.824  14.350 -0.2306 -1.0258  1.5326
   8723SM  H15G11711   3.638   1.688  14.403  1.3275 -0.5149 -0.9412
   8723SM  C16F11712   3.586   1.882  14.482 -0.1229  0.4468 -0.5489
   8723SM  H16F11713   3.483   1.843  14.498  0.3132 -1.0087 -1.1338
   8723SM  H16G11714   3.570   1.984  14.440  1.8585  0.3259 -1.7190
   8723SM  C17F11715   3.669   1.867  14.612  0.0391  0.0249  0.3080
   8723SM  H17F11716   3.774   1.901  14.595 -0.8291  2.1465 -1.2227
   8723SM  H17G11717   3.660   1.758  14.632  0.0051 -0.5059 -2.2438
   8723SM  C18F11718   3.608   1.936  14.734 -0.3214  0.0207 -0.0088
   8723SM  H18F11719   3.507   1.892  14.751 -0.9095  1.5397  0.6198
   8723SM  H18G11720   3.593   2.042  14.705 -0.0720 -0.4808 -2.1626
   8723SM  C19F11721   3.682   1.920  14.868 -0.0954 -0.1318 -0.3746
   8723SM  H19F11722   3.781   1.969  14.859 -1.0756  2.5642  2.0402
   8723SM  H19G11723   3.691   1.812  14.894 -2.1154  0.1064  1.7256
   8723SM  C20F11724   3.611   1.962  14.997  0.4714 -0.0308  0.1519
   8723SM  H20F11725   3.510   1.915  15.001 -0.0691  0.8879 -1.6173
   8723SM  H20G11726   3.592   2.072  14.991 -0.3436 -0.2204 -1.2629
   8723SM  C21F11727   3.693   1.919  15.124  0.0577 -0.0610  0.1099
   8723SM  H21F11728   3.723   1.812  15.120  2.6646  0.5461  1.0580
   8723SM  H21G11729   3.623   1.924  15.210  2.9564 -2.6812  2.9485
   8723SM  C22F11730   3.807   2.024  15.155  0.1513 -0.2962  0.4258
   8723SM  H22F11731   3.822   2.089  15.066 -1.8551  0.4732  0.5850
   8723SM  H22G11732   3.900   1.964  15.161  1.9707  2.0718 -1.8011
   8723SM  C23F11733   3.802   2.102  15.283 -0.4422  0.4404  0.1726
   8723SM  H23F11734   3.754   2.032  15.355  0.0291  1.0340  1.0737
   8723SM  H23G11735   3.743   2.195  15.288 -1.4080 -0.2195  1.8931
   8723SM  H23H11736   3.901   2.125  15.328 -0.7440  0.3542  0.8876
   8823SM     N11737   1.398   2.886  12.276  0.0431 -0.1624  0.1004
   8823SM   C1511738   1.540   2.857  12.325  0.6102  0.9815  0.3681
   8823SM  H15A11739   1.546   2.763  12.378  1.4624  0.8251 -0.0022
   8823SM  H15B11740   1.580   2.928  12.395 -1.1423  0.6459  1.7896
   8823SM  H15C11741   1.608   2.847  12.242  1.6827  1.3957  1.1827
   8823SM   C1411742   1.399   3.003  12.190 -0.9943 -0.0534 -0.0447
   8823SM  H14A11743   1.306   3.016  12.136 -1.3542 -3.4290 -0.4765
   8823SM  H14B11744   1.477   3.000  12.115 -1.0566 -0.5788 -0.0930
   8823SM  H14C11745   1.422   3.090  12.249  1.2677  0.3867 -1.4371
   8823SM   C1311746   1.344   2.769  12.200  0.1476  0.1161  0.2364
   8823SM  H13A11747   1.395   2.765  12.104 -0.6936  1.5536 -0.3115
   8823SM  H13B11748   1.245   2.797  12.169  0.2155  1.2292  0.9603
   8823SM  H13C11749   1.349   2.676  12.254  0.9274  0.4035  0.6798
   8823SM   C1211750   1.304   2.906  12.397  0.2360  0.4810 -0.5739
   8823SM  H12A11751   1.201   2.906  12.362 -0.5187 -2.6845  1.2801
   8823SM  H12B11752   1.327   3.006  12.431  1.8647  0.2532 -0.9103
   8823SM   C1111753   1.328   2.805  12.513  0.7616  0.1019 -0.7737
   8823SM  H11A11754   1.266   2.827  12.602  1.6921  1.6136 -0.4681
   8823SM  H11B11755   1.435   2.820  12.540  1.3357 -0.0883 -2.7931
   8823SM     P11756   1.375   2.541  12.511 -0.0879 -0.2664 -0.0867
   8823SM   O1311757   1.296   2.419  12.478 -0.8971 -0.0225 -0.3122
   8823SM   O1411758   1.509   2.557  12.440  0.1312  0.0917  0.6159
   8823SM   O1111759   1.391   2.562  12.665  0.6729  0.6253  0.8000
   8823SM   O1211760   1.298   2.670  12.471  0.0888  0.2388  0.8032
   8823SM   C1S11761   1.274   2.539  12.745 -0.2425 -0.4100 -0.3877
   8823SM   H1S11762   1.227   2.441  12.725 -3.5620  0.0801  3.5910
   8823SM   H1T11763   1.197   2.615  12.721 -1.0486 -0.6120  1.3752
   8823SM    NF11764   1.198   2.500  12.973 -0.1514 -0.6757  0.5329
   8823SM   HNF11765   1.120   2.554  13.005 -0.9813  0.3034 -2.7352
   8823SM   C2S11766   1.301   2.562  12.896 -0.4985 -0.4592 -0.5200
   8823SM   H2S11767   1.392   2.507  12.929 -0.4526 -0.0810 -0.0131
   8823SM   C3S11768   1.320   2.718  12.929 -0.7336  0.0424  0.4331
   8823SM   H3S11769   1.235   2.779  12.891 -0.7141  1.2017  2.1646
   8823SM    O311770   1.433   2.784  12.865  0.1050 -0.6733 -0.1658
   8823SM   HO311771   1.444   2.727  12.789  2.7052 -0.6359  0.0971
   8823SM   C4S11772   1.328   2.732  13.072  0.1990  0.8584 -0.4938
   8823SM   H4S11773   1.229   2.722  13.120  1.2219 -0.0243  1.5417
   8823SM   C5S11774   1.440   2.736  13.151 -0.3059 -0.1655 -0.1315
   8823SM   H5S11775   1.536   2.737  13.096 -0.3037  0.6868 -0.1262
   8823SM   C6S11776   1.447   2.758  13.302  0.9915  0.4626  0.4886
   8823SM   H6S11777   1.363   2.826  13.325  2.2569  2.3417 -0.2657
   8823SM   H6T11778   1.530   2.826  13.329 -0.3918  1.4585  2.5057
   8823SM   C7S11779   1.440   2.631  13.390 -0.1131 -0.7003  0.1357
   8823SM   H7S11780   1.516   2.555  13.362 -0.6945 -1.5287  0.7602
   8823SM   H7T11781   1.339   2.585  13.387 -0.0190 -1.0440  1.5292
   8823SM   C8S11782   1.456   2.664  13.538  0.2659  0.7137 -0.0429
   8823SM   H8S11783   1.372   2.730  13.568  0.9827  1.0751  1.2161
   8823SM   H8T11784   1.546   2.724  13.561  1.2257  0.0526 -1.8770
   8823SM   C9S11785   1.460   2.543  13.639  0.8078 -0.1479 -0.1357
   8823SM   H9S11786   1.542   2.473  13.614  0.0449 -1.4903  0.9610
   8823SM   H9T11787   1.370   2.479  13.630  0.3019  0.5710 -0.2148
   8823SM  C10S11788   1.476   2.578  13.793  0.2166  0.2889 -0.5374
   8823SM  H10S11789   1.390   2.642  13.822 -0.0761  0.5487 -1.9186
   8823SM  H10T11790   1.565   2.644  13.798 -0.7459  1.5159  1.6390
   8823SM  C11S11791   1.474   2.461  13.896 -0.2051 -0.5354 -0.0345
   8823SM  H11S11792   1.550   2.390  13.858  2.6641  2.2833  0.0195
   8823SM  H11T11793   1.368   2.429  13.889 -1.4798  3.4511 -2.9037
   8823SM  C12S11794   1.525   2.521  14.033 -0.0258 -0.2754  0.0704
   8823SM  H12S11795   1.449   2.603  14.040  0.9069  0.5118  1.6044
   8823SM  H12T11796   1.615   2.585  14.026 -0.4186  0.1286 -1.9107
   8823SM  C13S11797   1.523   2.425  14.156  0.0986 -0.2915  0.3624
   8823SM  H13S11798   1.586   2.339  14.125 -2.8742 -2.9602  1.1229
   8823SM  H13T11799   1.416   2.398  14.170  0.1532 -1.1559 -0.7374
   8823SM  C14S11800   1.575   2.502  14.276 -0.4755  0.0195 -0.1767
   8823SM  H14S11801   1.490   2.492  14.347  0.9646  1.5053  1.8942
   8823SM  H14T11802   1.578   2.613  14.266  0.2938  0.2291  1.8752
   8823SM  C15S11803   1.703   2.443  14.337  0.4422 -0.1034 -0.0795
   8823SM  H15S11804   1.784   2.487  14.275  0.8742 -1.0197 -0.1830
   8823SM  H15T11805   1.708   2.333  14.323  1.7179  0.1668 -2.2202
   8823SM  C16S11806   1.727   2.490  14.483 -0.2881  0.3146  0.1359
   8823SM  H16S11807   1.638   2.465  14.543  0.2175  1.4747  1.4341
   8823SM  H16T11808   1.746   2.600  14.478 -0.6881  0.3946  0.3832
   8823SM  C17S11809   1.844   2.413  14.549  0.2699  0.0317 -0.4804
   8823SM  H17S11810   1.940   2.426  14.495 -1.2162 -0.4425 -3.4518
   8823SM  H17T11811   1.808   2.310  14.526 -0.8766  0.3233 -0.0882
   8823SM  C18S11812   1.848   2.445  14.697  0.5553 -0.0289  0.3808
   8823SM  H18S11813   1.752   2.412  14.741  1.5853 -2.6168  0.9378
   8823SM  H18T11814   1.869   2.553  14.710 -0.0023  0.1924 -0.5571
   8823SM  H18U11815   1.935   2.390  14.741  0.0409 -0.4549  0.8938
   8823SM   C1F11816   1.185   2.370  12.981 -0.3721 -0.2843  0.3128
   8823SM    OF11817   1.281   2.296  12.955 -0.6826 -0.0223 -0.0999
   8823SM   C2F11818   1.057   2.315  13.027  0.2899 -0.2687 -0.4944
   8823SM   H2F11819   1.029   2.227  12.965 -0.5482 -0.5108  0.2179
   8823SM   H2G11820   0.969   2.381  13.015 -0.7400 -1.8370 -2.2083
   8823SM   C3F11821   1.077   2.275  13.168  0.1020 -0.2786  0.5224
   8823SM   H3F11822   1.163   2.206  13.174  0.1981 -0.0826  1.6960
   8823SM   H3G11823   0.984   2.220  13.197 -0.1272 -1.0172 -1.4916
   8823SM   C4F11824   1.109   2.388  13.271 -0.0778  0.8209  0.1610
   8823SM   H4F11825   1.035   2.470  13.256 -0.0539  1.0301  1.1281
   8823SM   H4G11826   1.210   2.427  13.244  0.8592 -2.4054 -1.3808
   8823SM   C5F11827   1.084   2.333  13.411 -0.2360 -0.4284  0.5284
   8823SM   H5F11828   1.020   2.243  13.401  1.3283 -1.5511  0.1945
   8823SM   H5G11829   1.022   2.408  13.464 -0.4844 -0.3925  0.1920
   8823SM   C6F11830   1.216   2.286  13.480  0.0658  0.6813 -0.3520
   8823SM   H6F11831   1.286   2.371  13.496  1.6637 -0.5068 -0.6838
   8823SM   H6G11832   1.263   2.214  13.409 -2.3739  0.1430 -1.5056
   8823SM   C7F11833   1.192   2.229  13.622 -0.7036  0.0461  0.1398
   8823SM   H7F11834   1.287   2.187  13.660 -1.2766 -0.1646  1.3968
   8823SM   H7G11835   1.127   2.139  13.616  2.4421 -2.3426 -0.7172
   8823SM   C8F11836   1.124   2.338  13.710  0.3071  0.2981 -0.5517
   8823SM   H8F11837   1.029   2.374  13.664 -0.0889  0.2065  0.1913
   8823SM   H8G11838   1.205   2.415  13.717 -0.0036  0.8560 -2.4372
   8823SM   C9F11839   1.098   2.284  13.853 -0.2744  0.0482  0.0018
   8823SM   H9F11840   1.193   2.236  13.887 -0.2637 -1.2728 -1.7557
   8823SM   H9G11841   1.023   2.203  13.849 -0.7538  0.5376 -2.1006
   8823SM  C10F11842   1.039   2.390  13.948 -0.7082 -0.5485  0.6568
   8823SM  H10F11843   0.955   2.443  13.898  0.1189 -0.4714 -0.7080
   8823SM  H10G11844   1.120   2.466  13.949 -1.1316  0.0569 -2.2056
   8823SM  C11F11845   1.003   2.331  14.089  0.6510 -0.5294  0.3187
   8823SM  H11F11846   1.081   2.267  14.136 -0.3730 -1.5626  0.6541
   8823SM  H11G11847   0.906   2.279  14.081 -0.5562  1.3971  1.5961
   8823SM  C12F11848   0.983   2.451  14.179 -1.0385 -0.2784  0.3047
   8823SM  H12F11849   0.902   2.513  14.135  1.0412  0.0574 -3.4768
   8823SM  H12G11850   1.075   2.512  14.165  1.3388 -2.8612  3.1001
   8823SM  C13F11851   0.952   2.416  14.324  0.2916 -0.0933  0.4449
   8823SM  H13F11852   1.047   2.396  14.379 -0.8024  0.9620  2.8648
   8823SM  H13G11853   0.893   2.322  14.327  2.7058 -1.7666 -1.0363
   8823SM  C14F11854   0.877   2.530  14.388 -0.3744 -0.2448  0.5427
   8823SM  H14F11855   0.782   2.532  14.331  0.4055  0.8701 -0.7648
   8823SM  H14G11856   0.935   2.619  14.357 -0.6309 -0.6791 -1.2894
   8823SM  C15F11857   0.856   2.517  14.537 -0.3451 -0.0487  0.2920
   8823SM  H15F11858   0.949   2.510  14.597 -1.9271  2.3298  3.2740
   8823SM  H15G11859   0.811   2.418  14.559 -0.0128 -0.3044 -0.1531
   8823SM  C16F11860   0.780   2.640  14.588  0.4534  0.0743  0.6160
   8823SM  H16F11861   0.712   2.662  14.502  0.6254  0.0197  0.4651
   8823SM  H16G11862   0.848   2.726  14.608 -0.5981  0.8943  0.7566
   8823SM  C17F11863   0.700   2.608  14.717 -1.0912 -0.7569 -0.0174
   8823SM  H17F11864   0.652   2.509  14.707 -1.7006 -0.3807 -0.9336
   8823SM  H17G11865   0.624   2.683  14.748 -0.4844  0.4135 -1.2466
   8823SM  C18F11866   0.801   2.624  14.829  0.6871  0.4576 -0.7082
   8823SM  H18F11867   0.859   2.719  14.825 -1.2096  1.7698  0.7239
   8823SM  H18G11868   0.876   2.543  14.833 -0.9180 -1.2670 -3.0709
   8823SM  C19F11869   0.732   2.629  14.972  0.4986  0.0225 -0.0289
   8823SM  H19F11870   0.665   2.718  14.971 -0.7507 -0.9125 -0.7818
   8823SM  H19G11871   0.804   2.651  15.054  0.4177 -2.6326  0.8361
   8823SM  C20F11872   0.647   2.502  15.001  0.3459 -0.2502 -0.0318
   8823SM  H20F11873   0.700   2.405  15.004 -0.5490 -0.7226  1.1387
   8823SM  H20G11874   0.578   2.493  14.915  0.3851  0.5347 -0.1573
   8823SM  C21F11875   0.569   2.528  15.128  0.6536  0.5401 -0.1685
   8823SM  H21F11876   0.477   2.590  15.122  0.4422  0.1114 -3.0107
   8823SM  H21G11877   0.647   2.571  15.194  0.4403  0.1349  0.3582
   8823SM  C22F11878   0.521   2.399  15.193 -0.2937 -0.1731 -0.1608
   8823SM  H22F11879   0.596   2.317  15.192 -0.2413 -0.1366 -1.7647
   8823SM  H22G11880   0.436   2.368  15.128 -0.4125 -2.7948  1.0830
   8823SM  C23F11881   0.475   2.415  15.337 -0.0138  0.5441  0.2008
   8823SM  H23F11882   0.395   2.492  15.345 -0.9829 -0.0341 -2.5833
   8823SM  H23G11883   0.558   2.437  15.407  0.3311 -0.5977  0.1778
   8823SM  H23H11884   0.425   2.320  15.364  1.4862 -0.2053  0.4208
   8923SM     N11885   5.890   1.947  12.071 -0.1568  0.6174  0.3036
   8923SM   C1511886   6.027   1.911  12.017 -0.3768  0.0382  0.0275
   8923SM  H15A11887   6.072   2.000  11.976 -4.0035  1.3459 -1.5295
   8923SM  H15B11888   6.010   1.832  11.946 -0.2224 -1.0440  1.1604
   8923SM  H15C11889   6.087   1.865  12.094 -2.1930 -2.6342 -0.0319
   8923SM   C1411890   5.881   2.076  12.143  0.4656  0.4819  0.0697
   8923SM  H14A11891   5.780   2.085  12.180 -0.7196  0.4014 -2.8735
   8923SM  H14B11892   5.900   2.167  12.087  0.4799  1.0020  0.8932
   8923SM  H14C11893   5.953   2.079  12.224  1.0387 -0.0473 -0.4070
   8923SM   C1311894   5.789   1.944  11.962 -0.1852  0.4904  0.1096
   8923SM  H13A11895   5.689   1.962  11.999 -1.2556 -2.7175 -0.9076
   8923SM  H13B11896   5.792   1.848  11.913  1.1748  0.6909 -0.2379
   8923SM  H13C11897   5.811   2.014  11.883 -0.0020 -0.3054 -0.5591
   8923SM   C1211898   5.853   1.834  12.180  0.6405 -0.4501  0.0374
   8923SM  H12A11899   5.850   1.740  12.127  0.7870 -0.0625 -0.6800
   8923SM  H12B11900   5.751   1.856  12.206 -0.7491 -2.7784 -2.8565
   8923SM   C1111901   5.925   1.809  12.310  0.2356  0.2138  0.4434
   8923SM  H11A11902   6.025   1.763  12.298  1.1564  2.1490  0.3493
   8923SM  H11B11903   5.852   1.736  12.352  1.3445 -1.1642  0.0297
   8923SM     P11904   5.990   1.943  12.531  0.1250  0.1294  0.4957
   8923SM   O1311905   6.134   1.980  12.505 -0.4121  0.2232  0.3324
   8923SM   O1411906   5.900   2.040  12.597  0.2851  0.4616  0.3944
   8923SM   O1111907   5.965   1.799  12.592  0.2207  0.9421 -0.1019
   8923SM   O1211908   5.931   1.923  12.390  0.0630  0.1462  0.3946
   8923SM   C1S11909   6.058   1.746  12.686  0.4393 -0.5242 -1.3189
   8923SM   H1S11910   6.160   1.790  12.684 -0.0703  1.1573  2.2621
   8923SM   H1T11911   6.056   1.636  12.670  2.7022 -1.0543  1.2450
   8923SM    NF11912   6.097   1.753  12.943  0.3303 -0.0998  0.8806
   8923SM   HNF11913   6.114   1.666  12.987 -0.2641  0.3685  2.1001
   8923SM   C2S11914   5.996   1.764  12.839  0.2276  0.5784  0.0093
   8923SM   H2S11915   5.936   1.856  12.851 -0.9654 -0.0783 -0.7186
   8923SM   C3S11916   5.882   1.657  12.854  0.3309 -1.1688 -0.5126
   8923SM   H3S11917   5.922   1.554  12.843  0.8057 -1.0629  0.1908
   8923SM    O311918   5.774   1.677  12.760  0.4063  0.2170 -0.3285
   8923SM   HO311919   5.806   1.744  12.700 -0.4853  0.6238 -0.3655
   8923SM   C4S11920   5.835   1.682  12.998 -0.1237 -0.1293 -0.4990
   8923SM   H4S11921   5.775   1.771  13.021  2.4442  1.0984  1.9279
   8923SM   C5S11922   5.852   1.600  13.099  0.2088  0.2264  0.4664
   8923SM   H5S11923   5.911   1.508  13.081 -0.8650 -0.6852  1.4602
   8923SM   C6S11924   5.805   1.622  13.239 -0.5722  0.1639 -0.7175
   8923SM   H6S11925   5.737   1.539  13.269 -0.2934 -0.7224 -2.4049
   8923SM   H6T11926   5.742   1.714  13.235 -1.8405 -0.5072  1.7336
   8923SM   C7S11927   5.930   1.625  13.329 -0.5260 -0.8026 -0.4840
   8923SM   H7S11928   5.995   1.709  13.297 -2.5739  1.3324  0.6558
   8923SM   H7T11929   5.979   1.526  13.317 -0.9516 -1.0441 -0.2651
   8923SM   C8S11930   5.896   1.654  13.474 -0.2567  0.0686 -0.1176
   8923SM   H8S11931   5.829   1.570  13.499  0.1094 -0.2247 -0.1044
   8923SM   H8T11932   5.838   1.748  13.465  0.1664  0.2501 -1.0363
   8923SM   C9S11933   6.015   1.667  13.573  0.0068  0.1960 -0.4850
   8923SM   H9S11934   6.079   1.747  13.531 -0.1178  1.3462  1.3894
   8923SM   H9T11935   6.066   1.569  13.569 -0.6123 -0.0924 -3.5247
   8923SM  C10S11936   5.974   1.701  13.713 -0.4288 -0.2987  0.8269
   8923SM  H10S11937   5.913   1.616  13.749  0.4544 -0.0632  3.0378
   8923SM  H10T11938   5.913   1.794  13.714  0.5854  0.4317 -0.6503
   8923SM  C11S11939   6.094   1.720  13.805 -0.1028  0.2403  0.5041
   8923SM  H11S11940   6.161   1.792  13.754  2.0052 -1.0463  1.3450
   8923SM  H11T11941   6.152   1.627  13.820  0.0184 -0.2287 -2.3175
   8923SM  C12S11942   6.057   1.770  13.943 -0.2490 -0.1324 -0.7553
   8923SM  H12S11943   5.993   1.693  13.991  0.7827 -0.3709  0.2999
   8923SM  H12T11944   5.990   1.859  13.935 -2.0649 -1.6152 -3.3817
   8923SM  C13S11945   6.178   1.805  14.035  0.2767  0.6281  0.2376
   8923SM  H13S11946   6.244   1.860  13.965  0.4006  0.8780  0.5498
   8923SM  H13T11947   6.226   1.707  14.055 -0.7729 -0.5662 -2.5302
   8923SM  C14S11948   6.150   1.886  14.162 -0.8738  0.0529  0.0686
   8923SM  H14S11949   6.061   1.849  14.217  0.1376 -0.8446  1.1587
   8923SM  H14T11950   6.116   1.986  14.128  2.7966  0.7470 -2.0150
   8923SM  C15S11951   6.275   1.900  14.250  0.6636 -0.0370 -0.8329
   8923SM  H15S11952   6.333   1.983  14.202 -1.3773  0.5827 -2.3629
   8923SM  H15T11953   6.321   1.800  14.243 -1.9731 -1.2669 -1.8671
   8923SM  C16S11954   6.240   1.923  14.399 -0.0670 -0.1677  0.2704
   8923SM  H16S11955   6.337   1.936  14.451  0.0498 -0.5216  0.1378
   8923SM  H16T11956   6.202   1.833  14.452  2.2145 -0.7779  0.9763
   8923SM  C17S11957   6.153   2.048  14.429  0.6820 -0.0722  0.3719
   8923SM  H17S11958   6.053   2.041  14.380 -0.3758  2.2008  2.0024
   8923SM  H17T11959   6.213   2.132  14.390 -1.0195  0.9212 -0.2270
   8923SM  C18S11960   6.136   2.070  14.579 -0.1074  0.3184 -0.5587
   8923SM  H18S11961   6.235   2.079  14.630 -0.4510  1.5104 -0.0811
   8923SM  H18T11962   6.087   1.987  14.633 -1.0731  1.5653  0.5203
   8923SM  H18U11963   6.085   2.166  14.601 -1.9981 -0.0372 -3.0197
   8923SM   C1F11964   6.183   1.847  12.958  0.0064 -0.4890  0.4075
   8923SM    OF11965   6.168   1.952  12.898 -0.4103  0.7403  0.3857
   8923SM   C2F11966   6.301   1.827  13.054 -0.0295 -0.2103 -0.0709
   8923SM   H2F11967   6.384   1.764  13.015  1.2967  0.4279  1.5910
   8923SM   H2G11968   6.254   1.772  13.138 -3.1032 -1.2680 -2.3083
   8923SM   C3F11969   6.351   1.965  13.106  0.4725 -0.4066 -0.6024
   8923SM   H3F11970   6.279   2.018  13.171  0.3170  0.2708 -1.3098
   8923SM   H3G11971   6.364   2.028  13.016 -1.8277  1.7878  0.4951
   8923SM   C4F11972   6.478   1.970  13.186 -0.4871  0.1712  0.0959
   8923SM   H4F11973   6.495   2.077  13.212  2.5221 -0.1421 -0.2225
   8923SM   H4G11974   6.568   1.949  13.124  0.9057  0.1679  2.0427
   8923SM   C5F11975   6.489   1.895  13.320  0.7669  0.8259  0.0746
   8923SM   H5F11976   6.599   1.896  13.337  1.0674  2.5940 -1.5921
   8923SM   H5G11977   6.460   1.789  13.304  2.4013 -0.0333  2.2860
   8923SM   C6F11978   6.434   1.975  13.443 -0.0996  0.1150  0.3897
   8923SM   H6F11979   6.325   1.990  13.429  0.4484  1.4915 -3.6659
   8923SM   H6G11980   6.483   2.074  13.434 -1.0187  0.7077  1.7458
   8923SM   C7F11981   6.483   1.923  13.586  0.2378  0.4268 -0.1932
   8923SM   H7F11982   6.591   1.901  13.570 -0.4852 -3.3003 -0.9729
   8923SM   H7G11983   6.420   1.832  13.602 -0.3894  0.8099 -0.4549
   8923SM   C8F11984   6.471   2.033  13.695  0.2354 -0.0867  0.2142
   8923SM   H8F11985   6.365   2.064  13.701  0.5249  1.1494 -0.7649
   8923SM   H8G11986   6.529   2.123  13.666  0.9932 -0.2819  1.0541
   8923SM   C9F11987   6.519   1.983  13.832 -0.2123  0.1613 -0.2781
   8923SM   H9F11988   6.629   1.967  13.831 -0.0198  1.3898  0.3853
   8923SM   H9G11989   6.460   1.893  13.860  0.0210 -0.1812 -0.8608
   8923SM  C10F11990   6.490   2.099  13.931 -0.0627  0.0336  0.3693
   8923SM  H10F11991   6.379   2.103  13.939  0.0481  0.1334  2.3108
   8923SM  H10G11992   6.537   2.193  13.896 -0.7160  0.6488  1.1013
   8923SM  C11F11993   6.557   2.070  14.071  0.3263 -0.5768  0.3005
   8923SM  H11F11994   6.667   2.065  14.054  0.3544  0.5388  0.0909
   8923SM  H11G11995   6.530   1.973  14.118 -0.1064  0.3283  1.9836
   8923SM  C12F11996   6.540   2.178  14.182  0.6951  0.1713 -0.1560
   8923SM  H12F11997   6.435   2.164  14.216  0.7902  1.0262  0.5092
   8923SM  H12G11998   6.551   2.279  14.138  1.6370  0.1701  0.0621
   8923SM  C13F11999   6.636   2.160  14.301 -0.8845 -0.2832 -0.2957
   8923SM  H13F12000   6.734   2.181  14.253 -1.8783  3.4404 -1.0119
   8923SM  H13G12001   6.630   2.054  14.332 -0.8510 -0.1083  0.3100
   8923SM  C14F12002   6.606   2.263  14.417  0.5681 -0.2240 -0.4986
   8923SM  H14F12003   6.588   2.365  14.377  1.3823  0.0021 -0.3114
   8923SM  H14G12004   6.695   2.268  14.484 -0.4577  0.7750  0.8470
   8923SM  C15F12005   6.476   2.231  14.502  0.1369 -0.7883 -0.0103
   8923SM  H15F12006   6.481   2.121  14.513  1.1566 -0.5863  1.8663
   8923SM  H15G12007   6.378   2.249  14.452 -0.3070  0.5946  1.2744
   8923SM  C16F12008   6.452   2.307  14.632 -0.2603  0.6000 -0.6795
   8923SM  H16F12009   6.526   2.269  14.706 -0.7154  1.2743  0.1459
   8923SM  H16G12010   6.352   2.275  14.670  0.1925 -0.2310 -0.1459
   8923SM  C17F12011   6.454   2.463  14.624  0.6312  0.0131  0.3734
   8923SM  H17F12012   6.394   2.479  14.532  0.8797  0.5792  0.3031
   8923SM  H17G12013   6.559   2.496  14.606  0.9210 -0.9472  0.2372
   8923SM  C18F12014   6.398   2.523  14.753 -0.0068  0.2704  0.1604
   8923SM  H18F12015   6.456   2.501  14.845 -3.2230 -0.4739  2.1743
   8923SM  H18G12016   6.300   2.475  14.772 -0.2375  0.0300 -1.4644
   8923SM  C19F12017   6.378   2.676  14.749  1.1734  0.1150  0.3916
   8923SM  H19F12018   6.312   2.700  14.664 -0.0012 -2.4925  0.4483
   8923SM  H19G12019   6.475   2.726  14.731  1.1768 -0.0076  0.0566
   8923SM  C20F12020   6.313   2.736  14.870  0.3711  0.0503 -0.2538
   8923SM  H20F12021   6.213   2.690  14.884 -0.2436  1.6645  1.0446
   8923SM  H20G12022   6.289   2.844  14.867 -0.4854 -0.1143  0.2745
   8923SM  C21F12023   6.389   2.711  15.006 -0.2528  0.7824  0.1742
   8923SM  H21F12024   6.495   2.740  14.990 -0.1576  0.6328  0.5349
   8923SM  H21G12025   6.396   2.602  15.025 -2.4739  0.1816 -1.8874
   8923SM  C22F12026   6.333   2.798  15.120 -0.1721 -0.4811 -0.1775
   8923SM  H22F12027   6.227   2.775  15.143 -0.0366 -0.7525  0.1921
   8923SM  H22G12028   6.342   2.901  15.081 -0.9833 -0.5812 -0.6669
   8923SM  C23F12029   6.416   2.781  15.245 -0.2965 -0.3355  0.4302
   8923SM  H23F12030   6.446   2.677  15.271  1.4072 -0.0496 -0.2719
   8923SM  H23G12031   6.387   2.840  15.335  2.7167  1.8130  0.1372
   8923SM  H23H12032   6.516   2.826  15.227  0.2411 -1.1624  1.2164
   9023SM     N12033   5.663   1.390  12.468  0.4469 -0.3959 -0.0002
   9023SM   C1512034   5.544   1.392  12.370 -0.2298  0.7885 -0.5427
   9023SM  H15A12035   5.561   1.325  12.286 -2.0528  0.0241 -0.3579
   9023SM  H15B12036   5.528   1.491  12.330  1.9351  0.6598 -1.8861
   9023SM  H15C12037   5.464   1.352  12.430  0.8581 -0.0696  0.3942
   9023SM   C1412038   5.618   1.453  12.596  0.1647  0.3915 -0.8010
   9023SM  H14A12039   5.587   1.555  12.577  1.2585  0.5562 -1.7632
   9023SM  H14B12040   5.705   1.453  12.660  0.2745 -1.3147 -0.8980
   9023SM  H14C12041   5.536   1.399  12.643  0.3726  1.0227  0.3129
   9023SM   C1312042   5.704   1.245  12.502 -0.3350  0.4275  0.3388
   9023SM  H13A12043   5.805   1.243  12.540  0.4544  1.2587 -1.5608
   9023SM  H13B12044   5.722   1.188  12.412  0.8796  0.8634  0.2886
   9023SM  H13C12045   5.631   1.200  12.566  0.0545 -0.3293  0.2554
   9023SM   C1212046   5.776   1.468  12.409  0.0535  0.4032 -0.1682
   9023SM  H12A12047   5.742   1.569  12.394 -1.1248  0.2287  1.2217
   9023SM  H12B12048   5.793   1.435  12.307 -0.6311  0.6396 -0.3602
   9023SM   C1112049   5.902   1.454  12.492 -0.4902  0.2064  0.3537
   9023SM  H11A12050   5.872   1.470  12.598 -0.3273 -1.9376  0.7710
   9023SM  H11B12051   5.962   1.545  12.470  0.4619 -0.7741 -1.2364
   9023SM     P12052   6.101   1.290  12.562 -0.2549 -0.1988 -0.3356
   9023SM   O1312053   6.116   1.144  12.560 -0.2806  0.1012  0.6541
   9023SM   O1412054   6.210   1.375  12.516  0.1559  0.3439 -0.1413
   9023SM   O1112055   6.056   1.334  12.703  0.2570  0.8038  0.0008
   9023SM   O1212056   5.968   1.328  12.478  0.0124  0.5116  0.6021
   9023SM   C1S12057   6.136   1.297  12.817  0.3736 -0.0524  0.4506
   9023SM   H1S12058   6.222   1.362  12.839  1.1126 -1.3446  1.5313
   9023SM   H1T12059   6.171   1.191  12.816 -1.3174 -0.6537 -0.7445
   9023SM    NF12060   6.119   1.297  13.067  0.3449 -0.4886 -0.0609
   9023SM   HNF12061   6.145   1.211  13.110  2.9401  1.4653  2.6649
   9023SM   C2S12062   6.037   1.296  12.941  0.2720  0.4579 -0.4014
   9023SM   H2S12063   5.978   1.390  12.944  0.7150  0.8071 -1.8785
   9023SM   C3S12064   5.939   1.176  12.938  0.4561  0.3042 -0.3062
   9023SM   H3S12065   5.996   1.081  12.934 -0.1107 -0.0138 -1.0154
   9023SM    O312066   5.839   1.177  12.831  0.1492  0.5000 -0.3777
   9023SM   HO312067   5.875   1.233  12.761  0.6779 -1.9991 -2.2217
   9023SM   C4S12068   5.854   1.171  13.064 -0.7576  0.3044  1.2410
   9023SM   H4S12069   5.775   1.247  13.054  0.3551  1.2178 -1.7227
   9023SM   C5S12070   5.858   1.100  13.179 -0.1159 -0.0888  0.3391
   9023SM   H5S12071   5.942   1.029  13.189 -0.0671  0.2264  2.5652
   9023SM   C6S12072   5.763   1.101  13.298 -0.5426  0.4206 -0.2647
   9023SM   H6S12073   5.809   1.023  13.363 -0.7329  0.3944 -0.1598
   9023SM   H6T12074   5.666   1.060  13.265 -0.4130 -0.8637  0.8313
   9023SM   C7S12075   5.746   1.240  13.362  0.3961  0.0765  0.0534
   9023SM   H7S12076   5.697   1.311  13.293  1.5156  0.0901 -0.7565
   9023SM   H7T12077   5.846   1.284  13.381 -0.1326  1.4986 -0.3380
   9023SM   C8S12078   5.660   1.208  13.489  0.6855 -0.8678  0.4722
   9023SM   H8S12079   5.729   1.166  13.565 -0.4678 -0.5391  1.7643
   9023SM   H8T12080   5.583   1.132  13.465  0.4040 -0.3113 -0.4543
   9023SM   C9S12081   5.579   1.328  13.547  0.1281  0.2497  0.1098
   9023SM   H9S12082   5.483   1.326  13.492  0.5142  1.2272 -0.6543
   9023SM   H9T12083   5.626   1.425  13.517  0.7762  0.3008  1.2426
   9023SM  C10S12084   5.564   1.329  13.698  0.5314 -0.2033  0.1982
   9023SM  H10S12085   5.661   1.342  13.752  1.0641 -1.7523 -0.3564
   9023SM  H10T12086   5.520   1.232  13.727 -1.4602  0.3663 -0.7456
   9023SM  C11S12087   5.480   1.443  13.741  1.0012  0.0229  0.0800
   9023SM  H11S12088   5.490   1.529  13.671  0.2600  0.7907  0.8833
   9023SM  H11T12089   5.512   1.480  13.841  0.7424 -0.3052  0.2874
   9023SM  C12S12090   5.333   1.420  13.735  0.3604  0.4804 -0.2457
   9023SM  H12S12091   5.300   1.412  13.629 -0.1988 -3.6743  0.0915
   9023SM  H12T12092   5.273   1.502  13.779  0.7697  1.7760 -1.9712
   9023SM  C13S12093   5.283   1.289  13.794 -0.1326  0.2360 -0.6338
   9023SM  H13S12094   5.319   1.200  13.737  2.8834  0.7684  0.2741
   9023SM  H13T12095   5.172   1.288  13.783 -0.0695 -2.3082 -2.0069
   9023SM  C14S12096   5.316   1.270  13.950  0.2103  0.3017  0.1627
   9023SM  H14S12097   5.419   1.305  13.970 -0.2197  1.9453 -0.3015
   9023SM  H14T12098   5.315   1.160  13.966 -1.8864  0.4822  1.6174
   9023SM  C15S12099   5.217   1.349  14.039 -0.1480 -0.2954 -0.1291
   9023SM  H15S12100   5.117   1.307  14.015 -1.1829  1.5003  0.8173
   9023SM  H15T12101   5.228   1.451  13.997  2.2581 -0.1421  0.7037
   9023SM  C16S12102   5.255   1.355  14.186  0.0022  0.0034 -0.2607
   9023SM  H16S12103   5.169   1.376  14.252  0.6564 -2.1462  1.3959
   9023SM  H16T12104   5.343   1.421  14.201  0.1560 -0.4190  0.8158
   9023SM  C17S12105   5.295   1.212  14.235 -0.4141 -0.1590 -0.0931
   9023SM  H17S12106   5.388   1.172  14.189 -0.4444 -0.6347  0.2453
   9023SM  H17T12107   5.212   1.144  14.205 -0.5207  0.4321 -1.2032
   9023SM  C18S12108   5.309   1.210  14.392  0.0832 -0.0461  0.2494
   9023SM  H18S12109   5.235   1.280  14.437  0.1354  0.3283 -0.2409
   9023SM  H18T12110   5.410   1.247  14.419 -0.3170  0.3290  1.2865
   9023SM  H18U12111   5.299   1.106  14.430 -0.2528  0.1819  0.8010
   9023SM   C1F12112   6.186   1.402  13.116 -0.1773  0.8586  0.1784
   9023SM    OF12113   6.184   1.508  13.054  0.1502  0.4409  0.1506
   9023SM   C2F12114   6.268   1.373  13.232  0.1024  0.1969 -0.6915
   9023SM   H2F12115   6.361   1.321  13.199  1.8929  1.5364  1.9196
   9023SM   H2G12116   6.215   1.296  13.291  0.4407  0.7851  0.3962
   9023SM   C3F12117   6.293   1.497  13.315 -0.1311  0.0285  0.1911
   9023SM   H3F12118   6.198   1.543  13.351 -0.2175 -0.1799  0.2297
   9023SM   H3G12119   6.352   1.570  13.256 -1.3475 -0.2218 -1.4047
   9023SM   C4F12120   6.375   1.460  13.443 -0.7543 -0.4171  0.0219
   9023SM   H4F12121   6.464   1.400  13.416 -0.0501  0.0452  1.2566
   9023SM   H4G12122   6.307   1.385  13.490  1.4277 -3.3482 -1.2031
   9023SM   C5F12123   6.402   1.570  13.545  0.3257 -0.2868 -0.0623
   9023SM   H5F12124   6.301   1.612  13.565 -0.8176 -2.7512 -0.1716
   9023SM   H5G12125   6.458   1.654  13.501  1.7772  0.0795  2.3139
   9023SM   C6F12126   6.470   1.520  13.670 -0.7002 -0.8903  0.5089
   9023SM   H6F12127   6.572   1.485  13.642  0.2330  1.4812  0.7281
   9023SM   H6G12128   6.409   1.436  13.710  1.8618 -2.9493  0.3605
   9023SM   C7F12129   6.491   1.616  13.781  0.3350  0.0723  0.6851
   9023SM   H7F12130   6.400   1.654  13.833 -0.2760  0.2584 -0.4809
   9023SM   H7G12131   6.535   1.707  13.736 -2.3468  0.7926 -0.7035
   9023SM   C8F12132   6.569   1.559  13.897  0.3009  0.1222 -0.1992
   9023SM   H8F12133   6.676   1.541  13.874 -0.1865 -2.5588 -0.6659
   9023SM   H8G12134   6.533   1.457  13.921  0.4233 -0.8042 -3.4316
   9023SM   C9F12135   6.548   1.647  14.017 -0.6650  0.0166  0.1674
   9023SM   H9F12136   6.440   1.642  14.044 -1.2391  1.7026 -1.5991
   9023SM   H9G12137   6.584   1.749  13.991 -0.1779 -0.4452 -0.9978
   9023SM  C10F12138   6.649   1.593  14.129 -0.0626 -0.4246  0.7241
   9023SM  H10F12139   6.753   1.595  14.091  0.0946  0.2363  1.1688
   9023SM  H10G12140   6.617   1.492  14.163 -0.1392 -0.9855 -0.9496
   9023SM  C11F12141   6.649   1.690  14.244  0.3794  0.3806  0.0420
   9023SM  H11F12142   6.542   1.695  14.273  0.4445  0.9290  0.2080
   9023SM  H11G12143   6.686   1.786  14.202 -1.8207  0.7307 -1.2355
   9023SM  C12F12144   6.742   1.639  14.362  0.0266 -0.7244 -0.1787
   9023SM  H12F12145   6.830   1.585  14.322  1.7465 -1.3870  4.0056
   9023SM  H12G12146   6.684   1.569  14.425  0.7517  0.1665  1.5186
   9023SM  C13F12147   6.778   1.756  14.453 -1.0862 -0.1125 -0.4456
   9023SM  H13F12148   6.833   1.828  14.390 -1.8188  0.4969 -0.4019
   9023SM  H13G12149   6.845   1.717  14.532 -1.6035  0.6862  0.3983
   9023SM  C14F12150   6.654   1.830  14.518  0.8065 -0.2991  0.3522
   9023SM  H14F12151   6.574   1.841  14.442  0.3551  1.2020  1.0089
   9023SM  H14G12152   6.692   1.933  14.538  1.0140 -0.3928  0.4510
   9023SM  C15F12153   6.594   1.763  14.643  0.1653 -0.6274  0.3664
   9023SM  H15F12154   6.675   1.755  14.719  0.9252  1.2057 -0.1865
   9023SM  H15G12155   6.558   1.662  14.614 -1.4971  0.4752 -1.6036
   9023SM  C16F12156   6.464   1.836  14.697 -0.2912 -0.3573  0.4110
   9023SM  H16F12157   6.383   1.813  14.625 -1.8970 -2.7848  2.8366
   9023SM  H16G12158   6.489   1.944  14.691 -0.2398 -0.2276  2.2458
   9023SM  C17F12159   6.434   1.785  14.845  0.0603 -0.3343  0.7146
   9023SM  H17F12160   6.514   1.810  14.917 -1.2277  0.0174  2.0817
   9023SM  H17G12161   6.431   1.674  14.842 -0.2951 -0.3109 -0.1657
   9023SM  C18F12162   6.302   1.846  14.902 -0.3021  0.2318  0.8268
   9023SM  H18F12163   6.231   1.824  14.819  3.2501  0.1509 -2.4568
   9023SM  H18G12164   6.306   1.957  14.904 -0.7495  0.2796  0.0098
   9023SM  C19F12165   6.256   1.793  15.032  0.3150  0.6625 -0.3141
   9023SM  H19F12166   6.176   1.859  15.071  1.2490  2.1368 -0.8021
   9023SM  H19G12167   6.338   1.795  15.106  1.3062 -3.0881 -1.0765
   9023SM  C20F12168   6.216   1.637  15.033  0.3176  0.1502 -0.0224
   9023SM  H20F12169   6.306   1.574  15.019 -1.8504 -2.9102 -1.4488
   9023SM  H20G12170   6.154   1.601  14.948  0.9336  1.6656 -1.1629
   9023SM  C21F12171   6.136   1.606  15.157  0.3232 -0.4051 -0.2304
   9023SM  H21F12172   6.037   1.656  15.157  1.5491  2.2363 -0.8292
   9023SM  H21G12173   6.190   1.652  15.243 -1.2761  2.3783 -0.5855
   9023SM  C22F12174   6.127   1.452  15.193 -0.2859 -0.2008 -0.6580
   9023SM  H22F12175   6.051   1.450  15.274  1.7732  0.0637  1.4129
   9023SM  H22G12176   6.218   1.414  15.245  0.8307  1.0240 -1.6229
   9023SM  C23F12177   6.083   1.353  15.090  0.2681 -0.0985 -0.4500
   9023SM  H23F12178   6.162   1.336  15.015  0.5990  1.1438 -0.4102
   9023SM  H23G12179   5.999   1.401  15.035  1.6179  0.2019 -2.3365
   9023SM  H23H12180   6.064   1.252  15.134  0.0561  0.6079  1.1695
   9123SM     N12181   6.544   4.263  12.191  0.7045  0.5866 -0.2638
   9123SM   C1512182   6.557   4.412  12.198  0.2597 -0.6850  0.1928
   9123SM  H15A12183   6.462   4.462  12.214  0.8327  1.1069 -1.6294
   9123SM  H15B12184   6.599   4.451  12.107 -0.6126  1.6457  0.7262
   9123SM  H15C12185   6.613   4.442  12.285  0.0363 -0.9298  0.4248
   9123SM   C1412186   6.499   4.234  12.049  0.5847 -0.1137 -0.3418
   9123SM  H14A12187   6.414   4.298  12.031 -0.0315 -0.4283  1.2682
   9123SM  H14B12188   6.469   4.131  12.044  1.9055 -0.6349  1.4839
   9123SM  H14C12189   6.575   4.259  11.977  0.0911  0.1672 -0.7747
   9123SM   C1312190   6.671   4.184  12.203 -0.8623 -0.8352 -0.3746
   9123SM  H13A12191   6.708   4.201  12.303  1.6014  0.9506 -1.4848
   9123SM  H13B12192   6.746   4.224  12.137 -2.7219  1.6077 -1.1532
   9123SM  H13C12193   6.669   4.076  12.194 -0.4152 -1.2693  3.2786
   9123SM   C1212194   6.432   4.216  12.287  0.3093  0.1089  0.1381
   9123SM  H12A12195   6.409   4.113  12.265  1.6780 -0.3003  0.5399
   9123SM  H12B12196   6.347   4.278  12.262  1.0385  0.9402 -0.3343
   9123SM   C1112197   6.444   4.239  12.437 -0.2121  0.7589  0.7090
   9123SM  H11A12198   6.538   4.196  12.478 -0.8895 -2.9701 -1.2357
   9123SM  H11B12199   6.362   4.185  12.489  1.1956  0.0685  2.3025
   9123SM     P12200   6.317   4.467  12.470 -0.1709 -0.1606  0.1456
   9123SM   O1312201   6.353   4.596  12.531 -0.2434 -0.0986 -0.9293
   9123SM   O1412202   6.260   4.474  12.335 -0.3504  0.2832  0.1532
   9123SM   O1112203   6.216   4.394  12.563  0.7474 -0.6764 -0.2855
   9123SM   O1212204   6.442   4.377  12.470  0.1259  0.3296 -0.1735
   9123SM   C1S12205   6.262   4.338  12.687  0.4418 -0.5729  0.1358
   9123SM   H1S12206   6.368   4.356  12.715 -0.1411  2.0242  0.9293
   9123SM   H1T12207   6.240   4.229  12.683  0.5768 -0.5959  0.0437
   9123SM    NF12208   6.252   4.355  12.930 -0.3618  0.1589  0.2738
   9123SM   HNF12209   6.248   4.258  12.952  1.8922 -0.0503  0.0450
   9123SM   C2S12210   6.186   4.403  12.807  0.1052 -0.1338 -0.0487
   9123SM   H2S12211   6.196   4.513  12.795 -0.6476 -0.0702 -0.1137
   9123SM   C3S12212   6.031   4.373  12.802 -0.2620  0.4664 -0.2504
   9123SM   H3S12213   6.007   4.265  12.791  2.6725 -0.2958 -0.1416
   9123SM    O312214   5.964   4.420  12.680 -0.2840  0.7969 -0.1592
   9123SM   HO312215   6.034   4.439  12.618  1.9192 -0.6780  1.6659
   9123SM   C4S12216   5.956   4.447  12.910  0.0651  0.4289 -0.0132
   9123SM   H4S12217   5.963   4.557  12.905 -0.5132  0.4493 -0.4501
   9123SM   C5S12218   5.898   4.393  13.018  0.1962 -0.2856  0.3742
   9123SM   H5S12219   5.905   4.284  13.032  0.7175 -0.3044  0.0014
   9123SM   C6S12220   5.828   4.471  13.127  0.1663 -0.2126  0.1062
   9123SM   H6S12221   5.725   4.433  13.139 -0.4350  1.4964  0.6479
   9123SM   H6T12222   5.811   4.578  13.103  1.2954 -0.1133 -0.3002
   9123SM   C7S12223   5.896   4.466  13.261  0.6179 -0.7120  0.0550
   9123SM   H7S12224   5.863   4.369  13.306  0.1310  0.1174  1.5538
   9123SM   H7T12225   5.834   4.541  13.315  1.4624  0.4067 -0.4989
   9123SM   C8S12226   6.044   4.483  13.286 -0.5418 -0.2034 -0.2886
   9123SM   H8S12227   6.077   4.586  13.261 -0.7448  0.7791  3.0924
   9123SM   H8T12228   6.100   4.416  13.216  1.2129 -1.1106  1.8662
   9123SM   C9S12229   6.079   4.461  13.427 -0.1450 -0.2592 -0.6786
   9123SM   H9S12230   6.050   4.355  13.443 -1.1011  0.4005  2.9337
   9123SM   H9T12231   6.011   4.517  13.494  2.0908 -1.0118  2.4294
   9123SM  C10S12232   6.221   4.495  13.457  0.1017 -0.6134 -0.8481
   9123SM  H10S12233   6.243   4.602  13.440  1.2121 -0.6577  0.1531
   9123SM  H10T12234   6.289   4.434  13.393  0.7143 -0.2655 -0.5393
   9123SM  C11S12235   6.263   4.447  13.599 -0.5388 -0.6752  0.2138
   9123SM  H11S12236   6.349   4.378  13.585 -0.1279  0.0862 -1.1970
   9123SM  H11T12237   6.180   4.382  13.636 -0.6040 -1.3118 -1.0091
   9123SM  C12S12238   6.307   4.563  13.685 -0.8485  0.0123  0.3374
   9123SM  H12S12239   6.236   4.648  13.678  1.2407  1.7781 -0.8209
   9123SM  H12T12240   6.400   4.607  13.643 -0.9114  0.3096  0.5088
   9123SM  C13S12241   6.326   4.524  13.825 -0.1172 -0.1545 -0.4875
   9123SM  H13S12242   6.379   4.431  13.854 -0.4814 -0.2728 -0.1782
   9123SM  H13T12243   6.228   4.508  13.876  0.6006 -0.9348  0.6817
   9123SM  C14S12244   6.397   4.634  13.910 -0.6271  0.4097  0.0700
   9123SM  H14S12245   6.364   4.738  13.889  1.2381  0.7171 -1.6540
   9123SM  H14T12246   6.507   4.640  13.894 -0.7288  1.7245 -0.2665
   9123SM  C15S12247   6.396   4.607  14.065 -0.2028 -0.2274  0.1305
   9123SM  H15S12248   6.410   4.498  14.081  0.2143 -0.1399  0.3754
   9123SM  H15T12249   6.292   4.633  14.094 -0.0875  0.8009 -0.3489
   9123SM  C16S12250   6.488   4.692  14.146  0.3095  0.2019  1.1754
   9123SM  H16S12251   6.471   4.793  14.103  0.7969  0.3809  1.3992
   9123SM  H16T12252   6.592   4.656  14.135 -0.1619 -1.1037  0.7463
   9123SM  C17S12253   6.450   4.684  14.295  0.0106 -0.7575  0.6170
   9123SM  H17S12254   6.339   4.674  14.296 -0.0576 -0.1827 -0.0277
   9123SM  H17T12255   6.482   4.773  14.352 -1.6529  0.8700 -0.8476
   9123SM  C18S12256   6.514   4.561  14.361 -0.5557  0.4523  0.2774
   9123SM  H18S12257   6.624   4.556  14.342 -0.7131  0.4352 -0.7091
   9123SM  H18T12258   6.461   4.472  14.322 -0.3314  0.0588  0.8608
   9123SM  H18U12259   6.496   4.555  14.470 -0.8306  1.6012  0.3037
   9123SM   C1F12260   6.352   4.423  12.982  1.1831 -0.1069 -0.4906
   9123SM    OF12261   6.389   4.524  12.923  0.2940  0.4252 -0.8924
   9123SM   C2F12262   6.402   4.376  13.113  0.3002 -0.3245 -0.5033
   9123SM   H2F12263   6.447   4.277  13.091  0.2050 -0.5732  0.3792
   9123SM   H2G12264   6.310   4.360  13.173  1.0126  1.7985  1.2570
   9123SM   C3F12265   6.496   4.472  13.186  0.1288 -0.2160 -0.0106
   9123SM   H3F12266   6.443   4.564  13.218  2.8286  2.1260 -1.8096
   9123SM   H3G12267   6.566   4.522  13.116  1.1672  2.2222  2.5662
   9123SM   C4F12268   6.569   4.417  13.311 -0.1241  0.1564  0.0867
   9123SM   H4F12269   6.658   4.361  13.277  0.2645  0.8663 -0.0871
   9123SM   H4G12270   6.497   4.352  13.366 -1.4410  1.0897 -0.4639
   9123SM   C5F12271   6.616   4.532  13.400  0.1764 -0.3504 -0.0369
   9123SM   H5F12272   6.527   4.583  13.441  0.9263  1.1529 -0.1960
   9123SM   H5G12273   6.680   4.601  13.341  2.7042 -0.2716  2.5536
   9123SM   C6F12274   6.708   4.498  13.517 -0.3967 -0.0219 -0.1810
   9123SM   H6F12275   6.734   4.585  13.582 -1.9088 -0.8220  1.5864
   9123SM   H6G12276   6.803   4.475  13.465 -0.5086 -0.8065 -0.0454
   9123SM   C7F12277   6.665   4.376  13.593 -0.1754  0.6887  0.5417
   9123SM   H7F12278   6.645   4.294  13.521 -1.6193  2.1533 -0.7969
   9123SM   H7G12279   6.573   4.391  13.653 -0.3311 -0.5049  0.6238
   9123SM   C8F12280   6.777   4.318  13.688 -0.0185  0.0854 -0.4549
   9123SM   H8F12281   6.832   4.399  13.740  0.4943 -0.3157 -0.3524
   9123SM   H8G12282   6.845   4.265  13.617 -1.3320 -1.2273 -0.7900
   9123SM   C9F12283   6.728   4.220  13.790  0.3365  0.1372 -0.5774
   9123SM   H9F12284   6.712   4.119  13.746 -0.0057 -0.4844  0.8964
   9123SM   H9G12285   6.627   4.255  13.818  0.0583 -0.9591 -0.1731
   9123SM  C10F12286   6.821   4.203  13.918  0.2750 -0.3001  1.0640
   9123SM  H10F12287   6.927   4.202  13.885  0.4333  2.3807  1.2858
   9123SM  H10G12288   6.786   4.107  13.964 -1.1513 -0.0820  0.4696
   9123SM  C11F12289   6.799   4.311  14.026  0.2763 -0.0234 -0.0236
   9123SM  H11F12290   6.840   4.272  14.121 -1.9752 -0.9283  0.6310
   9123SM  H11G12291   6.691   4.322  14.049  0.4884  2.1813  0.1275
   9123SM  C12F12292   6.858   4.447  13.988  0.3069  0.2823 -0.3462
   9123SM  H12F12293   6.788   4.494  13.916  1.1455  1.6894 -0.2778
   9123SM  H12G12294   6.950   4.434  13.927 -0.1230 -1.6434 -0.6354
   9123SM  C13F12295   6.882   4.533  14.110 -0.2843  0.6022 -0.2305
   9123SM  H13F12296   6.958   4.485  14.175  0.5430 -0.7308 -2.0858
   9123SM  H13G12297   6.788   4.535  14.170  0.5216  2.3702  1.0757
   9123SM  C14F12298   6.922   4.677  14.074 -0.4352 -0.5645 -0.1045
   9123SM  H14F12299   6.830   4.730  14.041 -0.3346 -0.7541 -0.7088
   9123SM  H14G12300   6.992   4.684  13.988 -0.1490 -1.5159  0.0412
   9123SM  C15F12301   6.985   4.752  14.193 -0.3375 -0.3121 -0.0103
   9123SM  H15F12302   7.008   4.858  14.170 -0.9391 -0.3406 -0.7626
   9123SM  H15G12303   7.072   4.694  14.231 -0.7446 -1.3859 -0.6831
   9123SM  C16F12304   6.886   4.764  14.310 -0.1387 -0.0354 -0.2906
   9123SM  H16F12305   6.824   4.672  14.320 -3.1856  1.5698 -2.6309
   9123SM  H16G12306   6.814   4.848  14.301 -1.7758 -1.4491 -0.8222
   9123SM  C17F12307   6.950   4.787  14.444 -0.1058  0.1692  0.3968
   9123SM  H17F12308   6.995   4.888  14.444  0.0435  0.1061 -0.0442
   9123SM  H17G12309   7.028   4.710  14.461  1.2554  1.2866 -0.6398
   9123SM  C18F12310   6.841   4.786  14.554 -0.3798 -0.5544  0.8366
   9123SM  H18F12311   6.779   4.694  14.554 -1.2927  0.0421 -0.1977
   9123SM  H18G12312   6.759   4.857  14.533 -3.0119 -3.3354  0.9901
   9123SM  C19F12313   6.895   4.804  14.692 -0.2422  0.7789  0.3229
   9123SM  H19F12314   6.955   4.898  14.695  3.5221 -1.3683 -0.5634
   9123SM  H19G12315   6.970   4.725  14.715 -1.6955  0.0227  2.9115
   9123SM  C20F12316   6.784   4.784  14.788 -0.1901 -0.4073  0.0954
   9123SM  H20F12317   6.734   4.688  14.763 -1.2480  0.3402 -0.7392
   9123SM  H20G12318   6.707   4.862  14.774 -0.2175 -0.3103  0.7398
   9123SM  C21F12319   6.829   4.791  14.933 -0.4441  0.0767 -0.2764
   9123SM  H21F12320   6.890   4.883  14.950 -0.1928 -0.2544  0.6613
   9123SM  H21G12321   6.897   4.707  14.954  3.0553  2.8996  0.7041
   9123SM  C22F12322   6.718   4.786  15.034  0.0694 -0.6321 -0.7937
   9123SM  H22F12323   6.658   4.694  15.015  0.4751 -0.7239 -1.6787
   9123SM  H22G12324   6.646   4.868  15.018  0.6037  0.1192  0.4582
   9123SM  C23F12325   6.769   4.795  15.179  0.0485 -0.3036 -0.4657
   9123SM  H23F12326   6.845   4.876  15.187 -1.1984  0.9745 -1.0850
   9123SM  H23G12327   6.823   4.703  15.210 -0.4703 -0.5425 -0.2691
   9123SM  H23H12328   6.692   4.813  15.257  1.0632  0.6052  0.3574
   9223SM     N12329   4.839   1.369  12.757 -0.3746  0.7609 -0.0385
   9223SM   C1512330   4.773   1.361  12.888  0.7099  0.2944  0.1670
   9223SM  H15A12331   4.754   1.256  12.906  0.9076 -0.1391 -1.9264
   9223SM  H15B12332   4.674   1.403  12.888 -0.7255 -2.7663  0.0247
   9223SM  H15C12333   4.839   1.404  12.962  1.3164  0.1551 -0.2821
   9223SM   C1412334   4.738   1.318  12.656 -0.6669 -0.0842  0.1433
   9223SM  H14A12335   4.722   1.213  12.674 -1.3549 -0.2021 -1.0411
   9223SM  H14B12336   4.769   1.335  12.554 -0.9120  0.1098  0.1011
   9223SM  H14C12337   4.645   1.371  12.671  0.2853  1.7098  0.0198
   9223SM   C1312338   4.870   1.515  12.736 -0.9145 -0.3986  0.3289
   9223SM  H13A12339   4.928   1.559  12.816 -0.2438  2.3845 -1.5353
   9223SM  H13B12340   4.782   1.574  12.714 -1.0713 -0.9173 -0.4727
   9223SM  H13C12341   4.944   1.524  12.657  3.3551  1.0791  4.0475
   9223SM   C1212342   4.964   1.276  12.768 -0.5375  0.3857 -0.0947
   9223SM  H12A12343   4.927   1.183  12.810  2.1094 -0.2635  0.9979
   9223SM  H12B12344   5.027   1.335  12.832  0.4694  0.2207 -0.8998
   9223SM   C1112345   5.030   1.235  12.634 -0.4797  0.4636 -0.7479
   9223SM  H11A12346   4.964   1.170  12.573 -2.1119  1.2797  0.1081
   9223SM  H11B12347   5.113   1.163  12.654 -0.8433  0.6777  1.8205
   9223SM     P12348   5.222   1.387  12.555 -0.5190  0.0891  0.0498
   9223SM   O1312349   5.288   1.298  12.457 -0.1792 -0.0504  0.1308
   9223SM   O1412350   5.242   1.533  12.527 -0.0581 -0.1462  0.1660
   9223SM   O1112351   5.270   1.349  12.695  0.0938  0.1842 -0.0979
   9223SM   O1212352   5.069   1.354  12.560 -0.3414  0.1299  0.1442
   9223SM   C1S12353   5.248   1.449  12.799  0.5757 -0.1914 -0.1662
   9223SM   H1S12354   5.154   1.507  12.789  1.5701  1.4182 -0.6273
   9223SM   H1T12355   5.330   1.524  12.795 -0.6762  1.3037  0.8754
   9223SM    NF12356   5.237   1.470  13.052  0.1309 -0.2515  0.4416
   9223SM   HNF12357   5.315   1.513  13.097  0.0672 -1.4749  1.8104
   9223SM   C2S12358   5.266   1.378  12.937 -0.0616 -0.1231  0.5939
   9223SM   H2S12359   5.193   1.294  12.938  0.8542 -0.9591 -0.2412
   9223SM   C3S12360   5.406   1.313  12.953 -0.2105  0.0278 -0.2080
   9223SM   H3S12361   5.477   1.396  12.976  0.5452 -0.9666  1.1889
   9223SM    O312362   5.452   1.247  12.828  0.2448 -0.5829 -0.1295
   9223SM   HO312363   5.374   1.252  12.772 -1.7983  2.3300  2.6056
   9223SM   C4S12364   5.409   1.229  13.076  0.4340  0.5829  0.3982
   9223SM   H4S12365   5.459   1.281  13.160 -0.9728  1.4987  0.7132
   9223SM   C5S12366   5.358   1.108  13.092 -0.0065 -0.2386 -0.5085
   9223SM   H5S12367   5.309   1.070  13.001  0.6792 -2.2376 -0.0816
   9223SM   C6S12368   5.365   1.028  13.220  0.1838 -0.0901 -0.3173
   9223SM   H6S12369   5.465   0.986  13.240  0.2023  0.1205  0.0301
   9223SM   H6T12370   5.297   0.940  13.211  0.1261 -0.1308  0.4906
   9223SM   C7S12371   5.311   1.117  13.335 -0.3007  0.2729  0.6811
   9223SM   H7S12372   5.210   1.148  13.301  0.0471 -0.3553 -1.0362
   9223SM   H7T12373   5.372   1.209  13.339  1.7274 -0.9189 -0.8761
   9223SM   C8S12374   5.294   1.031  13.461  0.3031  0.2253  0.3644
   9223SM   H8S12375   5.318   1.102  13.544  1.3122  1.7860 -1.1871
   9223SM   H8T12376   5.367   0.947  13.462 -0.4836 -0.4760  0.4871
   9223SM   C9S12377   5.161   0.964  13.482  0.2620  0.2613  0.0204
   9223SM   H9S12378   5.132   0.904  13.394 -1.4053  0.2458  0.5410
   9223SM   H9T12379   5.084   1.040  13.506 -0.3602 -0.0767 -0.8733
   9223SM  C10S12380   5.163   0.858  13.597 -0.7128 -0.4766 -0.2669
   9223SM  H10S12381   5.221   0.774  13.554  1.0929  0.0152  1.0928
   9223SM  H10T12382   5.060   0.827  13.624  0.1477 -1.4080  2.2401
   9223SM  C11S12383   5.239   0.907  13.728  0.5889 -0.0671  0.1598
   9223SM  H11S12384   5.175   0.988  13.769  0.0002  0.3683 -1.5350
   9223SM  H11T12385   5.340   0.949  13.706  1.0204 -1.3344 -0.3478
   9223SM  C12S12386   5.242   0.791  13.826 -0.3094  0.5850  0.7157
   9223SM  H12S12387   5.309   0.718  13.775 -1.5036  1.0683 -1.6673
   9223SM  H12T12388   5.138   0.752  13.833 -0.1433 -0.1145 -0.4562
   9223SM  C13S12389   5.303   0.819  13.968  0.8979 -0.6448  0.2084
   9223SM  H13S12390   5.295   0.721  14.020  1.5076 -0.4094  0.7440
   9223SM  H13T12391   5.238   0.898  14.011 -2.4744 -1.5943 -2.6415
   9223SM  C14S12392   5.446   0.873  13.982  0.6844  0.8293  0.1468
   9223SM  H14S12393   5.447   0.970  13.927  1.9676  0.4945 -0.4583
   9223SM  H14T12394   5.524   0.802  13.951  0.7668  0.0395  2.0416
   9223SM  C15S12395   5.484   0.891  14.131  0.8229 -0.0589  0.0107
   9223SM  H15S12396   5.411   0.964  14.172 -0.3898 -0.6666 -1.0255
   9223SM  H15T12397   5.584   0.934  14.154  0.1995 -0.6264  4.8302
   9223SM  C16S12398   5.463   0.763  14.218 -0.4071  0.2670  0.4860
   9223SM  H16S12399   5.500   0.671  14.168 -2.9858 -0.9706  0.6803
   9223SM  H16T12400   5.355   0.753  14.244 -0.0843 -0.7792  1.5643
   9223SM  C17S12401   5.550   0.775  14.346  0.0671  0.4781  0.0466
   9223SM  H17S12402   5.659   0.782  14.324  0.6390 -0.1076  2.3924
   9223SM  H17T12403   5.546   0.684  14.410 -0.5170  1.6606  1.7593
   9223SM  C18S12404   5.513   0.891  14.430  1.3430 -0.1199 -0.3289
   9223SM  H18S12405   5.555   0.984  14.387  3.1402 -1.6934 -2.2475
   9223SM  H18T12406   5.536   0.882  14.538  0.5595 -2.3096 -0.3001
   9223SM  H18U12407   5.402   0.894  14.433  1.2638 -2.2692  1.4368
   9223SM   C1F12408   5.114   1.506  13.094  0.1387  0.0464  0.0665
   9223SM    OF12409   5.011   1.482  13.023 -0.2218 -0.2290  0.7058
   9223SM   C2F12410   5.104   1.579  13.221 -0.8714  0.6524  0.4776
   9223SM   H2F12411   5.132   1.686  13.217 -1.0776  0.7122  0.6647
   9223SM   H2G12412   5.164   1.524  13.297 -2.6597 -2.5516 -0.2238
   9223SM   C3F12413   4.953   1.578  13.270 -0.2335 -0.9576  0.2784
   9223SM   H3F12414   4.894   1.484  13.260 -2.8820  0.6832 -0.5381
   9223SM   H3G12415   4.887   1.644  13.211  0.7502 -0.5127 -0.3539
   9223SM   C4F12416   4.948   1.625  13.418  0.4467 -0.0781 -0.0550
   9223SM   H4F12417   4.850   1.659  13.458  0.8346  1.2231 -0.1416
   9223SM   H4G12418   5.014   1.712  13.441 -2.2443  1.5715  2.0237
   9223SM   C5F12419   4.989   1.509  13.520 -0.4205  0.9155  0.4833
   9223SM   H5F12420   5.092   1.472  13.504 -0.7878 -0.1093  0.4117
   9223SM   H5G12421   4.913   1.430  13.501  0.9903 -0.8295  1.8518
   9223SM   C6F12422   4.972   1.541  13.668  0.8263 -0.0930 -0.3777
   9223SM   H6F12423   5.012   1.644  13.679 -0.8455  0.2819  4.1327
   9223SM   H6G12424   5.036   1.471  13.726  2.1347  2.4536  1.4404
   9223SM   C7F12425   4.832   1.529  13.720  0.2302  0.5034  0.3181
   9223SM   H7F12426   4.807   1.423  13.699  1.7126  0.2007 -0.0595
   9223SM   H7G12427   4.765   1.594  13.659 -1.6058 -1.4293  0.1574
   9223SM   C8F12428   4.821   1.575  13.866  0.6438 -0.0327  0.2495
   9223SM   H8F12429   4.881   1.668  13.879 -1.5319  1.3412  1.1211
   9223SM   H8G12430   4.854   1.491  13.931 -1.0917 -0.6222  0.4098
   9223SM   C9F12431   4.683   1.608  13.932  0.4471 -0.5371  0.0222
   9223SM   H9F12432   4.610   1.527  13.913  0.4173 -0.5993  0.4016
   9223SM   H9G12433   4.656   1.701  13.878 -0.0767 -2.0432 -2.4817
   9223SM  C10F12434   4.712   1.635  14.076  0.0292 -0.8997  0.4402
   9223SM  H10F12435   4.790   1.714  14.074  1.4978 -2.2957 -1.0979
   9223SM  H10G12436   4.763   1.545  14.118 -0.2405 -0.2857  2.2005
   9223SM  C11F12437   4.590   1.666  14.168 -0.0804  0.0789  0.1429
   9223SM  H11F12438   4.532   1.572  14.175 -0.2248 -0.2458 -3.3327
   9223SM  H11G12439   4.520   1.737  14.119 -1.5605 -1.3300  0.1610
   9223SM  C12F12440   4.641   1.724  14.297 -0.2068  0.4242  0.4673
   9223SM  H12F12441   4.691   1.819  14.268  0.6351 -0.8096 -2.4516
   9223SM  H12G12442   4.720   1.655  14.334 -3.2059 -1.5000  3.8859
   9223SM  C13F12443   4.524   1.754  14.389 -0.0024 -0.7264 -0.4111
   9223SM  H13F12444   4.479   1.665  14.438 -0.8846 -0.7244 -1.1816
   9223SM  H13G12445   4.444   1.799  14.327  0.3685  1.4211  0.5940
   9223SM  C14F12446   4.558   1.854  14.503  0.5536 -0.7624  0.3563
   9223SM  H14F12447   4.624   1.802  14.575  0.8406 -0.5891  0.2177
   9223SM  H14G12448   4.467   1.887  14.559  0.4004 -2.3563  1.0920
   9223SM  C15F12449   4.613   1.992  14.455  0.1221 -0.1814 -1.5412
   9223SM  H15F12450   4.530   2.053  14.415 -1.4536 -0.1400  1.5147
   9223SM  H15G12451   4.692   2.003  14.377  0.4208  0.0271 -1.2080
   9223SM  C16F12452   4.659   2.062  14.581  0.7360 -0.4732 -0.2679
   9223SM  H16F12453   4.728   1.997  14.638 -1.1524 -1.9461  0.4191
   9223SM  H16G12454   4.577   2.085  14.652  0.3943  1.2695 -1.1724
   9223SM  C17F12455   4.712   2.206  14.563  1.0673 -0.5476  0.3599
   9223SM  H17F12456   4.623   2.272  14.565  1.0800 -0.5195  0.0750
   9223SM  H17G12457   4.762   2.217  14.464 -0.9175 -2.0197 -0.8870
   9223SM  C18F12458   4.816   2.240  14.668  0.4053  0.5335 -0.3111
   9223SM  H18F12459   4.908   2.185  14.639  1.3736  1.3795  0.9845
   9223SM  H18G12460   4.785   2.190  14.763  0.6006 -1.3390 -1.1923
   9223SM  C19F12461   4.843   2.383  14.695 -0.0213 -0.9273  0.0576
   9223SM  H19F12462   4.757   2.452  14.681  0.2723 -0.2187  1.5357
   9223SM  H19G12463   4.918   2.430  14.628 -0.7756 -0.2093 -0.2960
   9223SM  C20F12464   4.898   2.415  14.840 -0.3286 -0.1224 -0.8528
   9223SM  H20F12465   4.992   2.362  14.867  0.5834  1.9704  0.3094
   9223SM  H20G12466   4.832   2.377  14.921  0.6708 -1.2477 -0.5347
   9223SM  C21F12467   4.929   2.567  14.877 -0.1880  0.0951 -0.4922
   9223SM  H21F12468   4.985   2.620  14.798  0.7434  0.9404  0.7079
   9223SM  H21G12469   4.995   2.570  14.966 -0.7567  0.5688 -0.0762
   9223SM  C22F12470   4.801   2.648  14.907 -0.7587  0.2270  0.3509
   9223SM  H22F12471   4.764   2.617  15.007  0.5343  0.7619  1.0129
   9223SM  H22G12472   4.724   2.623  14.831  0.0705 -0.1751 -0.3670
   9223SM  C23F12473   4.835   2.799  14.913 -0.0339 -0.3763  0.1858
   9223SM  H23F12474   4.879   2.834  14.817 -1.1114 -0.8276 -0.4831
   9223SM  H23G12475   4.912   2.813  14.992  0.4751 -0.0840 -0.3505
   9223SM  H23H12476   4.749   2.864  14.940  1.5319  1.3089  1.4217
   9323SM     N12477   5.901   3.926  12.379 -0.2012  0.4227  0.5559
   9323SM   C1512478   5.925   4.023  12.491 -0.0093 -0.3111  0.0187
   9323SM  H15A12479   5.976   4.111  12.457  0.6915 -1.1764 -1.2391
   9323SM  H15B12480   5.992   3.976  12.562 -1.5524 -1.2661  0.9189
   9323SM  H15C12481   5.827   4.057  12.524  0.5612  0.2383  1.2154
   9323SM   C1412482   5.831   3.803  12.436 -0.7585 -0.5592  0.3075
   9323SM  H14A12483   5.905   3.742  12.486  1.5683  0.2968 -1.8810
   9323SM  H14B12484   5.815   3.737  12.353  0.8460 -0.5918  0.0029
   9323SM  H14C12485   5.744   3.823  12.497  0.3671  2.0937  1.2104
   9323SM   C1312486   5.820   3.985  12.277  0.1195 -0.1222  0.6600
   9323SM  H13A12487   5.715   3.985  12.303  0.0954  0.7525  0.5806
   9323SM  H13B12488   5.827   3.934  12.183 -3.9949 -0.0381  0.1572
   9323SM  H13C12489   5.856   4.086  12.261 -2.1166  0.8058  1.1697
   9323SM   C1212490   6.038   3.895  12.322  0.4116 -0.1077 -0.5095
   9323SM  H12A12491   6.086   3.990  12.303  2.4179 -0.6804  1.2988
   9323SM  H12B12492   6.029   3.833  12.235  1.5253 -1.3054  0.1935
   9323SM   C1112493   6.143   3.822  12.415  0.1206  0.1503  0.3820
   9323SM  H11A12494   6.227   3.808  12.344 -1.9287 -1.0008 -1.9749
   9323SM  H11B12495   6.097   3.723  12.434 -0.2253  0.4712  1.2668
   9323SM     P12496   6.272   3.833  12.634  0.3875 -0.2164 -0.1426
   9323SM   O1312497   6.272   3.685  12.628 -0.6718 -0.3442 -0.0451
   9323SM   O1412498   6.399   3.900  12.596  0.3760 -0.1724 -0.9898
   9323SM   O1112499   6.227   3.886  12.776  0.4942 -0.3705  0.5755
   9323SM   O1212500   6.160   3.884  12.541  0.0927  0.3493  0.1983
   9323SM   C1S12501   6.087   3.890  12.813 -0.4374  0.5603  0.8925
   9323SM   H1S12502   6.032   3.805  12.767  1.6017  0.7405 -2.0904
   9323SM   H1T12503   6.039   3.981  12.771 -1.2375 -0.2537  0.0008
   9323SM    NF12504   5.940   3.835  13.004  0.2656  0.2520  0.7514
   9323SM   HNF12505   5.868   3.903  13.013 -1.3504 -1.0222 -1.5785
   9323SM   C2S12506   6.076   3.876  12.965 -0.6170  0.0591 -0.0769
   9323SM   H2S12507   6.151   3.799  12.992 -0.1959  1.2933  2.5430
   9323SM   C3S12508   6.118   4.008  13.029 -0.3206  0.5040  0.5499
   9323SM   H3S12509   6.035   4.079  13.008 -1.7734 -0.5182  2.4451
   9323SM    O312510   6.238   4.064  12.975 -0.0434  0.2849 -0.0364
   9323SM   HO312511   6.257   4.007  12.901  0.9115  1.4562 -0.7241
   9323SM   C4S12512   6.133   3.989  13.177  0.2440  0.1424 -0.1698
   9323SM   H4S12513   6.215   3.922  13.204 -0.1429  0.9080  3.4004
   9323SM   C5S12514   6.052   4.048  13.273  0.3473  0.0252  0.2683
   9323SM   H5S12515   5.965   4.108  13.243 -0.5444 -0.5055  1.6817
   9323SM   C6S12516   6.067   4.033  13.418 -0.5848 -0.9562 -0.5863
   9323SM   H6S12517   6.029   3.935  13.455 -1.9595 -0.0094  0.6053
   9323SM   H6T12518   6.002   4.109  13.466  2.6199  1.8859 -0.4085
   9323SM   C7S12519   6.215   4.055  13.468 -0.2280  0.2280  0.1366
   9323SM   H7S12520   6.253   4.147  13.417  1.6618 -1.1590 -1.1329
   9323SM   H7T12521   6.283   3.976  13.429 -1.7548 -0.2147 -1.8291
   9323SM   C8S12522   6.226   4.060  13.621 -0.0649  0.2737  0.0937
   9323SM   H8S12523   6.151   3.995  13.671  1.1501  0.0965  1.7980
   9323SM   H8T12524   6.204   4.166  13.643 -0.0192  0.5105 -0.9631
   9323SM   C9S12525   6.359   4.025  13.680  0.4548  1.1089  0.7703
   9323SM   H9S12526   6.427   4.110  13.658  2.2097 -0.6379 -0.9408
   9323SM   H9T12527   6.392   3.937  13.621 -0.6550  0.4088  1.1502
   9323SM  C10S12528   6.363   3.968  13.826 -0.6711 -0.0205 -0.2016
   9323SM  H10S12529   6.450   3.899  13.834  0.3664  1.4555  2.0888
   9323SM  H10T12530   6.277   3.902  13.851  0.2844 -1.0755  0.4251
   9323SM  C11S12531   6.374   4.074  13.938 -0.0189 -0.6141 -0.2127
   9323SM  H11S12532   6.277   4.128  13.942  1.0046  1.2158  0.9620
   9323SM  H11T12533   6.455   4.136  13.894  0.4783 -2.1191 -1.5149
   9323SM  C12S12534   6.425   4.033  14.077 -0.8215  0.4930 -0.2761
   9323SM  H12S12535   6.526   3.987  14.071  0.0610  2.3241 -0.1614
   9323SM  H12T12536   6.346   3.961  14.108 -1.4522  0.6994 -1.3589
   9323SM  C13S12537   6.436   4.149  14.177  0.2185 -0.5691  0.1924
   9323SM  H13S12538   6.393   4.238  14.127  0.8620 -0.0812  0.5012
   9323SM  H13T12539   6.537   4.180  14.210 -0.8877  3.3831  0.3442
   9323SM  C14S12540   6.352   4.121  14.306  0.1977 -0.1198 -0.0710
   9323SM  H14S12541   6.402   4.034  14.355  0.7595  0.5291  0.5164
   9323SM  H14T12542   6.253   4.086  14.269 -0.4643  2.4652 -0.9693
   9323SM  C15S12543   6.346   4.233  14.403 -0.1008 -0.6162  0.2582
   9323SM  H15S12544   6.453   4.253  14.423  0.0687 -0.8748 -0.3926
   9323SM  H15T12545   6.308   4.326  14.355  1.7720 -0.3299 -0.7398
   9323SM  C16S12546   6.256   4.201  14.524 -0.2297  0.4270  0.0903
   9323SM  H16S12547   6.280   4.100  14.563  2.1759  0.7231 -0.4692
   9323SM  H16T12548   6.148   4.188  14.500 -0.4455 -1.6942  1.8600
   9323SM  C17S12549   6.271   4.299  14.639  0.1488 -0.1202  0.0440
   9323SM  H17S12550   6.242   4.406  14.627 -1.1736 -0.1594  2.2443
   9323SM  H17T12551   6.381   4.293  14.656  0.2741  1.5998 -0.0128
   9323SM  C18S12552   6.209   4.251  14.771 -0.4615  0.2436 -0.4817
   9323SM  H18S12553   6.102   4.236  14.748 -1.0208  2.1491  0.6324
   9323SM  H18T12554   6.212   4.332  14.847 -1.7958 -0.9294  0.8646
   9323SM  H18U12555   6.270   4.168  14.812 -0.4956 -0.6019 -2.0712
   9323SM   C1F12556   5.898   3.710  12.992  0.0475  0.2884  0.0998
   9323SM    OF12557   5.967   3.621  12.937  0.2774 -0.3697  0.4599
   9323SM   C2F12558   5.755   3.692  13.036  0.6723 -0.1654 -0.0305
   9323SM   H2F12559   5.700   3.695  12.939  1.9882  0.0553 -0.7992
   9323SM   H2G12560   5.730   3.782  13.096 -0.7972 -1.6756  1.7690
   9323SM   C3F12561   5.728   3.560  13.115  0.1631  0.1574  0.1383
   9323SM   H3F12562   5.762   3.479  13.048 -1.0317  0.4840 -0.9026
   9323SM   H3G12563   5.621   3.569  13.145  0.3783 -2.5032  2.0847
   9323SM   C4F12564   5.802   3.556  13.251  0.1946  0.2885 -0.1987
   9323SM   H4F12565   5.881   3.634  13.251  1.1603 -0.6578  0.1517
   9323SM   H4G12566   5.862   3.462  13.254 -1.1895 -0.6038  1.9198
   9323SM   C5F12567   5.711   3.554  13.373  0.0272 -0.4923  0.3165
   9323SM   H5F12568   5.778   3.536  13.460  1.5548 -1.3977 -0.9945
   9323SM   H5G12569   5.639   3.470  13.361 -1.6303  0.8805  0.2630
   9323SM   C6F12570   5.625   3.679  13.401 -0.1994 -0.5999 -0.4789
   9323SM   H6F12571   5.556   3.698  13.317 -0.7400 -1.6091 -0.2794
   9323SM   H6G12572   5.700   3.759  13.418 -2.4902  1.2648  1.6149
   9323SM   C7F12573   5.541   3.672  13.533 -0.4385  0.3909 -0.0490
   9323SM   H7F12574   5.454   3.607  13.512 -1.3410  1.3568  0.5878
   9323SM   H7G12575   5.482   3.766  13.543 -2.7315 -0.7483 -1.8519
   9323SM   C8F12576   5.618   3.629  13.661  0.2406 -0.1921 -0.3122
   9323SM   H8F12577   5.722   3.667  13.665 -0.2611  1.1604  0.8240
   9323SM   H8G12578   5.620   3.519  13.680 -3.7932 -0.5741 -1.0661
   9323SM   C9F12579   5.543   3.683  13.790 -0.0826  0.3198  0.0682
   9323SM   H9F12580   5.440   3.641  13.783 -0.7582  1.9657 -0.3796
   9323SM   H9G12581   5.521   3.791  13.777 -0.3529  0.1026 -1.4034
   9323SM  C10F12582   5.619   3.652  13.925 -0.1473 -0.6489 -0.0309
   9323SM  H10F12583   5.711   3.715  13.923 -1.8802  2.2104  2.1173
   9323SM  H10G12584   5.655   3.547  13.919 -1.6306 -1.1706  0.0001
   9323SM  C11F12585   5.540   3.692  14.052 -0.1485 -0.1402 -0.2547
   9323SM  H11F12586   5.457   3.618  14.052  1.5512 -2.1565 -0.3123
   9323SM  H11G12587   5.481   3.786  14.047  0.6170  0.2843 -1.8207
   9323SM  C12F12588   5.631   3.684  14.176 -0.5482 -0.3538  0.2315
   9323SM  H12F12589   5.687   3.592  14.149 -1.3486  0.0193 -3.1693
   9323SM  H12G12590   5.579   3.661  14.271  2.5273 -1.0911  1.8790
   9323SM  C13F12591   5.725   3.801  14.194  0.6875  0.5095  0.5053
   9323SM  H13F12592   5.667   3.894  14.211  1.8300  0.8135  3.2562
   9323SM  H13G12593   5.788   3.809  14.103 -1.0108  0.0650 -0.7628
   9323SM  C14F12594   5.824   3.788  14.308  0.3748  0.8228 -0.2085
   9323SM  H14F12595   5.893   3.702  14.296 -0.0647  0.4364  0.0215
   9323SM  H14G12596   5.775   3.779  14.407  1.6937  1.9428  0.5824
   9323SM  C15F12597   5.906   3.917  14.314 -0.2859 -0.9342  0.7766
   9323SM  H15F12598   5.844   4.005  14.338  2.8584  1.8979 -0.6615
   9323SM  H15G12599   5.951   3.951  14.219 -2.2331 -1.2383 -0.2963
   9323SM  C16F12600   6.019   3.921  14.421  0.4634  0.7539 -0.0056
   9323SM  H16F12601   6.075   4.017  14.424  1.2834  0.3441 -1.1576
   9323SM  H16G12602   6.089   3.837  14.399  0.3889  0.4921  0.7424
   9323SM  C17F12603   5.980   3.888  14.565 -0.0148 -0.1797  0.6938
   9323SM  H17F12604   5.941   3.784  14.580  3.8103 -1.7330  0.9571
   9323SM  H17G12605   5.895   3.950  14.601 -0.0300  0.4534 -0.4136
   9323SM  C18F12606   6.098   3.893  14.665 -0.6874 -0.6071 -0.5320
   9323SM  H18F12607   6.130   3.999  14.674  0.0913 -0.8610 -0.2253
   9323SM  H18G12608   6.173   3.823  14.622 -1.9359 -1.3986 -1.5074
   9323SM  C19F12609   6.055   3.851  14.800  0.6529 -0.0119 -0.0625
   9323SM  H19F12610   6.005   3.752  14.804 -1.0940  0.8561  1.0694
   9323SM  H19G12611   5.981   3.927  14.834 -0.2600 -1.7520  2.0548
   9323SM  C20F12612   6.168   3.865  14.905  0.4169 -0.4142 -0.3675
   9323SM  H20F12613   6.117   3.895  14.999 -0.9314 -0.8706 -0.9236
   9323SM  H20G12614   6.233   3.948  14.869  4.3484 -2.7072  0.8281
   9323SM  C21F12615   6.259   3.744  14.914  0.1488  0.1466  0.1624
   9323SM  H21F12616   6.292   3.720  14.811 -0.1576  0.7551 -0.0790
   9323SM  H21G12617   6.211   3.649  14.948  0.9133 -0.4503 -0.3950
   9323SM  C22F12618   6.381   3.773  14.996 -0.4329  0.6876 -0.0693
   9323SM  H22F12619   6.359   3.754  15.103 -1.9364 -1.1280 -0.6556
   9323SM  H22G12620   6.411   3.880  14.989  0.9064  0.2453 -1.5245
   9323SM  C23F12621   6.499   3.687  14.956  0.3462  0.0608 -0.1850
   9323SM  H23F12622   6.468   3.580  14.959  0.1109  0.1163 -0.5829
   9323SM  H23G12623   6.595   3.695  15.012  0.5304 -1.4232 -0.2287
   9323SM  H23H12624   6.519   3.693  14.846 -1.6714 -0.5928 -0.6233
   9423SM     N12625   5.240   6.973  12.552 -0.4790 -0.5059 -0.1752
   9423SM   C1512626   5.173   6.997  12.427  0.2606 -0.9368 -0.3383
   9423SM  H15A12627   5.232   7.056  12.359 -0.4053 -0.2515 -0.3265
   9423SM  H15B12628   5.083   7.055  12.437  0.6853  0.7547 -4.3328
   9423SM  H15C12629   5.150   6.901  12.381 -1.0264 -1.2969  0.9859
   9423SM   C1412630   5.280   7.105  12.618 -0.3939  0.3516  0.4932
   9423SM  H14A12631   5.355   7.149  12.554 -0.7335 -0.2250 -0.3247
   9423SM  H14B12632   5.321   7.088  12.716  0.0293 -1.6208  0.0354
   9423SM  H14C12633   5.191   7.166  12.615 -1.9188 -1.7583 -1.6632
   9423SM   C1312634   5.139   6.911  12.644 -0.8406 -0.5740  0.4897
   9423SM  H13A12635   5.102   6.813  12.617 -0.0647 -0.4031 -1.2924
   9423SM  H13B12636   5.048   6.969  12.657  0.0425  0.9079  0.3030
   9423SM  H13C12637   5.182   6.908  12.743  0.7037  1.3204 -0.0532
   9423SM   C1212638   5.362   6.888  12.541 -0.2871  0.8707  0.5972
   9423SM  H12A12639   5.405   6.873  12.639 -1.6407  0.3453  1.1269
   9423SM  H12B12640   5.442   6.941  12.491  0.9955 -1.1686  0.3853
   9423SM   C1112641   5.350   6.752  12.466 -0.8557 -0.5100 -0.0312
   9423SM  H11A12642   5.448   6.701  12.453  0.2217  1.1538  1.1959
   9423SM  H11B12643   5.306   6.774  12.367 -0.6979  0.4638  0.1070
   9423SM     P12644   5.284   6.528  12.586 -0.5062  0.0259 -0.1982
   9423SM   O1312645   5.157   6.463  12.636 -0.6798  0.3711  0.2572
   9423SM   O1412646   5.351   6.450  12.484 -0.0667  0.1538 -0.2848
   9423SM   O1112647   5.388   6.547  12.702  0.2173 -0.4400  0.1602
   9423SM   O1212648   5.259   6.672  12.532  0.7686 -0.3915  0.1740
   9423SM   C1S12649   5.342   6.587  12.833 -0.2029 -0.4248  0.0586
   9423SM   H1S12650   5.235   6.614  12.826 -0.1815 -0.7936 -4.6489
   9423SM   H1T12651   5.392   6.684  12.855 -2.1217  0.6628 -0.1678
   9423SM    NF12652   5.349   6.534  13.070  0.0735 -0.4526 -0.2824
   9423SM   HNF12653   5.427   6.574  13.119  1.0965 -0.7166 -1.6528
   9423SM   C2S12654   5.371   6.479  12.939 -0.3865  0.3757  0.4268
   9423SM   H2S12655   5.301   6.393  12.928  0.0521  0.2107 -1.5372
   9423SM   C3S12656   5.524   6.423  12.920  0.0676 -0.3534 -0.4814
   9423SM   H3S12657   5.591   6.511  12.925 -1.3804  0.8792 -1.8294
   9423SM    O312658   5.557   6.360  12.797  0.2282 -1.0550  0.4458
   9423SM   HO312659   5.477   6.384  12.750  0.2417 -2.1643 -0.1737
   9423SM   C4S12660   5.537   6.321  13.029  0.1817  1.1339 -0.0909
   9423SM   H4S12661   5.456   6.246  13.032  0.1981  1.1500  0.8420
   9423SM   C5S12662   5.627   6.320  13.124  0.3694 -0.8128  0.1293
   9423SM   H5S12663   5.703   6.398  13.140 -1.5757  1.0196  0.8781
   9423SM   C6S12664   5.620   6.212  13.227  0.0108  0.8363  0.0978
   9423SM   H6S12665   5.725   6.198  13.260  0.5825  1.0572 -1.5081
   9423SM   H6T12666   5.597   6.109  13.192 -0.0889  0.2687  1.7382
   9423SM   C7S12667   5.523   6.237  13.349 -0.1489 -0.7192 -0.6162
   9423SM   H7S12668   5.418   6.242  13.314  0.3069 -1.8011 -2.2868
   9423SM   H7T12669   5.550   6.329  13.405  1.3303 -1.8025  0.5242
   9423SM   C8S12670   5.522   6.126  13.451  0.0328  0.0581 -0.4601
   9423SM   H8S12671   5.621   6.074  13.448 -1.1763 -2.3407 -1.3192
   9423SM   H8T12672   5.456   6.045  13.412  0.7480 -0.7203 -0.1027
   9423SM   C9S12673   5.496   6.163  13.597 -0.6002 -0.5243  0.2085
   9423SM   H9S12674   5.391   6.198  13.605 -0.0646  1.7603 -1.8184
   9423SM   H9T12675   5.569   6.242  13.625  0.8887 -2.1668  1.2284
   9423SM  C10S12676   5.529   6.044  13.687 -0.1596 -0.3578  0.4414
   9423SM  H10S12677   5.623   5.988  13.667 -1.2144 -2.8235  1.8688
   9423SM  H10T12678   5.452   5.965  13.675  2.6834 -3.1162 -1.2889
   9423SM  C11S12679   5.532   6.081  13.834 -0.4200  0.1249 -0.4275
   9423SM  H11S12680   5.430   6.121  13.854 -0.4781 -0.2009 -0.0479
   9423SM  H11T12681   5.598   6.169  13.852 -0.5976  0.1759  0.0024
   9423SM  C12S12682   5.560   5.960  13.925  0.1216 -0.1982 -0.9097
   9423SM  H12S12683   5.659   5.920  13.897  1.8210  2.2995  1.0075
   9423SM  H12T12684   5.485   5.879  13.910 -1.1247  0.8007 -0.2951
   9423SM  C13S12685   5.559   5.993  14.084  0.3347  0.0588  0.1418
   9423SM  H13S12686   5.451   6.015  14.102  0.0019  1.6522 -2.9954
   9423SM  H13T12687   5.616   6.086  14.100 -1.8187  1.1232  2.3792
   9423SM  C14S12688   5.613   5.868  14.148  0.5047  0.0220 -0.3953
   9423SM  H14S12689   5.723   5.877  14.139  0.5744 -0.3171  0.0948
   9423SM  H14T12690   5.587   5.773  14.096 -0.8033 -0.5542  1.2194
   9423SM  C15S12691   5.564   5.863  14.297 -0.7565  0.5650  0.2807
   9423SM  H15S12692   5.455   5.846  14.281 -0.9762  1.1642  1.0855
   9423SM  H15T12693   5.567   5.959  14.354 -0.9254 -0.1491  1.5092
   9423SM  C16S12694   5.623   5.750  14.373 -0.6548 -0.1458  0.2739
   9423SM  H16S12695   5.609   5.665  14.303 -0.2190  1.1453 -1.4363
   9423SM  H16T12696   5.567   5.731  14.467 -0.0243 -1.6477  0.3713
   9423SM  C17S12697   5.774   5.761  14.405  0.0240  0.8317  0.4095
   9423SM  H17S12698   5.836   5.757  14.313  0.3926 -0.6048  0.6936
   9423SM  H17T12699   5.800   5.667  14.458 -0.8244 -0.0581 -0.7092
   9423SM  C18S12700   5.809   5.876  14.497 -0.4614 -0.2272 -0.1085
   9423SM  H18S12701   5.761   5.856  14.595 -0.6444 -0.6756 -0.2872
   9423SM  H18T12702   5.782   5.980  14.467  0.2013 -0.7480 -2.7493
   9423SM  H18U12703   5.916   5.876  14.527 -0.3837  1.1714 -0.3254
   9423SM   C1F12704   5.229   6.569  13.110  0.0946 -0.0215 -0.3262
   9423SM    OF12705   5.134   6.534  13.037  0.0414 -0.0715 -0.1705
   9423SM   C2F12706   5.217   6.643  13.245  0.3228 -0.2891  1.0503
   9423SM   H2F12707   5.225   6.751  13.219  0.3533 -0.1673  1.5522
   9423SM   H2G12708   5.304   6.620  13.310  1.0353 -0.0497  0.2043
   9423SM   C3F12709   5.075   6.626  13.303  0.4388 -0.1545  0.2771
   9423SM   H3F12710   4.997   6.659  13.231 -1.8944 -0.4553  2.5270
   9423SM   H3G12711   5.072   6.704  13.383  1.1530 -0.9512  1.1015
   9423SM   C4F12712   5.051   6.490  13.369 -0.3908 -0.1745 -0.9520
   9423SM   H4F12713   5.086   6.415  13.295 -1.0394  0.5758 -2.0415
   9423SM   H4G12714   4.946   6.483  13.406  0.7850 -2.0813  2.4756
   9423SM   C5F12715   5.142   6.485  13.499  0.0815  0.1542 -0.0014
   9423SM   H5F12716   5.122   6.576  13.560 -2.4433 -0.9354  0.9214
   9423SM   H5G12717   5.250   6.484  13.472 -0.2026 -0.1923 -1.1656
   9423SM   C6F12718   5.110   6.361  13.589 -0.3357 -0.1508 -0.1742
   9423SM   H6F12719   5.110   6.261  13.539 -0.1072 -0.8424  1.1699
   9423SM   H6G12720   5.001   6.365  13.612 -0.3775  2.4504 -0.5269
   9423SM   C7F12721   5.196   6.366  13.715  0.4987 -0.2987  0.3915
   9423SM   H7F12722   5.296   6.414  13.709  1.1713 -0.5981  5.1631
   9423SM   H7G12723   5.226   6.261  13.734  2.7881 -0.0491 -1.3527
   9423SM   C8F12724   5.119   6.429  13.831 -0.2511  0.0023 -0.0232
   9423SM   H8F12725   5.022   6.376  13.843  0.1390 -0.6959  0.0949
   9423SM   H8G12726   5.096   6.534  13.801 -0.8297  0.3689  1.5967
   9423SM   C9F12727   5.185   6.420  13.972  0.2525 -0.4831 -0.1589
   9423SM   H9F12728   5.110   6.459  14.044  0.5872  0.0516 -0.0989
   9423SM   H9G12729   5.276   6.483  13.976 -0.4546  0.5683 -0.3980
   9423SM  C10F12730   5.224   6.274  14.022  0.1583 -0.7569 -0.1480
   9423SM  H10F12731   5.264   6.287  14.125  4.3014  1.7218 -1.8125
   9423SM  H10G12732   5.310   6.250  13.957 -0.0348  1.2842 -1.2408
   9423SM  C11F12733   5.108   6.179  14.015  0.4423  0.1731  0.4653
   9423SM  H11F12734   5.033   6.202  13.937 -0.7754  2.7394  2.2475
   9423SM  H11G12735   5.056   6.183  14.113 -0.1677  1.1789  0.1179
   9423SM  C12F12736   5.156   6.031  13.992 -0.8863 -0.1815 -0.1261
   9423SM  H12F12737   5.237   6.026  14.068 -1.3934  1.5305  0.5911
   9423SM  H12G12738   5.204   6.026  13.892 -0.5528 -0.4640  0.0456
   9423SM  C13F12739   5.057   5.918  14.016 -0.0070  0.5157  0.5976
   9423SM  H13F12740   5.113   5.829  13.978  2.0252  1.6862  0.6913
   9423SM  H13G12741   4.966   5.928  13.954 -0.6100  0.0615  1.3828
   9423SM  C14F12742   5.017   5.887  14.164 -0.8238  0.5046  0.5736
   9423SM  H14F12743   4.959   5.792  14.158 -2.7420  1.7044 -1.7353
   9423SM  H14G12744   4.945   5.963  14.198 -3.0125 -2.0538  2.0157
   9423SM  C15F12745   5.135   5.880  14.259  0.5702  0.0032  0.6988
   9423SM  H15F12746   5.178   5.982  14.273  2.3942 -0.9012  2.0116
   9423SM  H15G12747   5.210   5.818  14.205  0.8638  1.6490 -0.8949
   9423SM  C16F12748   5.099   5.805  14.384  0.1357 -0.3761  0.3830
   9423SM  H16F12749   5.065   5.703  14.357  1.9896 -0.3516 -2.3492
   9423SM  H16G12750   5.019   5.853  14.445  0.1882  2.4858 -1.6471
   9423SM  C17F12751   5.227   5.804  14.468 -0.2574 -0.3420 -0.1491
   9423SM  H17F12752   5.279   5.901  14.458 -0.9237 -0.0919 -1.3864
   9423SM  H17G12753   5.288   5.723  14.421  1.4543  1.3386 -0.9407
   9423SM  C18F12754   5.215   5.759  14.618  0.0145 -0.1813  0.2817
   9423SM  H18F12755   5.147   5.671  14.618 -2.9941  1.9924  1.8226
   9423SM  H18G12756   5.174   5.844  14.676  2.7394  1.3267  0.1940
   9423SM  C19F12757   5.349   5.725  14.683  0.7080 -0.1322  0.4975
   9423SM  H19F12758   5.412   5.816  14.698  2.4433 -1.1630 -0.1611
   9423SM  H19G12759   5.402   5.652  14.617 -2.2267 -1.2397 -0.8042
   9423SM  C20F12760   5.321   5.656  14.812  0.3508 -0.4414 -0.0466
   9423SM  H20F12761   5.226   5.599  14.806  1.4642 -2.7229  2.1430
   9423SM  H20G12762   5.311   5.730  14.895  0.2117 -0.0462 -0.4131
   9423SM  C21F12763   5.422   5.551  14.852  0.4926  0.1065  0.0702
   9423SM  H21F12764   5.513   5.614  14.853 -1.2588  2.8232  0.8853
   9423SM  H21G12765   5.413   5.473  14.773 -1.6617  1.4902 -1.1615
   9423SM  C22F12766   5.388   5.494  14.989 -0.1844 -0.1056 -1.1049
   9423SM  H22F12767   5.293   5.437  14.988  0.0403 -0.5287  0.0026
   9423SM  H22G12768   5.367   5.578  15.060  1.9260  0.4577 -1.0863
   9423SM  C23F12769   5.498   5.417  15.055 -0.7908 -0.4257  0.0206
   9423SM  H23F12770   5.456   5.386  15.153 -2.8579  3.5255  0.5973
   9423SM  H23G12771   5.594   5.469  15.079 -1.8290  0.8819  1.5440
   9423SM  H23H12772   5.526   5.332  14.990  2.9786  2.0634 -2.0163
   9523SM     N12773   1.362   1.902  12.431 -0.1598 -0.2859 -0.1984
   9523SM   C1512774   1.456   1.985  12.511  0.3761 -0.0025 -0.0129
   9523SM  H15A12775   1.410   2.026  12.600  0.6406  0.2263  0.0175
   9523SM  H15B12776   1.498   2.062  12.448  1.0430  0.9128  1.4891
   9523SM  H15C12777   1.538   1.922  12.539 -0.3763 -0.9708  0.0737
   9523SM   C1412778   1.265   1.850  12.528  1.0393 -0.4584 -0.2134
   9523SM  H14A12779   1.319   1.797  12.606  1.5351 -0.0588 -0.2834
   9523SM  H14B12780   1.187   1.794  12.479 -1.0888  2.3930 -0.3547
   9523SM  H14C12781   1.216   1.932  12.579 -0.8207 -0.4680 -1.8850
   9523SM   C1312782   1.280   1.990  12.333  0.0309 -0.1727 -0.5565
   9523SM  H13A12783   1.213   2.060  12.380 -0.5401 -1.1991  0.2134
   9523SM  H13B12784   1.222   1.928  12.266 -0.9655  0.4405 -0.2802
   9523SM  H13C12785   1.351   2.052  12.279  0.7502 -0.9860 -0.5713
   9523SM   C1212786   1.455   1.793  12.359 -0.0599  0.3173 -0.1736
   9523SM  H12A12787   1.513   1.849  12.287 -2.2047  0.5998 -1.8058
   9523SM  H12B12788   1.393   1.726  12.302 -1.4444  2.0897 -0.8691
   9523SM   C1112789   1.539   1.710  12.454  0.3338  0.4936 -0.0393
   9523SM  H11A12790   1.560   1.606  12.422  2.1396 -0.3773  3.4518
   9523SM  H11B12791   1.482   1.688  12.547  0.3445 -1.4813 -0.4520
   9523SM     P12792   1.750   1.755  12.598 -0.0174  0.0609 -0.2493
   9523SM   O1312793   1.791   1.611  12.599  0.2037  0.3627  0.3577
   9523SM   O1412794   1.856   1.856  12.591  0.1171  0.9763  0.5852
   9523SM   O1112795   1.658   1.787  12.721  0.3123  0.8379 -0.3833
   9523SM   O1212796   1.652   1.785  12.482 -0.2338 -0.2545 -0.2573
   9523SM   C1S12797   1.646   1.684  12.825 -0.0885 -0.1316  0.0875
   9523SM   H1S12798   1.744   1.635  12.841  0.6046  1.4346  0.9268
   9523SM   H1T12799   1.567   1.609  12.801 -0.8247  0.1258  1.5845
   9523SM    NF12800   1.604   1.665  13.073  0.1462  0.2301  0.3414
   9523SM   HNF12801   1.526   1.611  13.104  0.3475 -1.6732 -2.1761
   9523SM   C2S12802   1.584   1.748  12.952 -0.3197  0.0587  0.4494
   9523SM   H2S12803   1.640   1.843  12.970 -0.4305  0.4707 -1.1817
   9523SM   C3S12804   1.431   1.768  12.926 -0.1378 -0.1682 -0.5984
   9523SM   H3S12805   1.379   1.672  12.905  0.5306 -0.4674 -0.9165
   9523SM    O312806   1.409   1.853  12.816 -0.1613  0.0646  0.0310
   9523SM   HO312807   1.491   1.836  12.768  0.0778  1.4339 -0.0788
   9523SM   C4S12808   1.373   1.834  13.044 -0.3572 -0.0895  0.5470
   9523SM   H4S12809   1.399   1.939  13.062 -0.1379 -0.2533  1.2024
   9523SM   C5S12810   1.288   1.772  13.135  0.6492 -0.1512  0.4241
   9523SM   H5S12811   1.270   1.666  13.112 -0.1395 -0.4926  2.4061
   9523SM   C6S12812   1.217   1.820  13.254  0.5157 -0.6689  0.1333
   9523SM   H6S12813   1.113   1.783  13.249  0.1891  0.0669  1.2150
   9523SM   H6T12814   1.218   1.931  13.247  0.8282 -0.6588  0.2927
   9523SM   C7S12815   1.280   1.774  13.384 -0.0857  0.1988 -0.2722
   9523SM   H7S12816   1.382   1.817  13.381  0.4092 -1.0064 -2.0695
   9523SM   H7T12817   1.287   1.663  13.393  3.6932  0.0133 -3.2808
   9523SM   C8S12818   1.214   1.836  13.506  0.4624 -0.6347 -0.3990
   9523SM   H8S12819   1.104   1.821  13.494  0.6524 -1.9710 -0.6359
   9523SM   H8T12820   1.228   1.946  13.504 -2.5265 -0.1544 -0.1423
   9523SM   C9S12821   1.276   1.788  13.636  0.2488 -0.1259 -0.8496
   9523SM   H9S12822   1.386   1.792  13.626  0.3040  3.2935 -0.3189
   9523SM   H9T12823   1.235   1.689  13.664 -1.3269  0.3281 -1.4059
   9523SM  C10S12824   1.245   1.878  13.764  0.5336  0.3916 -0.3623
   9523SM  H10S12825   1.137   1.872  13.788  0.2798  1.0787 -1.2919
   9523SM  H10T12826   1.266   1.983  13.735  0.6068  0.9205  1.5066
   9523SM  C11S12827   1.325   1.865  13.890 -0.7036 -0.1562  0.1080
   9523SM  H11S12828   1.430   1.894  13.869 -1.6890  1.9623 -2.4818
   9523SM  H11T12829   1.333   1.759  13.922  0.4009 -0.6528 -1.6998
   9523SM  C12S12830   1.285   1.964  14.002  0.1346  0.3451  0.0512
   9523SM  H12S12831   1.176   1.950  14.018  0.0326 -0.2565 -1.0389
   9523SM  H12T12832   1.300   2.065  13.957  0.8009  1.0024  1.6602
   9523SM  C13S12833   1.368   1.950  14.139  0.3441  0.5646  0.2156
   9523SM  H13S12834   1.470   1.928  14.102 -0.3848  1.4400 -2.5065
   9523SM  H13T12835   1.330   1.861  14.194 -2.3259  0.6768 -1.2829
   9523SM  C14S12836   1.344   2.068  14.238  0.1178 -0.1798 -0.1081
   9523SM  H14S12837   1.250   2.068  14.297 -0.4070 -2.1066 -0.8657
   9523SM  H14T12838   1.334   2.156  14.170 -1.5152 -0.7089 -0.6105
   9523SM  C15S12839   1.464   2.084  14.330 -0.3037  0.8018  0.0987
   9523SM  H15S12840   1.548   2.130  14.274  0.7111 -1.0842 -0.0200
   9523SM  H15T12841   1.492   1.982  14.365 -2.9163 -0.3758 -1.0237
   9523SM  C16S12842   1.429   2.173  14.446  1.3578  0.1624  0.5980
   9523SM  H16S12843   1.339   2.130  14.495  1.3938  0.1952  0.6917
   9523SM  H16T12844   1.388   2.265  14.398 -0.2146 -0.5599  0.4691
   9523SM  C17S12845   1.530   2.186  14.559  0.5305  0.3313  0.5380
   9523SM  H17S12846   1.483   2.245  14.641 -1.3715  1.4803 -1.2496
   9523SM  H17T12847   1.618   2.248  14.530  0.6183  0.6704  1.5170
   9523SM  C18S12848   1.575   2.055  14.624 -0.3765 -0.0878 -0.0771
   9523SM  H18S12849   1.481   2.009  14.661 -0.2322 -0.0605  0.3277
   9523SM  H18T12850   1.651   2.062  14.705  0.8416  1.4393 -1.2901
   9523SM  H18U12851   1.627   2.004  14.540 -0.1764 -1.5037  0.8605
   9523SM   C1F12852   1.729   1.646  13.120 -0.0072 -0.8737  0.2466
   9523SM    OF12853   1.831   1.702  13.074  0.5387  0.2685 -0.5128
   9523SM   C2F12854   1.741   1.548  13.235  0.0051 -0.2504 -0.2179
   9523SM   H2F12855   1.846   1.547  13.273  0.2439  0.6970 -0.8056
   9523SM   H2G12856   1.715   1.449  13.192  0.2298 -0.3162 -0.2058
   9523SM   C3F12857   1.653   1.592  13.360  0.3276 -0.0977  0.6352
   9523SM   H3F12858   1.549   1.594  13.320 -0.5074 -0.4274  2.6822
   9523SM   H3G12859   1.681   1.694  13.395  0.8442 -0.4136  1.1677
   9523SM   C4F12860   1.645   1.481  13.464  0.0095  0.7814  0.3037
   9523SM   H4F12861   1.745   1.439  13.486 -0.6893 -2.1314 -1.4829
   9523SM   H4G12862   1.571   1.409  13.422  1.7181 -1.2217  0.5591
   9523SM   C5F12863   1.588   1.547  13.586  0.1513 -0.4169  0.2020
   9523SM   H5F12864   1.504   1.614  13.557  0.3803  1.1572  2.8276
   9523SM   H5G12865   1.663   1.616  13.631  0.3078 -0.0971 -0.5361
   9523SM   C6F12866   1.544   1.440  13.688 -0.0640  0.4351  0.1777
   9523SM   H6F12867   1.633   1.408  13.747 -0.2899 -1.7396 -0.5746
   9523SM   H6G12868   1.508   1.346  13.640  0.4635 -0.5454  1.6148
   9523SM   C7F12869   1.421   1.500  13.767  0.3258 -0.0125  0.6008
   9523SM   H7F12870   1.324   1.505  13.713 -0.0792 -1.3303  1.1593
   9523SM   H7G12871   1.453   1.604  13.788  1.8735 -0.4807  0.6905
   9523SM   C8F12872   1.392   1.424  13.893  0.2071  0.1320 -0.2815
   9523SM   H8F12873   1.468   1.446  13.971 -0.0922 -1.3701  0.4784
   9523SM   H8G12874   1.388   1.313  13.887  1.8205 -0.1271  1.9984
   9523SM   C9F12875   1.250   1.451  13.945 -0.0112 -0.4658  0.3266
   9523SM   H9F12876   1.169   1.423  13.874 -0.1595 -0.5577  0.5330
   9523SM   H9G12877   1.243   1.560  13.969  1.8626 -0.3082  0.3306
   9523SM  C10F12878   1.213   1.357  14.065  0.4206  0.0474 -0.0894
   9523SM  H10F12879   1.292   1.364  14.142 -1.1882  0.3507  1.5898
   9523SM  H10G12880   1.209   1.254  14.025 -0.8323  0.5125 -1.2400
   9523SM  C11F12881   1.094   1.411  14.145  0.6219  0.1673  0.2096
   9523SM  H11F12882   1.065   1.332  14.217  0.9201 -0.0910  0.0466
   9523SM  H11G12883   1.020   1.430  14.065 -0.9136 -2.3981  0.9138
   9523SM  C12F12884   1.125   1.543  14.224  0.3184  0.1090 -0.1916
   9523SM  H12F12885   1.178   1.619  14.163  2.5034  0.9921  2.5857
   9523SM  H12G12886   1.206   1.512  14.293 -1.0102 -2.7407  0.2490
   9523SM  C13F12887   1.001   1.601  14.291  0.3136 -0.4629 -0.0354
   9523SM  H13F12888   0.940   1.535  14.356 -1.2719 -0.2735 -1.2654
   9523SM  H13G12889   0.933   1.649  14.217 -1.1815  0.6259  1.9378
   9523SM  C14F12890   1.030   1.723  14.386  0.0116 -0.1042  1.0110
   9523SM  H14F12891   1.075   1.800  14.319 -1.7669  0.7643  0.7699
   9523SM  H14G12892   1.118   1.705  14.452  0.9046 -3.6677 -0.9034
   9523SM  C15F12893   0.901   1.780  14.452  0.6652  0.4112  0.4806
   9523SM  H15F12894   0.880   1.722  14.544  2.1785 -1.5664 -0.3287
   9523SM  H15G12895   0.818   1.762  14.380  0.8799  2.4976 -0.3739
   9523SM  C16F12896   0.899   1.927  14.474  1.1602 -0.1762  0.2934
   9523SM  H16F12897   0.795   1.949  14.504 -0.0478 -1.1623 -2.7433
   9523SM  H16G12898   0.908   1.967  14.371  1.0833 -0.9781 -0.0381
   9523SM  C17F12899   1.009   1.978  14.575  0.1522 -0.1607  0.0277
   9523SM  H17F12900   1.104   1.947  14.525 -1.2255 -2.7899 -1.1520
   9523SM  H17G12901   0.994   1.932  14.675 -0.4472  0.5925  0.2863
   9523SM  C18F12902   1.007   2.124  14.594  0.0782  0.6302  0.4098
   9523SM  H18F12903   0.903   2.152  14.623 -0.6362 -1.1167 -0.3255
   9523SM  H18G12904   1.041   2.180  14.504  2.3558 -2.0218 -0.5276
   9523SM  C19F12905   1.123   2.160  14.693 -1.1380  0.0890  0.1716
   9523SM  H19F12906   1.215   2.108  14.660 -1.2966 -1.0755  1.4749
   9523SM  H19G12907   1.097   2.110  14.789  0.7044  1.4166  1.4231
   9523SM  C20F12908   1.138   2.315  14.701  0.0779  0.0665  0.0155
   9523SM  H20F12909   1.044   2.366  14.733  1.4529  2.6690  0.1812
   9523SM  H20G12910   1.164   2.344  14.597 -0.0156 -2.6779 -0.8508
   9523SM  C21F12911   1.249   2.355  14.800  0.4903 -0.0749 -0.1053
   9523SM  H21F12912   1.345   2.303  14.778  0.6587  0.8043 -1.6249
   9523SM  H21G12913   1.213   2.329  14.902  0.1746  1.4955  0.2202
   9523SM  C22F12914   1.288   2.504  14.793 -0.1999  0.0124 -0.4134
   9523SM  H22F12915   1.195   2.564  14.807 -0.9997 -1.2333 -0.2065
   9523SM  H22G12916   1.329   2.523  14.691  0.5969 -1.4509 -0.3966
   9523SM  C23F12917   1.382   2.546  14.898 -0.1033 -0.2575 -0.7199
   9523SM  H23F12918   1.479   2.495  14.883  0.3778  0.9909 -2.1024
   9523SM  H23G12919   1.334   2.527  14.996 -1.3531  0.3299 -1.1921
   9523SM  H23H12920   1.395   2.656  14.885 -0.5585 -0.0537  0.4623
   9623SM     N12921   2.590   7.403  12.520 -0.2706  0.2615  0.5278
   9623SM   C1512922   2.617   7.265  12.459 -0.6626  0.0499 -0.2662
   9623SM  H15A12923   2.584   7.276  12.357  3.1499 -0.8714 -1.7685
   9623SM  H15B12924   2.549   7.194  12.505 -0.6664 -0.0579 -0.4382
   9623SM  H15C12925   2.718   7.228  12.467 -1.0578 -0.7933  1.2284
   9623SM   C1412926   2.451   7.430  12.514  0.0877  0.3751 -0.3607
   9623SM  H14A12927   2.419   7.418  12.412  0.8234 -0.2316 -0.5257
   9623SM  H14B12928   2.432   7.535  12.536 -2.2091  0.2123 -1.2859
   9623SM  H14C12929   2.384   7.370  12.573 -0.1731  2.3834  1.5467
   9623SM   C1312930   2.639   7.401  12.660 -0.4023 -0.7872 -0.4848
   9623SM  H13A12931   2.743   7.380  12.676 -0.3912  0.0574  0.6984
   9623SM  H13B12932   2.589   7.328  12.723  1.4890 -0.3793  1.6005
   9623SM  H13C12933   2.616   7.500  12.698 -0.4879 -1.1749  0.5220
   9623SM   C1212934   2.669   7.498  12.439 -0.7063 -0.1743 -0.2072
   9623SM  H12A12935   2.629   7.510  12.340 -0.4212  1.0050 -0.1886
   9623SM  H12B12936   2.772   7.466  12.444  0.1193  2.1838 -0.9449
   9623SM   C1112937   2.687   7.645  12.500  0.2387  0.4133 -0.1894
   9623SM  H11A12938   2.754   7.684  12.421 -0.1356 -2.6853 -2.1816
   9623SM  H11B12939   2.735   7.655  12.600 -1.3570  2.1998  0.4638
   9623SM     P12940   2.557   7.862  12.541  0.4988 -0.4401 -0.0720
   9623SM   O1312941   2.655   7.929  12.464 -0.1007  0.2237  0.2710
   9623SM   O1412942   2.411   7.903  12.518 -0.0131  0.3258  0.0346
   9623SM   O1112943   2.588   7.872  12.694  0.0249  0.2188 -0.4549
   9623SM   O1212944   2.560   7.705  12.512 -0.0414 -0.0710  0.6996
   9623SM   C1S12945   2.543   7.761  12.775 -0.2532 -0.6861 -0.2207
   9623SM   H1S12946   2.588   7.663  12.749 -2.8255 -1.4466 -2.2245
   9623SM   H1T12947   2.434   7.746  12.762  0.0536 -1.2639 -2.5938
   9623SM    NF12948   2.539   7.681  13.012 -0.1469  0.1782  0.8270
   9623SM   HNF12949   2.465   7.685  13.078  0.5173  2.1600  1.5334
   9623SM   C2S12950   2.577   7.790  12.923 -0.0392 -0.5017  0.2517
   9623SM   H2S12951   2.688   7.800  12.922 -0.0536 -0.1839 -1.6963
   9623SM   C3S12952   2.515   7.917  12.973 -0.4187  0.5200  0.3294
   9623SM   H3S12953   2.406   7.899  12.960  0.0238 -0.5291 -2.9314
   9623SM    O312954   2.547   8.031  12.896  0.4864  0.3236  0.1064
   9623SM   HO312955   2.577   7.991  12.813  0.7298 -1.0686  0.8301
   9623SM   C4S12956   2.550   7.937  13.123 -0.3369 -0.3591  0.3356
   9623SM   H4S12957   2.470   7.901  13.189  0.0247 -1.0940  0.3888
   9623SM   C5S12958   2.670   7.988  13.169  0.2842  0.6561  0.3628
   9623SM   H5S12959   2.750   8.005  13.096  1.7195  1.0086  1.9635
   9623SM   C6S12960   2.703   8.010  13.317  0.1935  0.3091 -0.1688
   9623SM   H6S12961   2.728   8.118  13.323  0.1141  0.4873 -2.2421
   9623SM   H6T12962   2.801   7.959  13.325 -0.1142 -0.0935  1.4489
   9623SM   C7S12963   2.619   7.948  13.422 -0.4723  0.2654  1.0832
   9623SM   H7S12964   2.591   7.843  13.401 -0.8221  0.4045  0.8345
   9623SM   H7T12965   2.523   8.005  13.423 -0.2212  0.8301 -1.0087
   9623SM   C8S12966   2.692   7.958  13.556  0.2612  0.3541  0.4143
   9623SM   H8S12967   2.787   7.900  13.558  0.9848  1.4999  0.5575
   9623SM   H8T12968   2.639   7.910  13.641 -0.4767 -1.5036 -1.0128
   9623SM   C9S12969   2.730   8.100  13.604  0.1260  0.3556  0.5522
   9623SM   H9S12970   2.634   8.155  13.603 -0.0416  0.0686 -0.7738
   9623SM   H9T12971   2.804   8.154  13.542  0.8331 -2.1895 -0.9678
   9623SM  C10S12972   2.779   8.124  13.747 -0.2044  0.0024  0.2309
   9623SM  H10S12973   2.707   8.066  13.808 -1.3266  0.1371 -0.9221
   9623SM  H10T12974   2.763   8.228  13.781  1.9043 -0.1682  1.9286
   9623SM  C11S12975   2.932   8.095  13.767  0.1188 -0.1991 -0.0133
   9623SM  H11S12976   2.984   8.171  13.705  0.7241  0.4156  1.2154
   9623SM  H11T12977   2.968   7.998  13.727  0.0700  0.3981 -1.5807
   9623SM  C12S12978   2.974   8.138  13.911  0.3035  0.2917 -0.4890
   9623SM  H12S12979   2.936   8.075  13.994  2.0116 -0.2664 -0.1040
   9623SM  H12T12980   2.925   8.235  13.935 -2.5711 -1.4832  1.5491
   9623SM  C13S12981   3.129   8.142  13.926 -0.0504 -0.2254 -0.3414
   9623SM  H13S12982   3.173   8.211  13.851 -0.4480 -0.9874 -1.3132
   9623SM  H13T12983   3.163   8.039  13.901 -2.5375 -1.3209  0.4398
   9623SM  C14S12984   3.171   8.170  14.066 -0.1479 -0.1298  0.6792
   9623SM  H14S12985   3.148   8.085  14.134 -1.1640 -0.0582  0.4292
   9623SM  H14T12986   3.111   8.254  14.108 -0.6409 -0.3327  0.3809
   9623SM  C15S12987   3.325   8.196  14.080  0.5028  0.6903 -0.1499
   9623SM  H15S12988   3.357   8.288  14.027  0.0139  0.3556 -1.0506
   9623SM  H15T12989   3.375   8.109  14.031 -1.2122 -2.0679  2.6226
   9623SM  C16S12990   3.362   8.210  14.226 -0.0522 -0.2186 -1.1088
   9623SM  H16S12991   3.380   8.107  14.264  1.9605  0.8353  1.0588
   9623SM  H16T12992   3.283   8.259  14.287 -0.1804  1.1472 -2.3100
   9623SM  C17S12993   3.502   8.287  14.231 -0.0756 -0.1532 -0.1026
   9623SM  H17S12994   3.514   8.342  14.327  0.2240  1.8681 -1.2265
   9623SM  H17T12995   3.499   8.372  14.159 -0.5473 -0.3064 -0.2705
   9623SM  C18S12996   3.615   8.192  14.203  0.1607 -0.5614  0.0429
   9623SM  H18S12997   3.613   8.099  14.264  3.6423 -0.3876  0.6443
   9623SM  H18T12998   3.714   8.239  14.224 -0.6479  1.5864 -0.6675
   9623SM  H18U12999   3.621   8.166  14.096  1.5941 -1.6603  0.3510
   9623SM   C1F13000   2.605   7.566  13.010 -0.1228 -0.5540 -0.1490
   9623SM    OF13001   2.700   7.548  12.933  0.1972 -0.1612  0.0122
   9623SM   C2F13002   2.560   7.457  13.103  0.0928  0.2495  0.3414
   9623SM   H2F13003   2.587   7.364  13.049 -2.2531  0.2798 -1.0452
   9623SM   H2G13004   2.449   7.452  13.106  0.0274 -2.5744 -1.9012
   9623SM   C3F13005   2.621   7.469  13.243 -0.5462 -0.7626  0.0669
   9623SM   H3F13006   2.590   7.395  13.321  2.1713  0.3134  2.3311
   9623SM   H3G13007   2.597   7.570  13.282  0.2277 -0.3915 -0.4105
   9623SM   C4F13008   2.776   7.470  13.247  0.3114 -0.0528 -0.3297
   9623SM   H4F13009   2.823   7.551  13.187  0.3144 -1.3660 -2.1732
   9623SM   H4G13010   2.812   7.379  13.195 -1.0060 -0.6566 -0.2192
   9623SM   C5F13011   2.838   7.457  13.387  0.1329 -0.2377  0.9107
   9623SM   H5F13012   2.943   7.423  13.383 -0.0011 -0.6018 -1.3992
   9623SM   H5G13013   2.772   7.386  13.441 -0.0862  0.1568  1.1648
   9623SM   C6F13014   2.844   7.594  13.459  0.0453 -0.4104  0.0610
   9623SM   H6F13015   2.751   7.645  13.425  0.0689  0.1583  0.8325
   9623SM   H6G13016   2.939   7.645  13.434  0.8952 -1.6672  0.5994
   9623SM   C7F13017   2.847   7.575  13.615  0.5991  0.4184 -0.4581
   9623SM   H7F13018   2.751   7.537  13.657  0.1790  2.7595  0.8972
   9623SM   H7G13019   2.865   7.679  13.652  1.4631  0.1647 -0.1218
   9623SM   C8F13020   2.971   7.489  13.650  0.3416 -0.0132 -0.7694
   9623SM   H8F13021   3.055   7.514  13.582 -0.4954  1.8734 -1.1769
   9623SM   H8G13022   2.941   7.384  13.633 -0.5501  0.3286 -1.4087
   9623SM   C9F13023   3.011   7.507  13.798 -0.5777  0.5414  0.0831
   9623SM   H9F13024   3.062   7.605  13.808 -0.9992  0.9764 -1.6821
   9623SM   H9G13025   3.087   7.427  13.808 -0.9046 -0.0630 -1.8852
   9623SM  C10F13026   2.902   7.482  13.901  0.1126  0.1656 -0.1232
   9623SM  H10F13027   2.855   7.384  13.877  0.6969 -0.1299 -0.0932
   9623SM  H10G13028   2.832   7.567  13.890 -2.2797 -1.6688  0.0784
   9623SM  C11F13029   2.948   7.481  14.048 -0.4962  0.8061  0.0393
   9623SM  H11F13030   3.011   7.391  14.066  0.4612  1.5300  0.3240
   9623SM  H11G13031   2.863   7.466  14.118 -0.7861 -0.8570 -0.6188
   9623SM  C12F13032   3.019   7.613  14.080  0.4578 -0.1307 -0.2859
   9623SM  H12F13033   2.956   7.691  14.032  0.7411  1.9936  2.5292
   9623SM  H12G13034   3.125   7.621  14.049  0.7704 -0.1168  0.7561
   9623SM  C13F13035   3.018   7.649  14.230  0.0736  0.0160 -0.5825
   9623SM  H13F13036   2.914   7.631  14.263 -0.2439 -1.2501 -2.1155
   9623SM  H13G13037   3.042   7.757  14.238  0.6757 -0.0653 -1.1244
   9623SM  C14F13038   3.101   7.548  14.313  0.0798 -0.3202 -0.0213
   9623SM  H14F13039   3.172   7.503  14.242  1.7488  0.8763  0.8199
   9623SM  H14G13040   3.028   7.475  14.354 -0.6127  0.7885  0.8125
   9623SM  C15F13041   3.183   7.613  14.427 -0.2335 -0.7841 -0.0953
   9623SM  H15F13042   3.212   7.530  14.494 -1.1224  0.2396  1.6147
   9623SM  H15G13043   3.116   7.677  14.488  1.7712  1.4381 -0.0862
   9623SM  C16F13044   3.305   7.700  14.383  0.2723 -0.1632 -0.0494
   9623SM  H16F13045   3.268   7.780  14.316 -1.0710  0.1616  1.0325
   9623SM  H16G13046   3.361   7.620  14.330 -1.4054 -1.6418  0.3265
   9623SM  C17F13047   3.383   7.758  14.494  0.0097  0.0850  0.0509
   9623SM  H17F13048   3.423   7.679  14.562 -0.4397 -0.4480 -0.2977
   9623SM  H17G13049   3.314   7.827  14.548 -0.5680  0.6293 -1.3328
   9623SM  C18F13050   3.496   7.846  14.443 -0.1261  1.1075  0.2306
   9623SM  H18F13051   3.455   7.927  14.379 -0.9556 -0.7393 -1.6692
   9623SM  H18G13052   3.565   7.785  14.381 -0.4253  0.3030  0.6791
   9623SM  C19F13053   3.577   7.907  14.552 -0.1845  0.5081 -0.1527
   9623SM  H19F13054   3.666   7.964  14.518  0.9682 -1.4848 -0.5905
   9623SM  H19G13055   3.610   7.837  14.631 -1.0084 -0.4690 -0.6505
   9623SM  C20F13056   3.497   8.016  14.627  1.0206 -0.5557 -0.4028
   9623SM  H20F13057   3.555   8.032  14.721  2.7818 -0.2446 -1.4930
   9623SM  H20G13058   3.392   7.987  14.648 -0.4244  1.3670 -4.1048
   9623SM  C21F13059   3.480   8.151  14.560 -0.0881  0.2474  0.2042
   9623SM  H21F13060   3.440   8.131  14.459  0.8913  0.2760 -0.2008
   9623SM  H21G13061   3.579   8.190  14.529  0.7754 -2.1394 -0.2184
   9623SM  C22F13062   3.377   8.245  14.630 -0.7917 -0.0859 -0.6541
   9623SM  H22F13063   3.396   8.253  14.739  2.6349 -1.6902 -1.0199
   9623SM  H22G13064   3.274   8.204  14.620  0.2751 -2.4093 -4.0191
   9623SM  C23F13065   3.369   8.380  14.565  0.4064  0.3040 -0.1443
   9623SM  H23F13066   3.328   8.454  14.637 -1.1041 -2.4105  1.9417
   9623SM  H23G13067   3.288   8.370  14.489 -1.2704 -1.2619  1.7156
   9623SM  H23H13068   3.460   8.420  14.515  0.8274  0.1546  0.4983
   9723SM     N13069   3.827   0.242  12.349  0.0343 -0.0119  0.5510
   9723SM   C1513070   3.729   0.353  12.373 -0.0214  0.3985  0.4994
   9723SM  H15A13071   3.763   0.451  12.344  0.3362 -0.1545 -1.0498
   9723SM  H15B13072   3.716   0.364  12.480  0.1030  0.7951  0.4758
   9723SM  H15C13073   3.631   0.343  12.329  0.1865  1.2199 -0.1829
   9723SM   C1413074   3.760   0.117  12.392 -0.3784  0.3659  0.0876
   9723SM  H14A13075   3.820   0.029  12.375  1.7284  1.5543  1.0061
   9723SM  H14B13076   3.667   0.103  12.338  0.1479 -2.4204 -0.2055
   9723SM  H14C13077   3.734   0.118  12.497 -0.1635  0.7673  0.1416
   9723SM   C1313078   3.872   0.233  12.205 -0.1942 -0.0476  0.1209
   9723SM  H13A13079   3.908   0.325  12.161  2.8296 -1.7038 -1.1251
   9723SM  H13B13080   3.790   0.201  12.141  0.1590 -0.1291 -0.2944
   9723SM  H13C13081   3.935   0.146  12.195  1.6214  1.1674  0.4365
   9723SM   C1213082   3.947   0.271  12.438  1.0040  0.5833  0.4881
   9723SM  H12A13083   3.996   0.360  12.404  0.0937  0.3975 -1.4284
   9723SM  H12B13084   4.017   0.189  12.433  2.4575  1.7931  0.2531
   9723SM   C1113085   3.907   0.302  12.589 -0.2364  0.0348  0.0354
   9723SM  H11A13086   3.994   0.292  12.657 -0.2663  0.8793  0.2168
   9723SM  H11B13087   3.840   0.223  12.629  1.5050 -1.1304  0.7338
   9723SM     P13088   3.960   0.548  12.602 -0.2028  0.0687  0.5788
   9723SM   O1313089   4.057   0.530  12.493  0.4931 -0.0880 -0.0878
   9723SM   O1413090   3.899   0.681  12.607  0.9485 -0.3234  0.4646
   9723SM   O1113091   4.032   0.520  12.736  0.2144 -0.3815  0.4352
   9723SM   O1213092   3.851   0.430  12.606  0.1474 -0.0739 -0.0370
   9723SM   C1S13093   3.971   0.535  12.864 -0.2262 -0.2986  0.4644
   9723SM   H1S13094   3.868   0.493  12.869 -0.7387  0.6554 -1.3739
   9723SM   H1T13095   3.959   0.644  12.883  1.0328  0.4636 -2.5293
   9723SM    NF13096   3.966   0.455  13.100 -0.0743  0.6499  0.2699
   9723SM   HNF13097   3.993   0.518  13.173  0.9651 -1.3573  1.7039
   9723SM   C2S13098   4.048   0.459  12.974  0.2586 -0.2159 -0.4190
   9723SM   H2S13099   4.075   0.355  12.945  0.3778 -0.4734  0.5694
   9723SM   C3S13100   4.186   0.530  12.996  0.5301 -0.2088  0.3290
   9723SM   H3S13101   4.168   0.638  13.013  1.0217 -0.2949  1.4623
   9723SM    O313102   4.269   0.536  12.883 -0.1759  0.3393  0.0758
   9723SM   HO313103   4.219   0.524  12.802  3.3287  0.9208 -2.4549
   9723SM   C4S13104   4.257   0.465  13.117  0.3803 -0.3261 -0.0537
   9723SM   H4S13105   4.272   0.357  13.108  1.2495 -0.4155  1.9656
   9723SM   C5S13106   4.294   0.541  13.228 -0.0169  0.8086  0.4880
   9723SM   H5S13107   4.262   0.647  13.232 -0.3199  0.6901  1.2261
   9723SM   C6S13108   4.371   0.488  13.348 -0.1462 -0.3147 -0.2808
   9723SM   H6S13109   4.448   0.561  13.380 -0.5502 -0.2665  0.6033
   9723SM   H6T13110   4.418   0.388  13.334 -0.7880 -0.9027  1.5184
   9723SM   C7S13111   4.293   0.467  13.481 -0.3859 -0.4587  0.0298
   9723SM   H7S13112   4.353   0.396  13.542  0.9813 -1.3765 -2.2731
   9723SM   H7T13113   4.193   0.429  13.450  0.6549 -1.9933 -1.5531
   9723SM   C8S13114   4.271   0.597  13.556 -0.1101 -0.0681 -0.5503
   9723SM   H8S13115   4.186   0.652  13.510 -0.3023  0.6367  0.6093
   9723SM   H8T13116   4.364   0.657  13.547 -0.2746 -0.0682 -2.6895
   9723SM   C9S13117   4.227   0.572  13.704 -0.3302 -0.3139 -0.2329
   9723SM   H9S13118   4.148   0.494  13.698 -1.2896  0.6589 -0.6851
   9723SM   H9T13119   4.177   0.663  13.745 -0.0592 -0.0671 -0.4464
   9723SM  C10S13120   4.336   0.522  13.798 -0.1963  0.2069  0.5605
   9723SM  H10S13121   4.424   0.589  13.802  1.9138 -2.0078 -2.8827
   9723SM  H10T13122   4.371   0.424  13.759  1.0605  0.9583 -0.2907
   9723SM  C11S13123   4.291   0.502  13.943 -0.9045 -0.3275 -0.3065
   9723SM  H11S13124   4.200   0.438  13.941 -1.3871  0.3558 -1.9442
   9723SM  H11T13125   4.248   0.598  13.979  2.0919  1.4947 -1.2008
   9723SM  C12S13126   4.398   0.459  14.054 -0.5752  0.2429 -0.0813
   9723SM  H12S13127   4.491   0.519  14.046 -0.5202  0.0234 -1.2037
   9723SM  H12T13128   4.436   0.356  14.037  0.1809  0.4277  0.4192
   9723SM  C13S13129   4.330   0.446  14.192 -0.1779 -0.0674  0.1347
   9723SM  H13S13130   4.238   0.387  14.174 -0.1095  0.5866 -3.1162
   9723SM  H13T13131   4.312   0.548  14.232 -1.7501 -0.1059 -0.3980
   9723SM  C14S13132   4.411   0.381  14.304  0.1849  0.8312 -0.5530
   9723SM  H14S13133   4.501   0.440  14.331  0.8211  0.1395 -1.1186
   9723SM  H14T13134   4.465   0.291  14.267 -0.5358  0.1351  0.0290
   9723SM  C15S13135   4.326   0.361  14.432  0.2392 -0.4044  0.2188
   9723SM  H15S13136   4.240   0.294  14.413 -0.7807  1.7031 -3.5522
   9723SM  H15T13137   4.285   0.461  14.458  0.1938  0.5928 -3.2924
   9723SM  C16S13138   4.393   0.302  14.558 -0.7158  0.1918  0.2892
   9723SM  H16S13139   4.318   0.288  14.639  0.9456  0.0374  1.8458
   9723SM  H16T13140   4.467   0.365  14.612 -1.1411  0.9459  0.0112
   9723SM  C17S13141   4.449   0.166  14.538  0.3388  1.0089  0.6775
   9723SM  H17S13142   4.506   0.138  14.630 -2.4398 -1.6712  1.7623
   9723SM  H17T13143   4.525   0.146  14.460  0.4838 -1.9286  1.4682
   9723SM  C18S13144   4.342   0.061  14.513  0.4498  0.3545 -0.9525
   9723SM  H18S13145   4.374  -0.044  14.531 -0.3498  0.7632  5.4201
   9723SM  H18T13146   4.301   0.067  14.410 -0.5124  2.0096 -0.5016
   9723SM  H18U13147   4.258   0.081  14.583  1.2919  1.7549 -0.3012
   9723SM   C1F13148   3.864   0.375  13.124  0.4327  0.2974 -0.0574
   9723SM    OF13149   3.814   0.298  13.040  0.0526 -0.0737 -0.5062
   9723SM   C2F13150   3.820   0.377  13.270 -0.4112  0.7643 -0.5545
   9723SM   H2F13151   3.729   0.439  13.279 -2.1129 -1.4479 -1.5068
   9723SM   H2G13152   3.893   0.427  13.337 -0.2616 -1.0674  0.7281
   9723SM   C3F13153   3.787   0.250  13.343  0.1065  0.1424 -0.1681
   9723SM   H3F13154   3.880   0.189  13.338  0.4628  0.6868 -0.2307
   9723SM   H3G13155   3.700   0.202  13.294 -0.5927  1.0606  0.1526
   9723SM   C4F13156   3.755   0.263  13.499  0.2249  0.9738  0.3359
   9723SM   H4F13157   3.704   0.168  13.528 -0.9530  0.9620 -1.6040
   9723SM   H4G13158   3.686   0.349  13.510 -0.0301  1.0652 -1.6440
   9723SM   C5F13159   3.883   0.293  13.592 -0.0652 -0.8864 -0.5968
   9723SM   H5F13160   3.843   0.344  13.682 -0.3458  0.8773 -1.6811
   9723SM   H5G13161   3.945   0.372  13.544  0.4571 -0.8012  0.2032
   9723SM   C6F13162   3.958   0.167  13.630 -0.1412 -0.5841  0.3013
   9723SM   H6F13163   4.012   0.122  13.545  0.4166  2.0603 -0.8374
   9723SM   H6G13164   3.886   0.089  13.663 -0.8963 -0.6533 -1.4092
   9723SM   C7F13165   4.057   0.192  13.746 -0.3184 -1.3345  0.4536
   9723SM   H7F13166   4.005   0.251  13.824  0.3172  0.4023 -0.3931
   9723SM   H7G13167   4.137   0.253  13.699  0.8443 -0.9921  2.7810
   9723SM   C8F13168   4.122   0.065  13.797  0.7291  0.2423 -0.0801
   9723SM   H8F13169   4.170  -0.000  13.720  0.3199 -0.3038  0.1173
   9723SM   H8G13170   4.046   0.003  13.850  2.2582 -2.4705 -0.8794
   9723SM   C9F13171   4.239   0.091  13.885 -0.2609  0.0753 -0.3095
   9723SM   H9F13172   4.213   0.179  13.948 -1.4877  1.0550 -2.0717
   9723SM   H9G13173   4.325   0.124  13.824  1.2069 -0.7490  1.2435
   9723SM  C10F13174   4.267  -0.031  13.974 -0.5285 -0.3867 -0.6921
   9723SM  H10F13175   4.252  -0.118  13.907 -1.7514 -0.2049 -0.6800
   9723SM  H10G13176   4.193  -0.044  14.056 -0.7068  1.3192 -0.5489
   9723SM  C11F13177   4.402  -0.027  14.051 -0.4767 -0.2447 -0.4469
   9723SM  H11F13178   4.421   0.074  14.093  3.2120 -1.3472  0.9564
   9723SM  H11G13179   4.487  -0.048  13.982  0.0784 -0.0012  0.1502
   9723SM  C12F13180   4.402  -0.127  14.163 -0.0081  0.2757  0.7060
   9723SM  H12F13181   4.388  -0.230  14.123  0.0116 -0.0282  1.4582
   9723SM  H12G13182   4.332  -0.107  14.247 -0.1303 -0.8272  0.8863
   9723SM  C13F13183   4.538  -0.119  14.235 -0.1073 -0.3417 -0.2360
   9723SM  H13F13184   4.557  -0.014  14.266  0.0026 -0.0859 -1.1250
   9723SM  H13G13185   4.618  -0.139  14.161  1.3717  1.3104  0.8262
   9723SM  C14F13186   4.549  -0.219  14.351  0.6838 -0.6182  0.0871
   9723SM  H14F13187   4.564  -0.323  14.315  1.2320 -0.0750 -1.3081
   9723SM  H14G13188   4.451  -0.223  14.402  0.9844 -1.5161  0.6255
   9723SM  C15F13189   4.667  -0.196  14.446 -0.0863  0.3738  1.0637
   9723SM  H15F13190   4.636  -0.128  14.528 -1.6922  1.4678 -0.3846
   9723SM  H15G13191   4.746  -0.156  14.378  1.0977 -1.7246  1.1320
   9723SM  C16F13192   4.714  -0.323  14.507  0.6849 -0.6228  0.3210
   9723SM  H16F13193   4.623  -0.388  14.510  0.0107  0.2551 -0.3348
   9723SM  H16G13194   4.759  -0.314  14.608 -0.8228 -0.9758  1.0513
   9723SM  C17F13195   4.809  -0.402  14.415  0.2067 -0.1954 -0.1343
   9723SM  H17F13196   4.887  -0.329  14.383  2.0436 -1.7196  0.6243
   9723SM  H17G13197   4.749  -0.429  14.326  0.6739 -1.9185  0.0180
   9723SM  C18F13198   4.881  -0.525  14.486 -0.1273  0.2523  0.7451
   9723SM  H18F13199   4.922  -0.482  14.580  0.6618 -0.9229  0.9641
   9723SM  H18G13200   4.963  -0.557  14.418  0.0881  2.5947 -0.2020
   9723SM  C19F13201   4.782  -0.645  14.508 -0.3252  0.4307 -0.9754
   9723SM  H19F13202   4.686  -0.608  14.551  0.3438  0.3457  0.6804
   9723SM  H19G13203   4.823  -0.723  14.576  0.5837  2.5142  1.0238
   9723SM  C20F13204   4.744  -0.702  14.373 -0.4305  0.4401 -0.5574
   9723SM  H20F13205   4.700  -0.638  14.293  0.2224 -1.2445 -2.3376
   9723SM  H20G13206   4.664  -0.778  14.388  0.9265 -0.8674  0.3418
   9723SM  C21F13207   4.859  -0.779  14.305  0.7822 -0.1891  0.0116
   9723SM  H21F13208   4.902  -0.840  14.387 -0.3444 -1.4599 -0.3229
   9723SM  H21G13209   4.931  -0.700  14.272 -1.0469  2.4922  1.9450
   9723SM  C22F13210   4.811  -0.869  14.191  0.2175 -0.3432 -0.7873
   9723SM  H22F13211   4.744  -0.805  14.130 -0.7523 -1.1552 -0.5940
   9723SM  H22G13212   4.742  -0.946  14.230  0.3274 -0.6359 -1.1575
   9723SM  C23F13213   4.911  -0.936  14.101  0.1750 -0.4352 -0.5283
   9723SM  H23F13214   4.978  -0.864  14.049 -1.5430  0.7578 -1.1781
   9723SM  H23G13215   4.847  -0.997  14.035 -1.3508  0.7317 -0.1920
   9723SM  H23H13216   4.970  -1.010  14.160  0.0705 -0.5773 -0.6033
   9823SM     N13217   7.031   7.448  12.075  0.0309  0.7039 -0.0238
   9823SM   C1513218   7.106   7.577  12.087  0.0220  0.1181 -0.3329
   9823SM  H15A13219   7.079   7.646  12.009 -0.9148 -1.4285 -1.4258
   9823SM  H15B13220   7.213   7.560  12.089  0.6005  2.9609 -1.7827
   9823SM  H15C13221   7.072   7.623  12.179  0.8962  1.3701 -0.6102
   9823SM   C1413222   6.884   7.473  12.079 -0.7453  0.8923  0.3221
   9823SM  H14A13223   6.863   7.530  11.990 -1.4387 -0.9023 -0.7071
   9823SM  H14B13224   6.852   7.525  12.168  0.6577  1.1030  0.7290
   9823SM  H14C13225   6.827   7.382  12.077 -0.6470  0.7602  2.0254
   9823SM   C1313226   7.060   7.393  11.936  0.7645  0.1607 -0.4334
   9823SM  H13A13227   7.043   7.289  11.916  0.7710  0.2910 -1.1349
   9823SM  H13B13228   7.165   7.406  11.915  1.6268 -0.4672  2.8854
   9823SM  H13C13229   7.005   7.453  11.865 -1.7813 -2.2286 -0.6397
   9823SM   C1213230   7.069   7.357  12.189  0.2668 -0.2906 -0.6036
   9823SM  H12A13231   7.174   7.336  12.180  0.3447 -0.4957  0.6127
   9823SM  H12B13232   7.023   7.259  12.184  1.1649 -0.8095  0.6801
   9823SM   C1113233   7.040   7.414  12.336 -0.1152 -0.0740  0.3935
   9823SM  H11A13234   7.087   7.514  12.344  0.7092 -0.2067 -2.0731
   9823SM  H11B13235   7.096   7.356  12.413 -1.0477 -0.3209  0.9011
   9823SM     P13236   6.802   7.315  12.404 -0.0842  0.1240 -0.0614
   9823SM   O1313237   6.667   7.375  12.428 -0.7474  0.0801 -0.7913
   9823SM   O1413238   6.819   7.190  12.330  0.0108  0.1888  0.0800
   9823SM   O1113239   6.868   7.288  12.541  0.4269 -0.3949  0.3501
   9823SM   O1213240   6.900   7.421  12.346  0.5431  0.5832 -0.7782
   9823SM   C1S13241   6.885   7.396  12.637  0.7196 -0.9362  0.3878
   9823SM   H1S13242   6.797   7.463  12.624  0.4057 -1.3240  0.5221
   9823SM   H1T13243   6.978   7.455  12.622 -0.1054 -0.1657 -2.1899
   9823SM    NF13244   6.873   7.460  12.878 -0.2361  0.4986 -0.1121
   9823SM   HNF13245   6.941   7.459  12.951 -0.9519  2.3887  0.6426
   9823SM   C2S13246   6.879   7.351  12.786  0.8654 -0.2906  0.3202
   9823SM   H2S13247   6.790   7.284  12.786  1.2487 -0.8764 -1.7191
   9823SM   C3S13248   7.003   7.256  12.805 -0.1267  0.3099  0.5761
   9823SM   H3S13249   7.094   7.318  12.791 -0.1066  0.0302 -0.6299
   9823SM    O313250   7.018   7.151  12.713  0.3140  0.6735  0.4937
   9823SM   HO313251   6.956   7.186  12.648 -2.2697 -0.5392  2.1275
   9823SM   C4S13252   7.000   7.205  12.944  0.5830  0.4674  0.7378
   9823SM   H4S13253   6.935   7.118  12.960  1.5749 -0.3765  0.2835
   9823SM   C5S13254   7.082   7.243  13.046 -0.1830 -0.0632  0.5663
   9823SM   H5S13255   7.165   7.311  13.022  0.0014 -0.2111  0.7790
   9823SM   C6S13256   7.092   7.196  13.194 -0.2114  0.2849 -0.3117
   9823SM   H6S13257   7.198   7.188  13.225 -0.1299 -1.9299 -0.9811
   9823SM   H6T13258   7.054   7.092  13.199  0.8030 -0.1317 -1.0715
   9823SM   C7S13259   7.015   7.280  13.293 -0.2044  0.3315 -0.0512
   9823SM   H7S13260   6.906   7.285  13.272 -0.2686 -0.4217  0.0665
   9823SM   H7T13261   7.054   7.384  13.280  2.4513 -0.3796  1.3583
   9823SM   C8S13262   7.042   7.235  13.441 -0.4171  0.1341  0.3896
   9823SM   H8S13263   7.144   7.260  13.478 -0.4104 -1.2402  1.3783
   9823SM   H8T13264   7.031   7.125  13.446 -2.4398  0.2709 -0.3954
   9823SM   C9S13265   6.945   7.285  13.545  0.3254 -0.7336 -0.2582
   9823SM   H9S13266   6.850   7.236  13.517 -0.6633 -0.4860  2.3835
   9823SM   H9T13267   6.937   7.396  13.541  1.1976 -0.6845 -0.9165
   9823SM  C10S13268   6.983   7.233  13.683 -0.1305 -0.1472  0.3480
   9823SM  H10S13269   7.089   7.265  13.692  0.0299 -0.6656  0.3599
   9823SM  H10T13270   6.992   7.122  13.671  0.4552 -0.1690  0.9557
   9823SM  C11S13271   6.894   7.280  13.799 -0.2184  0.0134  0.3420
   9823SM  H11S13272   6.927   7.237  13.896 -0.5758 -0.3240  0.3208
   9823SM  H11T13273   6.797   7.224  13.797  0.6598 -1.5718 -0.6473
   9823SM  C12S13274   6.889   7.433  13.804 -0.6765  0.2058  0.0941
   9823SM  H12S13275   6.815   7.468  13.729 -0.7610  1.9112  0.9089
   9823SM  H12T13276   6.983   7.489  13.784 -0.0443 -0.4535  1.1350
   9823SM  C13S13277   6.822   7.481  13.941 -0.4396 -0.2518 -0.4258
   9823SM  H13S13278   6.840   7.590  13.954  1.2942 -0.5127 -0.3233
   9823SM  H13T13279   6.876   7.433  14.026  0.6476  0.9465 -0.3987
   9823SM  C14S13280   6.674   7.437  13.960  0.0425  0.1798  0.4991
   9823SM  H14S13281   6.683   7.329  13.937 -0.1026  0.7152 -2.4191
   9823SM  H14T13282   6.605   7.487  13.888  1.6521  0.5135 -0.8677
   9823SM  C15S13283   6.627   7.453  14.105  0.1777 -0.0109  0.6031
   9823SM  H15S13284   6.517   7.439  14.103 -0.0990  1.7176 -1.8930
   9823SM  H15T13285   6.641   7.560  14.131  0.4172  0.2704 -0.6149
   9823SM  C16S13286   6.689   7.375  14.229 -0.3484  0.2138  0.7175
   9823SM  H16S13287   6.796   7.404  14.244 -0.9153  1.9600  1.7508
   9823SM  H16T13288   6.699   7.266  14.209  1.3633  0.3028  0.9001
   9823SM  C17S13289   6.610   7.403  14.364  0.0324  0.6686 -0.6649
   9823SM  H17S13290   6.661   7.344  14.443  0.8078  3.4385  1.0313
   9823SM  H17T13291   6.512   7.350  14.352  0.1991  0.3155 -0.4908
   9823SM  C18S13292   6.582   7.550  14.407 -0.3619 -0.4232  0.0530
   9823SM  H18S13293   6.518   7.603  14.334  0.7134  0.6090 -0.1772
   9823SM  H18T13294   6.670   7.611  14.436 -0.7575  0.1745  0.0090
   9823SM  H18U13295   6.511   7.541  14.492 -3.2716  2.3914 -1.8576
   9823SM   C1F13296   6.770   7.540  12.881 -0.1167  0.3027 -0.0652
   9823SM    OF13297   6.669   7.516  12.817  0.2262  0.1423  0.5593
   9823SM   C2F13298   6.799   7.662  12.957  0.2281  0.1738 -0.1430
   9823SM   H2F13299   6.767   7.742  12.886  1.6369 -0.1866 -1.2448
   9823SM   H2G13300   6.909   7.671  12.970  0.3705 -2.3557  0.8508
   9823SM   C3F13301   6.730   7.668  13.094 -0.1722  0.6469  0.1420
   9823SM   H3F13302   6.627   7.710  13.086  0.1446  1.5360  0.6243
   9823SM   H3G13303   6.770   7.755  13.150 -1.8631  1.4200  0.2283
   9823SM   C4F13304   6.737   7.541  13.180 -0.8420  0.0803  0.3126
   9823SM   H4F13305   6.843   7.529  13.210 -0.3533  0.2518 -1.2789
   9823SM   H4G13306   6.702   7.461  13.111  0.1033  0.2376 -0.3616
   9823SM   C5F13307   6.652   7.545  13.313 -0.3114 -0.3642 -0.2407
   9823SM   H5F13308   6.622   7.450  13.362 -1.6302  1.1219  2.0383
   9823SM   H5G13309   6.556   7.588  13.277 -0.7532  0.9952  2.3262
   9823SM   C6F13310   6.708   7.635  13.425  0.2865  0.0419  0.0460
   9823SM   H6F13311   6.734   7.736  13.387  0.4857  0.3258  0.9012
   9823SM   H6G13312   6.802   7.588  13.462 -0.4798 -0.1761  1.8301
   9823SM   C7F13313   6.606   7.655  13.547 -0.3166 -0.0322  0.4227
   9823SM   H7F13314   6.579   7.564  13.604 -0.4908 -0.6835 -0.6695
   9823SM   H7G13315   6.514   7.697  13.502 -0.3183 -0.4817  0.0021
   9823SM   C8F13316   6.663   7.754  13.653  0.0938  0.1249 -0.1587
   9823SM   H8F13317   6.686   7.845  13.595  0.4577  0.1173 -0.0322
   9823SM   H8G13318   6.759   7.715  13.694  0.5229  1.2033 -0.1060
   9823SM   C9F13319   6.566   7.785  13.760 -0.3117  0.1902 -0.2364
   9823SM   H9F13320   6.567   7.693  13.821  1.7189 -1.3604 -2.4251
   9823SM   H9G13321   6.458   7.807  13.744 -0.3959 -0.1960 -0.1975
   9823SM  C10F13322   6.627   7.897  13.845  0.9107  0.4944 -0.2519
   9823SM  H10F13323   6.585   7.993  13.808 -1.5020  0.7076  2.5834
   9823SM  H10G13324   6.735   7.896  13.823  0.6772 -2.1588 -1.6977
   9823SM  C11F13325   6.610   7.872  13.996 -0.1744  0.0450  0.6950
   9823SM  H11F13326   6.661   7.777  14.022 -2.0041 -1.6190 -1.3154
   9823SM  H11G13327   6.501   7.855  14.009 -0.4191  1.6762  1.0399
   9823SM  C12F13328   6.653   8.003  14.071 -0.5277  0.5329 -0.4234
   9823SM  H12F13329   6.625   8.083  13.999 -0.3526  0.0601 -1.0325
   9823SM  H12G13330   6.761   7.997  14.096 -0.3578  0.0202 -1.2281
   9823SM  C13F13331   6.567   8.022  14.198 -0.2841  0.2338  0.4042
   9823SM  H13F13332   6.564   7.927  14.255 -1.5646  0.5747  0.9501
   9823SM  H13G13333   6.462   8.046  14.170 -0.2593 -1.3653 -1.2418
   9823SM  C14F13334   6.629   8.132  14.292 -0.5039 -0.3645 -0.3990
   9823SM  H14F13335   6.648   8.228  14.239  0.6121 -0.2704  0.1376
   9823SM  H14G13336   6.733   8.100  14.314 -0.3670  0.1920 -0.2109
   9823SM  C15F13337   6.552   8.165  14.425 -0.0027  0.6654  0.7596
   9823SM  H15F13338   6.546   8.073  14.487 -0.7073  0.2948  0.1629
   9823SM  H15G13339   6.446   8.182  14.397  0.0825  1.4248  0.8732
   9823SM  C16F13340   6.599   8.282  14.507  0.4262 -0.6691  0.1002
   9823SM  H16F13341   6.595   8.375  14.446  0.8526 -1.4198 -1.1062
   9823SM  H16G13342   6.708   8.278  14.530  0.6283  0.6372 -0.5323
   9823SM  C17F13343   6.525   8.291  14.641 -0.6270 -0.4342  0.3101
   9823SM  H17F13344   6.572   8.212  14.704  1.1841 -1.9412 -2.6995
   9823SM  H17G13345   6.417   8.267  14.628 -0.3323 -2.2150  0.8206
   9823SM  C18F13346   6.527   8.424  14.719 -0.9189 -0.7857 -0.0787
   9823SM  H18F13347   6.437   8.444  14.781 -0.5348  0.4818  0.0826
   9823SM  H18G13348   6.532   8.503  14.641 -0.0345 -1.1626 -0.4198
   9823SM  C19F13349   6.659   8.444  14.793 -0.1746 -0.0166 -0.5348
   9823SM  H19F13350   6.744   8.428  14.723  0.0265 -0.7550 -0.1384
   9823SM  H19G13351   6.669   8.364  14.870  1.9920 -0.1336 -0.8651
   9823SM  C20F13352   6.676   8.579  14.871  1.1953  0.0541 -1.1588
   9823SM  H20F13353   6.648   8.657  14.796 -0.1906  0.6306 -0.0777
   9823SM  H20G13354   6.781   8.592  14.906  0.3918  0.9238  1.0586
   9823SM  C21F13355   6.577   8.585  14.982  0.4221  0.7660  0.0947
   9823SM  H21F13356   6.600   8.501  15.052 -1.4189  0.9522  0.9777
   9823SM  H21G13357   6.469   8.576  14.957  0.6135  2.7353 -1.6769
   9823SM  C22F13358   6.591   8.724  15.039  0.3346 -0.1436 -0.1608
   9823SM  H22F13359   6.547   8.800  14.972 -0.6003 -0.6930 -0.1972
   9823SM  H22G13360   6.697   8.756  15.039  0.6229 -0.9766  1.5060
   9823SM  C23F13361   6.512   8.733  15.173 -0.5661 -0.1029  0.6634
   9823SM  H23F13362   6.549   8.656  15.244  0.4073  1.2808  1.7051
   9823SM  H23G13363   6.402   8.728  15.156 -0.7426  0.8101  1.4720
   9823SM  H23H13364   6.528   8.829  15.227 -1.8973  0.6706 -0.2450
   9923SM     N13365   0.451   7.276  12.157  0.2115 -0.1926 -0.1205
   9923SM   C1513366   0.395   7.240  12.027  0.0511 -0.0834 -0.1683
   9923SM  H15A13367   0.467   7.254  11.947 -0.5288 -2.6923 -1.2345
   9923SM  H15B13368   0.314   7.303  11.995 -1.7662 -2.9244 -1.5372
   9923SM  H15C13369   0.368   7.136  12.019  2.3728 -0.7305 -0.3172
   9923SM   C1413370   0.377   7.209  12.271 -0.3379  0.4595 -0.4471
   9923SM  H14A13371   0.369   7.104  12.251  2.6214  0.4041 -1.8469
   9923SM  H14B13372   0.281   7.250  12.299 -0.3125  0.8707 -0.9411
   9923SM  H14C13373   0.440   7.218  12.358 -0.3101  1.0317 -0.5191
   9923SM   C1313374   0.590   7.222  12.155 -0.3458  0.0625 -0.4480
   9923SM  H13A13375   0.577   7.115  12.165 -1.6166  0.2680  0.4554
   9923SM  H13B13376   0.647   7.258  12.239  0.4021 -0.9917 -0.4800
   9923SM  H13C13377   0.645   7.242  12.065 -0.2276  1.7175 -0.0307
   9923SM   C1213378   0.453   7.428  12.171 -0.1539 -0.4550  0.2202
   9923SM  H12A13379   0.353   7.468  12.175 -0.4038 -1.0762  0.3195
   9923SM  H12B13380   0.506   7.469  12.086 -0.2165 -3.4353 -1.4196
   9923SM   C1113381   0.510   7.486  12.299  0.2814  0.2460  0.0778
   9923SM  H11A13382   0.429   7.474  12.374  0.6121 -0.4640  0.3243
   9923SM  H11B13383   0.525   7.596  12.287 -0.3938  0.1723 -1.7649
   9923SM     P13384   0.714   7.424  12.461  0.1996 -0.4322 -0.3030
   9923SM   O1313385   0.741   7.284  12.500  0.7752 -0.8190 -0.3478
   9923SM   O1413386   0.832   7.504  12.431  0.4658  0.0938  0.1681
   9923SM   O1113387   0.638   7.500  12.574  0.1363 -0.0404 -0.2518
   9923SM   O1213388   0.630   7.424  12.334 -0.1919 -0.0363  0.0936
   9923SM   C1S13389   0.535   7.453  12.663 -0.0325 -0.2840  0.5119
   9923SM   H1S13390   0.492   7.361  12.619 -1.7787 -0.3009  2.1257
   9923SM   H1T13391   0.453   7.528  12.675  0.2563  0.4231 -1.5536
   9923SM    NF13392   0.499   7.370  12.887 -0.2835 -0.1581 -0.8377
   9923SM   HNF13393   0.428   7.422  12.935  0.5126 -2.4771  3.3483
   9923SM   C2S13394   0.598   7.431  12.799  0.0369 -0.2658 -0.9383
   9923SM   H2S13395   0.690   7.370  12.790  0.3157  0.3186 -2.3454
   9923SM   C3S13396   0.650   7.570  12.858  0.4113 -0.5713  0.1624
   9923SM   H3S13397   0.559   7.632  12.875 -0.1826 -0.6840 -2.2762
   9923SM    O313398   0.759   7.626  12.769 -0.4874 -0.0048 -0.1633
   9923SM   HO313399   0.745   7.590  12.681  1.8666 -0.7469 -0.3136
   9923SM   C4S13400   0.711   7.550  12.993  0.3772  0.1512 -0.5115
   9923SM   H4S13401   0.797   7.482  12.998 -1.4242 -2.2537 -0.3829
   9923SM   C5S13402   0.658   7.598  13.110 -0.0476 -0.1431  0.0782
   9923SM   H5S13403   0.565   7.657  13.115 -0.6388 -1.0127 -0.2220
   9923SM   C6S13404   0.726   7.569  13.239 -0.2741 -0.5899 -0.6629
   9923SM   H6S13405   0.719   7.660  13.302  0.5520 -2.0748  1.7076
   9923SM   H6T13406   0.830   7.531  13.229  0.7509  1.4258  1.3614
   9923SM   C7S13407   0.647   7.454  13.313 -0.5077  0.0151 -0.1266
   9923SM   H7S13408   0.680   7.358  13.267  0.3849 -0.0907  0.6949
   9923SM   H7T13409   0.541   7.474  13.289 -0.5442 -0.9700 -0.8898
   9923SM   C8S13410   0.682   7.461  13.462  0.0563  0.1897  0.1543
   9923SM   H8S13411   0.648   7.557  13.506 -2.1359 -0.3445 -0.2244
   9923SM   H8T13412   0.792   7.463  13.479  0.3149  1.3298 -1.3446
   9923SM   C9S13413   0.604   7.357  13.550  0.3706  0.0105  0.2497
   9923SM   H9S13414   0.608   7.255  13.506 -2.4987  0.9992 -2.6896
   9923SM   H9T13415   0.495   7.377  13.560  0.0179 -1.2398 -0.7003
   9923SM  C10S13416   0.653   7.366  13.690 -0.0592  0.7552 -0.1235
   9923SM  H10S13417   0.630   7.462  13.741  2.5074 -0.3557  3.5360
   9923SM  H10T13418   0.761   7.347  13.708  0.8379  3.1330 -2.2140
   9923SM  C11S13419   0.579   7.253  13.778  0.7626  0.3606 -0.1085
   9923SM  H11S13420   0.574   7.160  13.718 -0.2792  0.7161 -0.5879
   9923SM  H11T13421   0.478   7.291  13.802 -0.3451 -1.6916 -1.2610
   9923SM  C12S13422   0.675   7.212  13.894 -0.0835 -0.3864  0.5928
   9923SM  H12S13423   0.674   7.299  13.964  2.4175  0.0874  0.1348
   9923SM  H12T13424   0.780   7.200  13.860 -0.3822 -1.6448  0.0667
   9923SM  C13S13425   0.634   7.101  13.990  0.1547  0.5667 -0.0896
   9923SM  H13S13426   0.634   6.998  13.949  0.1822 -0.7533  2.9716
   9923SM  H13T13427   0.524   7.115  14.002 -0.1892 -1.6446 -0.2242
   9923SM  C14S13428   0.697   7.093  14.126  0.1853  0.2651 -0.0315
   9923SM  H14S13429   0.626   7.035  14.188 -1.3929  0.5347 -1.5090
   9923SM  H14T13430   0.707   7.199  14.158  0.4300  0.7181 -1.5074
   9923SM  C15S13431   0.833   7.027  14.122  0.8123  0.3189  0.0911
   9923SM  H15S13432   0.907   7.094  14.173 -0.5820  2.6217 -0.7391
   9923SM  H15T13433   0.869   7.025  14.017  2.8596  0.4517  0.7382
   9923SM  C16S13434   0.856   6.885  14.187 -0.5606  0.3948 -1.0182
   9923SM  H16S13435   0.957   6.849  14.154 -0.8326 -0.9840 -0.4299
   9923SM  H16T13436   0.790   6.812  14.135 -0.2225 -2.0395  1.7175
   9923SM  C17S13437   0.838   6.873  14.339  0.3591 -0.7510  0.0448
   9923SM  H17S13438   0.735   6.897  14.372 -0.0231 -1.0323 -0.9062
   9923SM  H17T13439   0.895   6.951  14.394 -0.5822  0.6158 -0.8548
   9923SM  C18S13440   0.864   6.739  14.398  0.6599  0.4946  0.5098
   9923SM  H18S13441   0.819   6.741  14.499 -0.8261 -0.9905 -0.0630
   9923SM  H18T13442   0.964   6.692  14.391 -0.0930 -1.3336  1.4476
   9923SM  H18U13443   0.807   6.664  14.339  3.1235 -1.6984  0.7692
   9923SM   C1F13444   0.468   7.239  12.869 -0.1348 -0.0997 -0.0825
   9923SM    OF13445   0.532   7.166  12.789 -0.8118  0.1392  0.2155
   9923SM   C2F13446   0.359   7.185  12.952  0.3578 -0.3915 -0.4122
   9923SM   H2F13447   0.351   7.077  12.930 -1.0702 -0.4269  0.1209
   9923SM   H2G13448   0.266   7.236  12.919  0.6786 -0.1175 -0.8920
   9923SM   C3F13449   0.385   7.210  13.102  0.1062  0.2301 -0.6296
   9923SM   H3F13450   0.370   7.317  13.129  2.0546  0.5768 -0.8059
   9923SM   H3G13451   0.490   7.183  13.127  0.3425  1.2240 -0.4995
   9923SM   C4F13452   0.293   7.127  13.187 -0.4438 -0.0042  0.4050
   9923SM   H4F13453   0.313   7.023  13.155 -0.2889 -0.1064  0.8390
   9923SM   H4G13454   0.187   7.153  13.164 -0.7902 -0.8068  1.0535
   9923SM   C5F13455   0.323   7.148  13.342  0.7948 -0.0084 -0.7810
   9923SM   H5F13456   0.316   7.255  13.370 -3.4027 -0.6901  1.5363
   9923SM   H5G13457   0.418   7.100  13.375 -0.0058 -0.2911  1.2631
   9923SM   C6F13458   0.203   7.096  13.427 -0.5182 -0.1664  0.0749
   9923SM   H6F13459   0.209   6.986  13.413 -1.9264 -0.1324 -1.0120
   9923SM   H6G13460   0.106   7.132  13.386 -0.4497  0.0076  0.0682
   9923SM   C7F13461   0.224   7.116  13.577 -0.8756 -0.5338 -1.0836
   9923SM   H7F13462   0.245   7.224  13.589  1.6663 -0.8322 -2.2294
   9923SM   H7G13463   0.303   7.053  13.626 -0.0112  1.4135  0.1441
   9923SM   C8F13464   0.096   7.092  13.664  0.4118  0.3589 -0.0806
   9923SM   H8F13465   0.053   7.001  13.617  0.7286 -0.4092  1.0688
   9923SM   H8G13466   0.021   7.173  13.655  0.3613  0.7859  3.1225
   9923SM   C9F13467   0.129   7.055  13.809 -0.3122 -0.8957 -0.5150
   9923SM   H9F13468   0.144   7.144  13.873  1.6968 -0.7147 -1.1426
   9923SM   H9G13469   0.221   6.992  13.803 -0.0724 -0.4417 -1.9466
   9923SM  C10F13470   0.022   6.970  13.879  0.0622  0.2226  0.0568
   9923SM  H10F13471   0.004   6.895  13.800  3.1012 -2.0327  1.2918
   9923SM  H10G13472  -0.062   7.032  13.916  1.0948  2.1300 -0.6607
   9923SM  C11F13473   0.082   6.892  14.001 -0.3721  0.4317 -0.1189
   9923SM  H11F13474   0.138   6.810  13.951  0.1058  1.3980 -1.2024
   9923SM  H11G13475  -0.005   6.843  14.050  0.0680  1.1505  1.4451
   9923SM  C12F13476   0.163   6.965  14.108  0.7476  0.4091  0.0450
   9923SM  H12F13477   0.105   7.054  14.142 -0.4014  0.2016 -1.2733
   9923SM  H12G13478   0.251   7.005  14.054  1.5643  0.3835  1.3185
   9923SM  C13F13479   0.220   6.871  14.220  0.2438 -0.1638  0.2396
   9923SM  H13F13480   0.264   6.776  14.182 -0.9154 -0.6086 -0.0604
   9923SM  H13G13481   0.129   6.833  14.271 -0.0514 -1.9765 -1.5106
   9923SM  C14F13482   0.320   6.961  14.297 -1.1950 -0.1355  0.1537
   9923SM  H14F13483   0.275   7.043  14.357  0.4837 -0.3934  1.8929
   9923SM  H14G13484   0.386   7.013  14.224 -0.4190 -1.0427  0.1901
   9923SM  C15F13485   0.401   6.875  14.396  0.1912  0.2193  0.3404
   9923SM  H15F13486   0.489   6.837  14.340  0.7003  0.8572  0.6912
   9923SM  H15G13487   0.335   6.789  14.422 -0.6343  0.0286 -2.1130
   9923SM  C16F13488   0.439   6.940  14.531  0.8468 -0.1536  0.2709
   9923SM  H16F13489   0.508   6.871  14.584 -1.2513 -0.9411  2.1283
   9923SM  H16G13490   0.347   6.952  14.592  0.0330 -0.5432 -0.8500
   9923SM  C17F13491   0.518   7.073  14.522  0.0551 -0.1184  0.3853
   9923SM  H17F13492   0.452   7.154  14.482  0.4875  0.3892  0.6967
   9923SM  H17G13493   0.586   7.071  14.434  0.9081 -0.7759  1.0546
   9923SM  C18F13494   0.587   7.128  14.646  0.0232 -0.0145 -0.2268
   9923SM  H18F13495   0.635   7.224  14.620 -0.3626  0.0848 -0.5751
   9923SM  H18G13496   0.665   7.051  14.664 -0.0219  0.3346  1.6759
   9923SM  C19F13497   0.502   7.149  14.768 -0.1484  0.1249  0.5548
   9923SM  H19F13498   0.559   7.187  14.856  1.0253 -1.6648  0.6267
   9923SM  H19G13499   0.445   7.057  14.795 -0.2292 -0.1757 -0.6087
   9923SM  C20F13500   0.390   7.257  14.755  0.0757  0.5943  0.2011
   9923SM  H20F13501   0.311   7.254  14.833 -0.9299 -1.4861 -0.8053
   9923SM  H20G13502   0.340   7.235  14.658  1.7258  2.1446 -1.0648
   9923SM  C21F13503   0.445   7.395  14.726  0.7110  0.3654 -0.0888
   9923SM  H21F13504   0.499   7.385  14.629  0.8290 -2.6047  0.1775
   9923SM  H21G13505   0.534   7.411  14.790  1.8697 -0.2714 -1.4855
   9923SM  C22F13506   0.341   7.507  14.723  0.5597  0.0434  0.4130
   9923SM  H22F13507   0.286   7.501  14.819 -0.8742 -1.2639 -0.4444
   9923SM  H22G13508   0.272   7.474  14.642  0.3727 -0.3708  0.7388
   9923SM  C23F13509   0.396   7.648  14.699 -0.5962  0.0165  0.1582
   9923SM  H23F13510   0.472   7.664  14.779 -0.5258 -1.2567  0.3685
   9923SM  H23G13511   0.310   7.718  14.692 -0.7559 -0.3294 -2.7860
   9923SM  H23H13512   0.458   7.648  14.606  1.1964  2.8933  1.2012
  10023SM     N13513   0.137   0.496  12.402 -0.3893  0.1216 -0.2622
  10023SM   C1513514   0.267   0.558  12.386 -0.4763  0.0435 -0.3238
  10023SM  H15A13515   0.291   0.595  12.287  0.1692  2.1794  0.5687
  10023SM  H15B13516   0.341   0.482  12.408 -0.5834  0.0181 -0.0452
  10023SM  H15C13517   0.280   0.638  12.457 -0.6478 -0.3742  0.1832
  10023SM   C1413518   0.044   0.602  12.375 -0.1890  0.1036 -0.1810
  10023SM  H14A13519   0.067   0.646  12.279 -0.9990 -0.8569 -0.8383
  10023SM  H14B13520   0.037   0.684  12.444 -1.0866  0.3796 -0.5879
  10023SM  H14C13521  -0.055   0.567  12.351 -0.2797  1.2952 -1.6741
  10023SM   C1313522   0.119   0.381  12.308 -0.1889  0.6164  0.1295
  10023SM  H13A13523   0.193   0.305  12.326 -2.2906 -1.5151  0.3901
  10023SM  H13B13524   0.121   0.394  12.201  0.7085  0.2125  0.0958
  10023SM  H13C13525   0.016   0.351  12.323 -0.9489  3.0142  0.1240
  10023SM   C1213526   0.109   0.444  12.544  0.3278 -0.2132  0.1239
  10023SM  H12A13527   0.004   0.426  12.556  0.2583  1.0886  1.9096
  10023SM  H12B13528   0.110   0.524  12.617 -1.0917 -0.9830  1.0369
  10023SM   C1113529   0.182   0.328  12.604 -0.8360  0.3426  0.2636
  10023SM  H11A13530   0.149   0.308  12.708 -0.3274 -0.2272  0.3187
  10023SM  H11B13531   0.288   0.359  12.596 -0.7437 -0.3584 -2.2125
  10023SM     P13532   0.261   0.082  12.566  0.0449  0.0453 -0.2571
  10023SM   O1313533   0.189  -0.050  12.558 -0.0780  0.1543 -0.2264
  10023SM   O1413534   0.384   0.096  12.485 -0.0264  0.0240 -0.1678
  10023SM   O1113535   0.305   0.110  12.713  0.5662  0.1850 -0.0534
  10023SM   O1213536   0.164   0.208  12.533  0.2128  0.1555 -0.1526
  10023SM   C1S13537   0.225   0.058  12.817  0.3126  0.2075 -0.1767
  10023SM   H1S13538   0.233  -0.053  12.817  0.5023  0.1364 -3.3265
  10023SM   H1T13539   0.121   0.095  12.805 -0.4093 -2.0528 -1.4559
  10023SM    NF13540   0.191   0.053  13.057 -0.5306  0.6839 -0.8944
  10023SM   HNF13541   0.121   0.119  13.083  0.9641  2.4311 -1.0994
  10023SM   C2S13542   0.282   0.102  12.955  0.6579  0.2456 -0.1980
  10023SM   H2S13543   0.380   0.051  12.966  0.6256  0.0669 -0.7320
  10023SM   C3S13544   0.303   0.258  12.957 -0.1922 -0.2321 -0.8439
  10023SM   H3S13545   0.202   0.300  12.944 -1.2318 -2.7156 -1.3915
  10023SM    O313546   0.390   0.304  12.852  0.2157  0.2372  0.6830
  10023SM   HO313547   0.393   0.232  12.789 -0.0935  2.1195 -1.5898
  10023SM   C4S13548   0.355   0.303  13.095  1.1732 -0.2690  0.2985
  10023SM   H4S13549   0.274   0.332  13.164 -0.3492  0.3219 -1.6450
  10023SM   C5S13550   0.480   0.321  13.137 -0.0767 -0.5094  0.2133
  10023SM   H5S13551   0.562   0.289  13.070 -1.6226 -0.8455 -1.6115
  10023SM   C6S13552   0.520   0.371  13.280  0.5022 -0.0339 -0.1177
  10023SM   H6S13553   0.447   0.444  13.320  2.1907  0.3835  2.4220
  10023SM   H6T13554   0.613   0.430  13.266 -0.2505  1.0660 -0.6817
  10023SM   C7S13555   0.525   0.261  13.385 -0.1713 -0.9616  0.3854
  10023SM   H7S13556   0.606   0.191  13.356  1.5470  1.4184 -0.9679
  10023SM   H7T13557   0.426   0.214  13.397  0.0549 -2.0022 -1.4518
  10023SM   C8S13558   0.569   0.310  13.529 -0.3277 -0.9575  0.1232
  10023SM   H8S13559   0.483   0.355  13.582  0.7978  1.4984 -0.0142
  10023SM   H8T13560   0.639   0.396  13.534 -1.5201 -0.0172  1.0734
  10023SM   C9S13561   0.619   0.194  13.616 -0.8141 -0.4259  0.5534
  10023SM   H9S13562   0.705   0.237  13.673 -1.1096  1.1339 -0.1281
  10023SM   H9T13563   0.666   0.119  13.549 -0.9884  1.5337 -1.8950
  10023SM  C10S13564   0.522   0.114  13.710 -0.0610 -0.5588 -0.0128
  10023SM  H10S13565   0.474   0.192  13.774  2.3112 -0.8043  2.2340
  10023SM  H10T13566   0.586   0.048  13.773  2.4217 -0.1495 -1.9443
  10023SM  C11S13567   0.419   0.034  13.642 -0.0639 -0.1601  0.5346
  10023SM  H11S13568   0.476  -0.032  13.573 -0.5462 -0.0201 -0.0070
  10023SM  H11T13569   0.354   0.098  13.578  0.3939 -0.1412  0.0755
  10023SM  C12S13570   0.337  -0.058  13.739  0.0970 -0.1102 -0.1495
  10023SM  H12S13571   0.308   0.003  13.828  1.5758 -1.8970  1.6552
  10023SM  H12T13572   0.401  -0.137  13.783 -0.1187  0.1404  0.6332
  10023SM  C13S13573   0.211  -0.119  13.672  0.6934  0.1515 -0.2111
  10023SM  H13S13574   0.245  -0.186  13.591  1.3469  0.6377 -0.3479
  10023SM  H13T13575   0.167  -0.029  13.625  1.2269  0.1797 -0.6637
  10023SM  C14S13576   0.114  -0.180  13.775  0.2635 -0.3953 -0.0589
  10023SM  H14S13577   0.172  -0.266  13.816  2.7404  0.6682 -1.0912
  10023SM  H14T13578   0.030  -0.231  13.723  2.4843 -2.4490 -1.8762
  10023SM  C15S13579   0.064  -0.083  13.884  0.2931  0.0817 -0.0066
  10023SM  H15S13580   0.021   0.006  13.834 -2.2617 -0.6531  0.7173
  10023SM  H15T13581   0.156  -0.067  13.944 -0.1904 -0.6499  0.9631
  10023SM  C16S13582  -0.037  -0.141  13.982  1.3170 -0.7148 -0.0295
  10023SM  H16S13583  -0.015  -0.246  14.011  0.1804 -1.3385 -1.3474
  10023SM  H16T13584  -0.137  -0.146  13.934  0.1102 -0.1826  2.2951
  10023SM  C17S13585  -0.042  -0.075  14.120 -0.3506  0.0103 -0.6588
  10023SM  H17S13586  -0.043   0.035  14.102  0.3370  0.1319  0.0184
  10023SM  H17T13587   0.056  -0.102  14.165 -1.7208 -2.1675  1.2075
  10023SM  C18S13588  -0.164  -0.131  14.195 -0.0904  0.2776  0.2239
  10023SM  H18S13589  -0.154  -0.111  14.303 -2.7456  0.1077  0.5487
  10023SM  H18T13590  -0.182  -0.240  14.178 -1.7886  0.4269  0.9251
  10023SM  H18U13591  -0.257  -0.077  14.169 -1.0954 -1.0757  0.8937
  10023SM   C1F13592   0.180  -0.079  13.087 -0.3824  0.7519 -0.7772
  10023SM    OF13593   0.260  -0.159  13.050 -0.0042 -0.1346  0.1177
  10023SM   C2F13594   0.073  -0.117  13.188  0.5809 -0.3173  0.6728
  10023SM   H2F13595  -0.017  -0.054  13.168 -0.1522 -0.6654  2.6770
  10023SM   H2G13596   0.101  -0.098  13.294  3.1562  1.8975 -0.2985
  10023SM   C3F13597   0.020  -0.258  13.162  0.0912  0.4968 -0.3827
  10023SM   H3F13598   0.099  -0.331  13.133 -0.7545 -0.0650 -1.3436
  10023SM   H3G13599  -0.047  -0.242  13.075 -0.4121  0.0527 -0.0775
  10023SM   C4F13600  -0.069  -0.314  13.274 -0.1863  0.2831  0.5332
  10023SM   H4F13601  -0.014  -0.319  13.371 -0.4563 -1.3286  0.6302
  10023SM   H4G13602  -0.092  -0.421  13.253 -1.7295  0.8386 -0.8148
  10023SM   C5F13603  -0.191  -0.231  13.301 -1.0508 -0.5167  0.2162
  10023SM   H5F13604  -0.243  -0.213  13.204  1.4696  2.4293 -0.7841
  10023SM   H5G13605  -0.156  -0.134  13.343 -0.8040 -0.6148  0.2338
  10023SM   C6F13606  -0.282  -0.291  13.413  0.1676 -0.1285  0.4285
  10023SM   H6F13607  -0.340  -0.370  13.361 -1.0907  1.8360 -1.3639
  10023SM   H6G13608  -0.350  -0.212  13.451  0.6519 -0.5218  2.1758
  10023SM   C7F13609  -0.210  -0.347  13.535 -0.2213 -0.2790  0.1878
  10023SM   H7F13610  -0.132  -0.275  13.568 -0.0255 -0.6568  0.5565
  10023SM   H7G13611  -0.165  -0.448  13.527 -1.9203 -1.0325 -0.2152
  10023SM   C8F13612  -0.318  -0.367  13.642 -0.4378 -0.0088 -0.0917
  10023SM   H8F13613  -0.385  -0.448  13.606 -1.5336  0.0609  1.6680
  10023SM   H8G13614  -0.370  -0.270  13.660 -0.7458 -0.3092  0.7038
  10023SM   C9F13615  -0.263  -0.414  13.777 -0.5178  0.3652 -0.1586
  10023SM   H9F13616  -0.186  -0.342  13.813 -0.9072  0.8006 -0.1853
  10023SM   H9G13617  -0.231  -0.520  13.764 -1.5337  0.2025 -1.4660
  10023SM  C10F13618  -0.372  -0.409  13.883  0.3937 -0.0214  0.1576
  10023SM  H10F13619  -0.462  -0.464  13.846  1.2788 -0.9264 -0.7042
  10023SM  H10G13620  -0.406  -0.305  13.901  0.6241 -0.3372  2.7057
  10023SM  C11F13621  -0.329  -0.459  14.015  0.5889 -0.2276  0.7217
  10023SM  H11F13622  -0.226  -0.430  14.042  1.6289 -0.6269 -2.4240
  10023SM  H11G13623  -0.327  -0.570  14.016  0.9254 -0.2227  0.6395
  10023SM  C12F13624  -0.418  -0.401  14.126  0.4935  0.1313  0.1216
  10023SM  H12F13625  -0.520  -0.429  14.092  1.3658 -3.3145 -0.0104
  10023SM  H12G13626  -0.413  -0.290  14.123 -1.6052  0.2576 -1.4883
  10023SM  C13F13627  -0.405  -0.471  14.264  0.1002 -0.7330 -0.2397
  10023SM  H13F13628  -0.305  -0.459  14.310  0.0530 -0.2482 -0.2535
  10023SM  H13G13629  -0.418  -0.581  14.257 -2.9459 -0.4337 -0.5958
  10023SM  C14F13630  -0.505  -0.415  14.361  0.4902 -0.4630 -0.3015
  10023SM  H14F13631  -0.521  -0.478  14.451 -0.8837 -0.0525 -0.2372
  10023SM  H14G13632  -0.603  -0.406  14.310 -1.4880  0.2692  3.3034
  10023SM  C15F13633  -0.477  -0.279  14.411 -0.1576 -0.3510 -0.1169
  10023SM  H15F13634  -0.454  -0.200  14.336 -0.6389 -0.6145 -0.5448
  10023SM  H15G13635  -0.391  -0.289  14.481 -1.6282 -0.5777  1.7689
  10023SM  C16F13636  -0.597  -0.207  14.481 -0.1193  0.4673  0.4742
  10023SM  H16F13637  -0.680  -0.197  14.408  1.8190  0.1683 -1.9406
  10023SM  H16G13638  -0.568  -0.102  14.501  2.8994 -0.3651  0.9656
  10023SM  C17F13639  -0.648  -0.280  14.605 -0.0152 -0.4564  0.1658
  10023SM  H17F13640  -0.558  -0.281  14.671  0.2024 -0.2830 -0.1265
  10023SM  H17G13641  -0.679  -0.383  14.577  0.2309 -1.2400  2.5349
  10023SM  C18F13642  -0.767  -0.211  14.683  0.1941  0.7098 -0.6661
  10023SM  H18F13643  -0.861  -0.223  14.625 -0.2074  0.0565  0.1075
  10023SM  H18G13644  -0.739  -0.104  14.693 -0.2597  0.8816 -1.2081
  10023SM  C19F13645  -0.785  -0.276  14.821 -0.1980  0.8100 -0.6890
  10023SM  H19F13646  -0.694  -0.256  14.881  0.0691  0.9390 -1.1416
  10023SM  H19G13647  -0.799  -0.382  14.790 -2.2274  1.1788 -1.1732
  10023SM  C20F13648  -0.905  -0.224  14.897 -0.0539 -0.0900 -0.7201
  10023SM  H20F13649  -0.987  -0.244  14.824  1.4239 -1.1822 -2.1628
  10023SM  H20G13650  -0.897  -0.114  14.912  0.7945 -0.5274  2.6120
  10023SM  C21F13651  -0.931  -0.289  15.029  0.1591  0.5913 -0.8890
  10023SM  H21F13652  -1.038  -0.268  15.049  0.2025  0.9516 -1.0358
  10023SM  H21G13653  -0.876  -0.233  15.108 -3.1083 -0.1256  2.1350
  10023SM  C22F13654  -0.924  -0.438  15.041  0.3115 -0.3015 -0.3772
  10023SM  H22F13655  -0.824  -0.475  15.008  0.4635 -0.9123  0.7419
  10023SM  H22G13656  -0.999  -0.487  14.975  0.0282 -0.9613  0.4261
  10023SM  C23F13657  -0.942  -0.496  15.178  0.6249  0.0355 -0.9271
  10023SM  H23F13658  -0.891  -0.434  15.255  0.7616 -1.2633  0.0798
  10023SM  H23G13659  -0.899  -0.598  15.189  0.8009  0.2467  0.6074
  10023SM  H23H13660  -1.049  -0.504  15.204  0.9805 -0.7050  0.4478
  101CHL1    C313661   3.727   4.435  16.717 -0.6868 -0.3031  0.1878
  101CHL1    H313662   3.617   4.440  16.705 -0.6735 -1.1029 -0.3730
  101CHL1    O313663   3.772   4.467  16.849 -0.0521  0.4999  0.3239
  101CHL1   H3'13664   3.704   4.426  16.903  0.2462 -0.1578  0.2124
  101CHL1    C413665   3.762   4.282  16.692  0.2808 -0.8199 -0.8015
  101CHL1   H4A13666   3.869   4.273  16.721 -0.0801 -0.9511  0.5802
  101CHL1   H4B13667   3.704   4.220  16.765  1.5267 -0.4325  0.5623
  101CHL1    C513668   3.729   4.241  16.551  0.0269  0.2113 -0.2159
  101CHL1    C613669   3.648   4.134  16.531 -0.4790  0.5695 -0.3219
  101CHL1    H613670   3.610   4.072  16.613 -0.7200 -1.4705 -1.8883
  101CHL1    C713671   3.592   4.086  16.399  0.0804 -0.0667 -0.2246
  101CHL1   H7A13672   3.597   3.976  16.380 -0.6242 -0.2163  0.4231
  101CHL1   H7B13673   3.486   4.114  16.383  0.5365  2.5208  0.8515
  101CHL1    C813674   3.668   4.155  16.282 -0.3540 -0.1731  0.0761
  101CHL1    H813675   3.774   4.121  16.272 -0.9373 -1.4321 -2.8542
  101CHL1   C1413676   3.598   4.126  16.149  0.4515  0.3005 -0.2165
  101CHL1   H1413677   3.496   4.170  16.160  0.9465  1.6180 -0.6621
  101CHL1   C1513678   3.582   3.981  16.098  0.2638 -0.0055  0.7535
  101CHL1  H15A13679   3.662   3.909  16.125 -0.7724 -1.4606  0.0633
  101CHL1  H15B13680   3.492   3.930  16.139  1.2560 -2.7513 -0.2598
  101CHL1   C1613681   3.566   3.985  15.945 -0.0368  0.2085  0.2009
  101CHL1  H16A13682   3.642   3.927  15.888 -1.3143 -0.9795 -0.3737
  101CHL1  H16B13683   3.464   3.946  15.923  0.0020  1.0408 -1.5924
  101CHL1   C1713684   3.569   4.138  15.908 -0.8061 -0.0086 -0.5328
  101CHL1   H1713685   3.468   4.175  15.934 -0.3333  0.2849  1.0055
  101CHL1   C1313686   3.655   4.197  16.024  0.1424  0.3285 -0.1584
  101CHL1   C1813687   3.805   4.155  16.000  0.0896 -0.4556  0.0331
  101CHL1  H18A13688   3.863   4.174  16.092 -3.7439  1.9208  2.2235
  101CHL1  H18B13689   3.819   4.055  15.955 -0.4151 -0.4276 -0.1970
  101CHL1  H18C13690   3.854   4.226  15.929  0.6059  1.3006  2.0533
  101CHL1   C1213691   3.644   4.346  16.047 -0.7317 -0.6475  0.5243
  101CHL1  H12A13692   3.688   4.406  15.965  1.5433 -1.1183  1.3238
  101CHL1  H12B13693   3.533   4.358  16.049 -0.5816  0.8941  0.8051
  101CHL1   C1113694   3.713   4.396  16.178 -0.0302  0.5402 -0.3705
  101CHL1  H11A13695   3.822   4.408  16.161 -0.6645  3.6050 -3.4953
  101CHL1  H11B13696   3.675   4.499  16.197 -2.9449 -0.8503  2.0761
  101CHL1    C913697   3.674   4.309  16.309 -0.1164 -0.5714  1.2050
  101CHL1    H913698   3.574   4.343  16.341 -0.6504  0.5037 -1.4067
  101CHL1   C1013699   3.762   4.341  16.441  0.5875 -0.2006  0.0001
  101CHL1   C1913700   3.912   4.323  16.399  0.5090  0.2864 -0.0433
  101CHL1  H19A13701   3.973   4.311  16.492  0.8524 -1.4317 -0.4442
  101CHL1  H19B13702   3.931   4.236  16.333 -1.6881  0.1194 -0.5399
  101CHL1  H19C13703   3.935   4.416  16.344 -3.2769  1.9190  0.8222
  101CHL1    C113704   3.742   4.492  16.477  0.0674  0.1235  0.1839
  101CHL1   H1A13705   3.777   4.566  16.403  1.3448  2.4448  2.9055
  101CHL1   H1B13706   3.632   4.505  16.490  0.2803  3.7586 -0.5019
  101CHL1    C213707   3.797   4.530  16.614  0.0816  0.6307  0.2450
  101CHL1   H2A13708   3.762   4.633  16.641 -0.4462  0.4446  0.2856
  101CHL1   H2B13709   3.908   4.528  16.613  0.1028  1.2390  0.4613
  101CHL1   C2013710   3.601   4.170  15.756  0.2081  0.4708 -0.5617
  101CHL1   H2013711   3.709   4.152  15.741 -0.2168 -1.1215 -2.0973
  101CHL1   C2113712   3.558   4.315  15.714  0.6463 -0.3848  0.4662
  101CHL1  H21A13713   3.630   4.384  15.763  0.7414  0.2837 -0.5959
  101CHL1  H21B13714   3.454   4.344  15.740  1.0790  1.4057  0.3312
  101CHL1  H21C13715   3.573   4.335  15.606 -0.7783 -0.0344  0.3132
  101CHL1   C2213716   3.521   4.066  15.668  0.4623 -0.1574  0.5144
  101CHL1  H22A13717   3.563   3.963  15.674  1.1802  0.0066 -1.0328
  101CHL1  H22B13718   3.412   4.059  15.689 -0.1007  1.9341 -1.3388
  101CHL1   C2313719   3.535   4.086  15.514 -0.6328 -0.3909 -0.3929
  101CHL1  H23A13720   3.485   4.005  15.456  0.2712 -2.6534  1.8191
  101CHL1  H23B13721   3.474   4.171  15.479 -1.0002 -0.7430 -0.6162
  101CHL1   C2413722   3.675   4.110  15.460  0.0449 -0.9729 -0.0052
  101CHL1  H24A13723   3.667   4.155  15.358 -0.0818  0.1144  0.4717
  101CHL1  H24B13724   3.737   4.175  15.526 -1.3504  0.9124 -0.4488
  101CHL1   C2513725   3.762   3.978  15.449  0.4541 -0.1461  0.1281
  101CHL1   H2513726   3.748   3.914  15.539  0.6661 -1.1343 -0.5312
  101CHL1   C2613727   3.719   3.895  15.329  1.4600 -0.5216 -0.3635
  101CHL1  H26A13728   3.756   3.931  15.231  1.4642 -2.9791 -1.3478
  101CHL1  H26B13729   3.761   3.792  15.326 -1.6299 -1.9198 -3.8779
  101CHL1  H26C13730   3.609   3.887  15.312  1.2210  2.0376 -0.3210
  101CHL1   C2713731   3.905   4.011  15.441 -0.2248 -0.3776 -0.1535
  101CHL1  H27A13732   3.962   3.915  15.433  1.3880  0.5895 -0.9459
  101CHL1  H27B13733   3.925   4.059  15.342 -0.2645 -3.5665 -1.8381
  101CHL1  H27C13734   3.931   4.064  15.535 -0.3885 -0.5058 -0.0373
  102CHL1    C313735   2.821   4.716  16.688 -0.0477  0.2990 -0.9277
  102CHL1    H313736   2.870   4.815  16.675 -0.8541  0.7959 -0.2759
  102CHL1    O313737   2.783   4.713  16.826  0.1091  0.3717  0.6803
  102CHL1   H3'13738   2.717   4.643  16.830  0.5028 -0.0077  0.6245
  102CHL1    C413739   2.703   4.709  16.590  0.5260 -0.4487  0.2785
  102CHL1   H4A13740   2.649   4.613  16.605 -0.0580 -0.2529 -0.5019
  102CHL1   H4B13741   2.633   4.790  16.622  0.6825 -0.3097  0.2727
  102CHL1    C513742   2.740   4.714  16.446 -0.3141  0.1131  0.6287
  102CHL1    C613743   2.688   4.796  16.360  0.3860 -0.4323  0.4860
  102CHL1    H613744   2.616   4.872  16.393 -0.3274  0.1695 -2.2013
  102CHL1    C713745   2.711   4.793  16.217  0.1592 -0.0095  0.1980
  102CHL1   H7A13746   2.618   4.791  16.157 -0.9319 -1.8416  1.8328
  102CHL1   H7B13747   2.771   4.883  16.191  1.0923  0.0615  2.3096
  102CHL1    C813748   2.796   4.677  16.164 -0.4484 -0.2830 -0.5567
  102CHL1    H813749   2.720   4.598  16.149 -0.8364  0.0292 -0.2415
  102CHL1   C1413750   2.860   4.708  16.039  0.0095 -0.4276  0.3372
  102CHL1   H1413751   2.929   4.793  16.053 -2.2671  1.8107 -1.0839
  102CHL1   C1513752   2.762   4.748  15.931 -0.2729  0.4026  0.5585
  102CHL1  H15A13753   2.675   4.680  15.942  1.2453 -2.0120 -1.2208
  102CHL1  H15B13754   2.733   4.853  15.952  0.9663  0.9540 -0.3493
  102CHL1   C1613755   2.831   4.724  15.800 -0.5503  0.9162  0.4084
  102CHL1  H16A13756   2.760   4.667  15.736 -0.3433  0.7230  0.3487
  102CHL1  H16B13757   2.876   4.809  15.745  1.5271 -0.2621  0.1853
  102CHL1   C1713758   2.965   4.651  15.840 -0.4887  0.1872 -0.5023
  102CHL1   H1713759   3.043   4.728  15.857  0.9041 -1.3344  0.3213
  102CHL1   C1313760   2.949   4.594  15.981 -0.9235  0.5622 -0.1717
  102CHL1   C1813761   2.866   4.461  15.973  0.3920  0.4386  0.2505
  102CHL1  H18A13762   2.912   4.377  15.917 -3.0615 -3.8766  3.2293
  102CHL1  H18B13763   2.849   4.419  16.074  0.6082  2.7254  1.2919
  102CHL1  H18C13764   2.763   4.474  15.933  0.6711 -0.9943 -1.0327
  102CHL1   C1213765   3.064   4.591  16.078 -0.5375  0.9173 -0.3995
  102CHL1  H12A13766   3.145   4.517  16.059 -0.8606  0.2291  0.8002
  102CHL1  H12B13767   3.107   4.692  16.090  1.7986 -0.2363  2.2714
  102CHL1   C1113768   3.015   4.557  16.221  0.1528 -0.9732  0.2984
  102CHL1  H11A13769   2.992   4.449  16.231  0.5809 -0.9287  2.0913
  102CHL1  H11B13770   3.106   4.569  16.285  0.8860  1.2013 -1.0083
  102CHL1    C913771   2.900   4.646  16.271 -0.4851  0.2326  0.5160
  102CHL1    H913772   2.952   4.744  16.282 -1.5548  0.6779  2.0886
  102CHL1   C1013773   2.844   4.607  16.411  0.8514 -0.7425  0.7752
  102CHL1   C1913774   2.779   4.465  16.408  0.1029 -0.5930  0.4030
  102CHL1  H19A13775   2.856   4.389  16.384 -0.0942 -0.4676 -0.6602
  102CHL1  H19B13776   2.735   4.444  16.508  1.1037 -1.9979  0.5761
  102CHL1  H19C13777   2.695   4.453  16.336 -0.6435 -2.2414  1.4815
  102CHL1    C113778   2.965   4.600  16.514 -1.0796  0.5433  1.0298
  102CHL1   H1A13779   3.033   4.518  16.481  0.8239  2.2615  0.4532
  102CHL1   H1B13780   3.013   4.698  16.494  2.1731 -0.8779  1.2184
  102CHL1    C213781   2.924   4.597  16.660 -0.0931  0.6077  0.2493
  102CHL1   H2A13782   3.018   4.604  16.719  1.5061  1.7331 -2.2523
  102CHL1   H2B13783   2.884   4.497  16.684 -0.6355  0.7270 -0.1212
  102CHL1   C2013784   3.024   4.558  15.727 -0.5985 -0.4636  0.4429
  102CHL1   H2013785   2.947   4.480  15.704 -0.1875 -0.2827 -1.6779
  102CHL1   C2113786   3.149   4.482  15.767  0.0188 -0.1079 -0.6341
  102CHL1  H21A13787   3.127   4.424  15.860  1.7813  0.6974  0.3362
  102CHL1  H21B13788   3.236   4.548  15.784 -0.0286 -0.2396  0.1920
  102CHL1  H21C13789   3.191   4.420  15.685 -0.1885 -0.3376 -0.5666
  102CHL1   C2213790   3.043   4.639  15.594 -0.2567 -1.1708 -0.1293
  102CHL1  H22A13791   2.951   4.695  15.566 -0.7220 -0.6421  2.2109
  102CHL1  H22B13792   3.138   4.696  15.590 -0.4191 -0.6539  2.1068
  102CHL1   C2313793   3.056   4.534  15.482 -0.5814 -0.4824  0.0380
  102CHL1  H23A13794   3.145   4.470  15.499  1.3101  2.1703  0.7241
  102CHL1  H23B13795   2.974   4.459  15.486 -2.2571  1.2045 -1.0610
  102CHL1   C2413796   3.087   4.606  15.347  0.4754 -0.1646 -0.6707
  102CHL1  H24A13797   3.175   4.672  15.365 -0.9709  1.3024  1.5690
  102CHL1  H24B13798   3.104   4.520  15.279  0.4722 -0.0657 -0.7984
  102CHL1   C2513799   2.985   4.706  15.289  0.1019 -0.3058  0.0995
  102CHL1   H2513800   2.969   4.792  15.358 -2.6935  0.8526 -1.8154
  102CHL1   C2613801   3.039   4.765  15.157  0.2114 -0.1932  0.9269
  102CHL1  H26A13802   2.953   4.826  15.121  1.3221  1.2943  0.6724
  102CHL1  H26B13803   3.132   4.825  15.169  0.2015 -0.1479  0.7820
  102CHL1  H26C13804   3.053   4.684  15.083  1.4278  0.9354 -0.1326
  102CHL1   C2713805   2.857   4.626  15.265 -0.1644 -0.3628 -0.4601
  102CHL1  H27A13806   2.874   4.565  15.174  2.4151  1.7723 -1.5369
  102CHL1  H27B13807   2.832   4.572  15.359  2.1099 -0.1863  0.3085
  102CHL1  H27C13808   2.773   4.695  15.241 -0.3729 -0.6382 -0.5382
  103CHL1    C313809   2.436   2.828  16.743  0.2544 -0.1292  0.9429
  103CHL1    H313810   2.492   2.923  16.742  2.8801 -1.5956 -0.6882
  103CHL1    O313811   2.392   2.799  16.876 -0.1670  0.0921  0.3002
  103CHL1   H3'13812   2.466   2.756  16.919  0.0049  1.9171  1.9621
  103CHL1    C413813   2.312   2.848  16.642 -0.2740  0.6630  0.4695
  103CHL1   H4A13814   2.244   2.761  16.650  0.4558 -0.2140 -1.9822
  103CHL1   H4B13815   2.260   2.938  16.682 -0.3056  0.3672  1.0928
  103CHL1    C513816   2.359   2.871  16.497  0.4066  0.9440  0.5122
  103CHL1    C613817   2.326   2.985  16.432 -0.3651  0.2341 -0.3371
  103CHL1    H613818   2.255   3.056  16.477 -0.4467 -0.5799  0.8563
  103CHL1    C713819   2.365   3.016  16.290 -1.1273  0.3780  0.4208
  103CHL1   H7A13820   2.281   3.056  16.229 -0.5827 -1.4983 -1.7351
  103CHL1   H7B13821   2.448   3.090  16.296 -0.6797  0.0180 -0.9707
  103CHL1    C813822   2.418   2.894  16.214  0.0681  0.4825  0.5390
  103CHL1    H813823   2.329   2.828  16.209 -0.8787  1.5518  2.3058
  103CHL1   C1413824   2.473   2.931  16.080 -0.2840 -0.1570  0.2798
  103CHL1   H1413825   2.560   2.996  16.103 -0.0144 -0.0010 -1.1226
  103CHL1   C1513826   2.385   3.010  15.977  0.1114 -0.0004 -0.2015
  103CHL1  H15A13827   2.291   2.957  15.949 -1.4159  2.7353 -0.5601
  103CHL1  H15B13828   2.352   3.113  16.002 -2.4290 -0.6749 -0.4329
  103CHL1   C1613829   2.471   3.001  15.854 -0.5702 -0.4866 -0.6758
  103CHL1  H16A13830   2.402   2.974  15.771  0.3731  0.6634 -1.8902
  103CHL1  H16B13831   2.528   3.093  15.826 -1.8152  0.2371 -0.9297
  103CHL1   C1713832   2.576   2.890  15.875  0.4958  0.2220  0.8186
  103CHL1   H1713833   2.674   2.938  15.895  1.2195 -0.9925  0.3274
  103CHL1   C1313834   2.528   2.813  15.999  0.0818  0.7674 -0.2261
  103CHL1   C1813835   2.415   2.704  15.969 -0.6832 -0.2456 -0.4266
  103CHL1  H18A13836   2.374   2.661  16.063  4.1302  1.4450  2.8180
  103CHL1  H18B13837   2.330   2.732  15.903  0.6167  0.6339 -1.8013
  103CHL1  H18C13838   2.450   2.610  15.921  0.9711 -0.1972  0.6220
  103CHL1   C1213839   2.644   2.754  16.087  1.1164 -0.1322  0.4219
  103CHL1  H12A13840   2.682   2.659  16.043 -1.7707 -1.7945  1.1852
  103CHL1  H12B13841   2.727   2.827  16.093 -0.1289  1.3580  0.0771
  103CHL1   C1113842   2.608   2.714  16.230 -0.5831  0.4253  0.2249
  103CHL1  H11A13843   2.553   2.617  16.232 -3.6958  1.9826 -1.4850
  103CHL1  H11B13844   2.697   2.682  16.287 -0.1472 -2.1089 -1.6759
  103CHL1    C913845   2.526   2.819  16.308  0.7468 -0.0604 -0.6555
  103CHL1    H913846   2.596   2.901  16.336  0.7313 -0.6124  1.1159
  103CHL1   C1013847   2.463   2.769  16.439  0.5912  0.1508 -1.1903
  103CHL1   C1913848   2.387   2.639  16.423  0.5294 -0.0032 -0.2814
  103CHL1  H19A13849   2.333   2.602  16.513  0.3149  0.0086 -0.4047
  103CHL1  H19B13850   2.304   2.641  16.349  0.1653 -1.2957  0.0661
  103CHL1  H19C13851   2.459   2.559  16.396  1.9861  1.2635 -0.2194
  103CHL1    C113852   2.573   2.755  16.550 -0.7599 -0.3588 -0.4834
  103CHL1   H1A13853   2.645   2.681  16.509 -1.9395 -1.2729 -0.9916
  103CHL1   H1B13854   2.638   2.844  16.558  1.5474 -2.0221  0.5565
  103CHL1    C213855   2.533   2.724  16.692 -0.7341 -0.1077  0.2437
  103CHL1   H2A13856   2.623   2.742  16.754 -0.1289  2.0088 -1.1542
  103CHL1   H2B13857   2.505   2.616  16.692  2.6072 -1.0914 -0.2405
  103CHL1   C2013858   2.593   2.802  15.749 -0.1136  0.1623  0.0329
  103CHL1   H2013859   2.496   2.757  15.719 -0.5430  1.1855 -0.1373
  103CHL1   C2113860   2.697   2.687  15.772  0.8733 -0.2048 -0.7641
  103CHL1  H21A13861   2.738   2.636  15.682  0.6571 -0.1524 -0.8934
  103CHL1  H21B13862   2.656   2.613  15.844 -1.2336  2.1116  0.5724
  103CHL1  H21C13863   2.788   2.730  15.819  1.4898 -0.6405 -1.5380
  103CHL1   C2213864   2.637   2.886  15.623  0.3161 -0.5029 -0.6524
  103CHL1  H22A13865   2.577   2.977  15.601  0.2049 -0.6208 -0.8377
  103CHL1  H22B13866   2.742   2.913  15.645  1.7272 -4.7944 -1.3867
  103CHL1   C2313867   2.632   2.804  15.497 -0.5692  0.4581  0.4088
  103CHL1  H23A13868   2.705   2.721  15.495  0.0900  1.0359 -0.0479
  103CHL1  H23B13869   2.529   2.768  15.479  0.0635 -0.4554 -1.7097
  103CHL1   C2413870   2.671   2.890  15.374 -0.2827  0.1373 -0.7129
  103CHL1  H24A13871   2.684   2.816  15.291 -1.3559 -1.2095  0.2563
  103CHL1  H24B13872   2.582   2.947  15.337 -0.4189  1.3828  1.4108
  103CHL1   C2513873   2.783   2.982  15.382 -0.0414 -0.5569 -0.0123
  103CHL1   H2513874   2.764   3.046  15.471  2.1092  0.5637 -0.2884
  103CHL1   C2613875   2.911   2.912  15.423  0.5019 -0.0479  0.7067
  103CHL1  H26A13876   2.926   2.833  15.346  1.9665  0.5984  0.3070
  103CHL1  H26B13877   2.994   2.982  15.401 -0.0692  0.0318 -1.4497
  103CHL1  H26C13878   2.912   2.856  15.519 -0.6097 -2.7768 -0.7508
  103CHL1   C2713879   2.803   3.065  15.252 -0.0091  0.2874 -0.4446
  103CHL1  H27A13880   2.873   3.149  15.267  1.0788 -0.3576 -1.6959
  103CHL1  H27B13881   2.835   3.001  15.167  0.4837  0.2941 -0.2659
  103CHL1  H27C13882   2.721   3.124  15.206  0.7880  0.2590 -1.9723
  104CHL1    C313883   6.454   4.279  16.705 -0.4340  0.6266  0.2748
  104CHL1    H313884   6.527   4.230  16.637  2.4090  1.0012  2.8572
  104CHL1    O313885   6.500   4.248  16.834  0.4221  0.6515  0.4033
  104CHL1   H3'13886   6.595   4.253  16.821  0.4465  4.7408  0.6300
  104CHL1    C413887   6.436   4.424  16.672  0.1088  0.4556 -0.2798
  104CHL1   H4A13888   6.366   4.474  16.743 -1.5863 -1.2448 -0.6831
  104CHL1   H4B13889   6.536   4.471  16.689  0.2852 -0.6480  2.2078
  104CHL1    C513890   6.384   4.436  16.529  0.2724 -0.2627 -0.4265
  104CHL1    C613891   6.461   4.499  16.437  0.2711 -0.2457  0.1854
  104CHL1    H613892   6.566   4.520  16.463  0.8815 -1.3436 -1.2283
  104CHL1    C713893   6.420   4.520  16.294 -0.1103  0.1425 -0.4155
  104CHL1   H7A13894   6.448   4.613  16.239 -0.7732 -0.1703 -1.3033
  104CHL1   H7B13895   6.475   4.433  16.253  0.9383  0.3003  0.6023
  104CHL1    C813896   6.266   4.498  16.271  0.8720 -0.0649  0.6796
  104CHL1    H813897   6.204   4.584  16.302  0.7096 -0.7351  2.2748
  104CHL1   C1413898   6.232   4.485  16.121  0.5145 -0.4330  0.2901
  104CHL1   H1413899   6.279   4.390  16.085 -0.1170  0.1740 -2.3462
  104CHL1   C1513900   6.289   4.600  16.024 -0.1300 -0.6396  0.1143
  104CHL1  H15A13901   6.293   4.698  16.078  0.3694 -0.3949 -0.3580
  104CHL1  H15B13902   6.394   4.568  16.012  0.1506 -0.1156  1.0438
  104CHL1   C1613903   6.187   4.598  15.906 -0.0030 -0.2264  0.1638
  104CHL1  H16A13904   6.133   4.694  15.911  1.4193  0.7955 -2.3063
  104CHL1  H16B13905   6.227   4.596  15.802 -0.0481 -1.7356  0.1424
  104CHL1   C1713906   6.092   4.477  15.940  0.8693  0.1674  0.4108
  104CHL1   H1713907   6.140   4.389  15.894 -0.1855  0.5070 -1.4244
  104CHL1   C1313908   6.082   4.457  16.095 -0.4474  0.6110  0.3455
  104CHL1   C1813909   6.001   4.571  16.153 -0.2008 -0.5469 -0.1866
  104CHL1  H18A13910   6.005   4.673  16.110 -2.0469 -0.3075  0.1083
  104CHL1  H18B13911   5.893   4.545  16.146 -0.3704  0.2543 -0.6928
  104CHL1  H18C13912   6.017   4.583  16.263  1.9372 -0.3859 -0.4753
  104CHL1   C1213913   6.048   4.316  16.155  0.0554  0.4114 -0.1368
  104CHL1  H12A13914   5.946   4.274  16.140  1.0472 -1.9064 -0.9192
  104CHL1  H12B13915   6.122   4.245  16.112 -2.1326 -0.3328 -3.0031
  104CHL1   C1113916   6.081   4.325  16.309  0.9490  0.1512 -0.7849
  104CHL1  H11A13917   5.999   4.382  16.359 -0.8165 -1.3586 -1.8077
  104CHL1  H11B13918   6.065   4.223  16.349 -0.5877  0.3838 -0.7295
  104CHL1    C913919   6.219   4.377  16.344  0.4105 -0.1050  0.0626
  104CHL1    H913920   6.287   4.298  16.307  1.3242 -0.9335  3.1839
  104CHL1   C1013921   6.243   4.377  16.498 -0.1136 -0.2465 -0.0201
  104CHL1   C1913922   6.135   4.463  16.574  0.1611  0.1987 -0.0637
  104CHL1  H19A13923   6.154   4.468  16.683 -0.9398  0.2996  0.1335
  104CHL1  H19B13924   6.146   4.565  16.532  0.0079  0.0221 -0.5415
  104CHL1  H19C13925   6.029   4.435  16.558  1.1564 -2.1473 -4.0333
  104CHL1    C113926   6.244   4.236  16.553 -0.2482  0.4966 -0.2725
  104CHL1   H1A13927   6.143   4.190  16.545 -0.2415  0.8347 -3.9857
  104CHL1   H1B13928   6.312   4.180  16.485  0.2003 -0.1365  0.6871
  104CHL1    C213929   6.306   4.212  16.693  0.3363  0.0443 -0.2698
  104CHL1   H2A13930   6.312   4.107  16.727  0.0599  0.2279  0.3688
  104CHL1   H2B13931   6.241   4.267  16.765  1.0872 -0.3587  0.7361
  104CHL1   C2013932   5.958   4.492  15.865  0.8038 -0.5173 -0.0687
  104CHL1   H2013933   5.900   4.577  15.908  1.0772 -0.1987 -0.3175
  104CHL1   C2113934   5.877   4.363  15.878  0.0826 -0.3454  0.1478
  104CHL1  H21A13935   5.791   4.369  15.808  0.4256  1.1572 -0.1910
  104CHL1  H21B13936   5.835   4.353  15.980  1.1436  2.6922  0.9881
  104CHL1  H21C13937   5.938   4.272  15.862  1.5686  0.3302  1.6548
  104CHL1   C2213938   5.972   4.519  15.716  0.7621 -0.9900 -0.3719
  104CHL1  H22A13939   6.041   4.602  15.691 -0.3740  0.1388  0.1164
  104CHL1  H22B13940   6.013   4.435  15.657  0.8011 -1.3091  0.1110
  104CHL1   C2313941   5.835   4.549  15.633  0.0489 -0.4123 -1.0577
  104CHL1  H23A13942   5.770   4.460  15.645  1.2717 -1.1595  0.4108
  104CHL1  H23B13943   5.790   4.635  15.685 -0.5903 -1.1555 -0.3572
  104CHL1   C2413944   5.868   4.590  15.490 -0.2938  0.0725 -0.7592
  104CHL1  H24A13945   5.953   4.661  15.498  0.9971 -1.5512  0.7441
  104CHL1  H24B13946   5.902   4.497  15.439 -3.5505 -1.4375 -0.4508
  104CHL1   C2513947   5.756   4.660  15.403  0.3851 -0.0337  0.4825
  104CHL1   H2513948   5.667   4.593  15.407  0.2638 -0.1817 -2.6138
  104CHL1   C2613949   5.711   4.790  15.470 -0.4587  0.2223 -0.5110
  104CHL1  H26A13950   5.665   4.777  15.570 -1.0941 -0.6264 -0.8932
  104CHL1  H26B13951   5.801   4.856  15.478 -0.9423  0.6646  1.9294
  104CHL1  H26C13952   5.632   4.839  15.410  0.3311  2.7751  0.4096
  104CHL1   C2713953   5.803   4.681  15.254  0.5032  0.6659 -0.3386
  104CHL1  H27A13954   5.829   4.579  15.219  0.1888  0.3738  0.2725
  104CHL1  H27B13955   5.724   4.726  15.191 -0.2979 -0.1029  0.0893
  104CHL1  H27C13956   5.895   4.744  15.259  0.1336  1.1540  0.5301
  105CHL1    C313957   6.878   3.420  16.723  0.3884 -0.3056 -0.6368
  105CHL1    H313958   6.799   3.494  16.749  1.3947  0.6472 -0.1984
  105CHL1    O313959   6.949   3.375  16.838  0.6899 -0.1120 -0.0073
  105CHL1   H3'13960   6.914   3.429  16.909 -2.7505 -1.3407 -0.5753
  105CHL1    C413961   6.817   3.297  16.652  0.0706 -0.4084  0.0468
  105CHL1   H4A13962   6.905   3.232  16.632  0.4334 -0.7961  2.5880
  105CHL1   H4B13963   6.753   3.245  16.726 -0.2069 -0.2082 -0.0490
  105CHL1    C513964   6.736   3.342  16.529 -0.8468  0.5091  0.9383
  105CHL1    C613965   6.604   3.314  16.515  0.7442  0.8770  0.9138
  105CHL1    H613966   6.553   3.248  16.587 -1.2823 -0.1367 -1.3112
  105CHL1    C713967   6.519   3.359  16.395 -0.1529  0.0841  0.0435
  105CHL1   H7A13968   6.432   3.299  16.361 -2.4856  3.2394 -0.0753
  105CHL1   H7B13969   6.473   3.454  16.431  0.3524  0.6090 -0.6823
  105CHL1    C813970   6.604   3.406  16.273 -0.0351 -0.3912  0.1743
  105CHL1    H813971   6.655   3.320  16.224  0.5936  0.9222 -1.6276
  105CHL1   C1413972   6.515   3.470  16.166  0.1892  0.4419  0.2561
  105CHL1   H1413973   6.462   3.550  16.222 -0.7049  0.0667 -0.0333
  105CHL1   C1513974   6.404   3.381  16.097 -0.0066 -0.1479 -0.3299
  105CHL1  H15A13975   6.460   3.289  16.071  3.2345  1.1648  1.3420
  105CHL1  H15B13976   6.326   3.362  16.174 -0.7964 -0.4204 -1.1941
  105CHL1   C1613977   6.363   3.473  15.980  0.2478 -0.3153  0.7117
  105CHL1  H16A13978   6.344   3.416  15.886  1.0082 -0.9456  0.9274
  105CHL1  H16B13979   6.261   3.513  16.001  0.9165  2.9892 -1.5608
  105CHL1   C1713980   6.467   3.585  15.959 -0.3902  0.8190 -0.2542
  105CHL1   H1713981   6.437   3.677  16.014 -2.6739 -0.7391  1.2311
  105CHL1   C1313982   6.584   3.530  16.045 -0.5480  0.5508 -0.3662
  105CHL1   C1813983   6.651   3.420  15.966  0.5532 -0.4636  0.1684
  105CHL1  H18A13984   6.578   3.367  15.901  0.1784 -2.1649  1.9175
  105CHL1  H18B13985   6.726   3.461  15.895 -1.2780  3.5732  0.2888
  105CHL1  H18C13986   6.706   3.348  16.030  0.1233  1.6125  3.0777
  105CHL1   C1213987   6.679   3.633  16.106 -0.5420 -0.1715  0.0460
  105CHL1  H12A13988   6.734   3.689  16.028 -0.4538  0.2936  0.4359
  105CHL1  H12B13989   6.624   3.700  16.176 -0.7387  0.5166 -0.7571
  105CHL1   C1113990   6.784   3.564  16.202 -0.6678  0.1326  0.0556
  105CHL1  H11A13991   6.834   3.479  16.152  0.1016 -0.5927  1.9365
  105CHL1  H11B13992   6.864   3.634  16.234  0.4563 -2.1206  2.6191
  105CHL1    C913993   6.714   3.503  16.321  0.4277  0.1584  0.2737
  105CHL1    H913994   6.667   3.588  16.376 -1.6145 -0.7612  0.0246
  105CHL1   C1013995   6.809   3.431  16.426 -0.1683  0.6412 -0.2351
  105CHL1   C1913996   6.910   3.339  16.347  0.1010 -0.2332 -0.0449
  105CHL1  H19A13997   6.980   3.413  16.304  0.9345 -0.4466  0.8976
  105CHL1  H19B13998   6.970   3.269  16.409  2.5459  1.3819 -0.4707
  105CHL1  H19C13999   6.867   3.277  16.266 -0.0248 -1.0803  0.6578
  105CHL1    C114000   6.884   3.536  16.501  0.0575  0.0073  0.6133
  105CHL1   H1A14001   6.944   3.600  16.432  0.2078  1.8082  2.3210
  105CHL1   H1B14002   6.810   3.607  16.544 -0.2680 -0.7039  1.2488
  105CHL1    C214003   6.968   3.493  16.625  1.0681  0.0909  0.3045
  105CHL1   H2A14004   7.006   3.582  16.679 -3.4678  1.2342  1.9998
  105CHL1   H2B14005   7.043   3.419  16.588 -1.0936 -1.8003 -0.5147
  105CHL1   C2014006   6.484   3.627  15.811  0.1671 -0.1622 -0.0173
  105CHL1   H2014007   6.503   3.534  15.753 -0.4940 -0.7402  0.6684
  105CHL1   C2114008   6.605   3.721  15.795  0.7999  0.3695 -0.3416
  105CHL1  H21A14009   6.611   3.806  15.866  2.8559  1.6573 -1.9474
  105CHL1  H21B14010   6.609   3.769  15.695  2.4558  2.0619  0.4919
  105CHL1  H21C14011   6.702   3.669  15.807 -0.1564 -1.6124 -0.6903
  105CHL1   C2214012   6.351   3.683  15.763 -0.0031 -0.2094  0.1210
  105CHL1  H22A14013   6.273   3.608  15.788  0.2287  0.8291  4.9972
  105CHL1  H22B14014   6.320   3.775  15.817 -1.3529  0.3746 -1.5405
  105CHL1   C2314015   6.354   3.716  15.619 -0.0021 -0.3446  0.3978
  105CHL1  H23A14016   6.413   3.809  15.605  1.3237 -1.3417 -1.0585
  105CHL1  H23B14017   6.408   3.647  15.550 -1.7368 -0.7799 -0.5894
  105CHL1   C2414018   6.219   3.743  15.554 -0.4806  0.6404  0.0828
  105CHL1  H24A14019   6.135   3.674  15.577 -0.8249  0.2770 -2.0819
  105CHL1  H24B14020   6.185   3.844  15.586  2.0918  1.9354 -0.9902
  105CHL1   C2514021   6.218   3.746  15.400  0.3534  0.0866  0.2367
  105CHL1   H2514022   6.287   3.827  15.371 -0.7046  1.2665  0.9024
  105CHL1   C2614023   6.256   3.607  15.344 -0.4641  0.6053 -0.9261
  105CHL1  H26A14024   6.192   3.522  15.374  1.6301 -0.5323  0.5350
  105CHL1  H26B14025   6.227   3.608  15.236  0.1539  0.4693 -1.0985
  105CHL1  H26C14026   6.362   3.577  15.359 -0.5995 -0.0584 -1.2810
  105CHL1   C2714027   6.087   3.794  15.342 -0.3571 -0.2749 -0.0353
  105CHL1  H27A14028   6.092   3.770  15.233  0.8994  1.8234 -0.4785
  105CHL1  H27B14029   6.006   3.727  15.379  0.2360 -1.6230 -1.0782
  105CHL1  H27C14030   6.073   3.902  15.360 -1.6065  0.0445 -2.4212
  106CHL1    C314031   1.416   2.650  16.704  0.4143 -0.0549 -0.8116
  106CHL1    H314032   1.519   2.611  16.689  0.4256 -0.1421 -0.5133
  106CHL1    O314033   1.389   2.692  16.838  0.3427 -0.6786 -0.0644
  106CHL1   H3'14034   1.466   2.746  16.857 -0.0083 -0.7295  1.6842
  106CHL1    C414035   1.392   2.773  16.618  0.0982 -0.0906 -0.5103
  106CHL1   H4A14036   1.286   2.805  16.621  0.4114  0.9070  0.5295
  106CHL1   H4B14037   1.461   2.851  16.656  1.8792 -0.8124 -2.0659
  106CHL1    C514038   1.415   2.740  16.469 -0.1853 -0.3217 -0.4460
  106CHL1    C614039   1.512   2.801  16.397 -0.0569 -0.8900 -0.0690
  106CHL1    H614040   1.581   2.871  16.447 -0.2621 -1.6786  1.3696
  106CHL1    C714041   1.529   2.772  16.251 -0.3291  0.5429  0.4760
  106CHL1   H7A14042   1.534   2.876  16.212  1.6093  0.3166 -0.0237
  106CHL1   H7B14043   1.625   2.721  16.226 -0.4894  1.1314 -1.5446
  106CHL1    C814044   1.403   2.705  16.193 -0.0891 -0.6411 -0.0245
  106CHL1    H814045   1.324   2.783  16.192 -0.2843 -0.8173  1.0294
  106CHL1   C1414046   1.432   2.674  16.049 -0.0468  0.5032  0.2984
  106CHL1   H1414047   1.507   2.592  16.053 -2.8405 -2.2209  0.3357
  106CHL1   C1514048   1.476   2.784  15.949 -0.4732 -0.0110 -0.4768
  106CHL1  H15A14049   1.410   2.874  15.956 -0.9085 -0.1562 -2.1230
  106CHL1  H15B14050   1.580   2.816  15.972 -0.8704  0.3862  0.8805
  106CHL1   C1614051   1.466   2.720  15.813  0.5651 -0.0488  0.2820
  106CHL1  H16A14052   1.416   2.790  15.742  2.1987  0.5055 -0.3759
  106CHL1  H16B14053   1.567   2.695  15.774  0.0433  2.6538 -3.3945
  106CHL1   C1714054   1.374   2.599  15.830  0.4570 -0.7797  0.2685
  106CHL1   H1714055   1.442   2.512  15.824  0.3807 -0.8358  0.2113
  106CHL1   C1314056   1.316   2.601  15.970  0.1072 -0.0357 -0.1886
  106CHL1   C1814057   1.191   2.696  15.968  0.5828  0.2404  0.0186
  106CHL1  H18A14058   1.109   2.650  15.909  0.3213  1.2455 -0.4251
  106CHL1  H18B14059   1.147   2.727  16.066 -0.8125 -0.3471 -0.4043
  106CHL1  H18C14060   1.222   2.790  15.916  1.4724  0.5651  1.0844
  106CHL1   C1214061   1.295   2.468  16.044 -0.2646  0.4761 -0.0076
  106CHL1  H12A14062   1.220   2.401  15.998 -0.2529  0.9621 -0.7531
  106CHL1  H12B14063   1.391   2.413  16.030 -0.4865  0.4486 -1.6024
  106CHL1   C1114064   1.253   2.491  16.194  0.1993  0.0541 -0.7856
  106CHL1  H11A14065   1.148   2.524  16.206 -0.0443 -0.3846 -1.6473
  106CHL1  H11B14066   1.257   2.394  16.248 -1.4315  0.0722 -0.5715
  106CHL1    C914067   1.349   2.587  16.271 -0.1029  0.7028 -0.5130
  106CHL1    H914068   1.436   2.519  16.279 -1.7882 -1.5092 -0.2295
  106CHL1   C1014069   1.317   2.631  16.417 -0.2430 -0.1360 -0.6448
  106CHL1   C1914070   1.163   2.682  16.407 -1.0260  0.0611 -0.2261
  106CHL1  H19A14071   1.133   2.749  16.491 -1.7608 -0.9911  0.3691
  106CHL1  H19B14072   1.148   2.741  16.314  0.4805  0.1512 -0.4278
  106CHL1  H19C14073   1.095   2.595  16.404 -1.2809  0.2701 -0.7034
  106CHL1    C114074   1.317   2.511  16.515 -0.4333  0.0464 -0.0214
  106CHL1   H1A14075   1.232   2.448  16.482 -0.9842  0.8258 -0.1242
  106CHL1   H1B14076   1.414   2.459  16.500  1.5153  2.5077  2.8586
  106CHL1    C214077   1.307   2.546  16.666 -0.2774 -0.1015  0.6620
  106CHL1   H2A14078   1.302   2.449  16.720  1.3084 -1.4154 -1.4063
  106CHL1   H2B14079   1.210   2.596  16.688 -1.5666 -2.3152  0.3272
  106CHL1   C2014080   1.274   2.569  15.714  0.5204  0.2654  0.4020
  106CHL1   H2014081   1.204   2.655  15.704  0.0056 -0.3123 -1.2749
  106CHL1   C2114082   1.191   2.440  15.731 -0.0812 -0.3087  0.7064
  106CHL1  H21A14083   1.141   2.410  15.637 -0.5518 -0.5969  1.0458
  106CHL1  H21B14084   1.114   2.451  15.810  1.5735 -1.6127  2.6173
  106CHL1  H21C14085   1.253   2.358  15.773 -1.2228 -0.6118  1.8378
  106CHL1   C2214086   1.351   2.555  15.577 -0.0715 -0.0046 -0.1616
  106CHL1  H22A14087   1.281   2.509  15.504  0.0190 -0.0033 -0.2500
  106CHL1  H22B14088   1.383   2.656  15.543  1.4594 -1.1840 -2.5257
  106CHL1   C2314089   1.480   2.469  15.575 -0.3037  0.3942  0.7682
  106CHL1  H23A14090   1.557   2.513  15.642 -1.0627  0.8072  1.3925
  106CHL1  H23B14091   1.461   2.373  15.629  4.3280  0.1596  2.3953
  106CHL1   C2414092   1.552   2.447  15.434  0.3711 -0.3109 -0.3001
  106CHL1  H24A14093   1.638   2.377  15.443  0.7234  0.0315 -0.9264
  106CHL1  H24B14094   1.478   2.401  15.364 -1.8276  1.8831  0.4747
  106CHL1   C2514095   1.603   2.576  15.371 -0.1400 -0.0265 -0.3414
  106CHL1   H2514096   1.517   2.640  15.345 -1.6241 -2.5492 -2.0146
  106CHL1   C2614097   1.709   2.650  15.455  0.5193  0.1782  0.3235
  106CHL1  H26A14098   1.659   2.690  15.546  1.9991 -0.0300  1.2714
  106CHL1  H26B14099   1.784   2.579  15.495  0.0255 -1.0216 -0.8166
  106CHL1  H26C14100   1.759   2.735  15.403 -2.2672  1.8913  0.2614
  106CHL1   C2714101   1.672   2.536  15.235 -0.0983  0.2328 -0.0176
  106CHL1  H27A14102   1.600   2.492  15.163  0.3903  1.5261 -1.3420
  106CHL1  H27B14103   1.716   2.627  15.190  2.2203 -0.3576  0.9198
  106CHL1  H27C14104   1.755   2.463  15.237  0.1607  0.5307  0.1230
  107CHL1    C314105   4.034   6.314  16.719  0.3256  0.5502 -0.2817
  107CHL1    H314106   4.072   6.219  16.763 -0.0732 -0.5720 -2.2501
  107CHL1    O314107   4.018   6.397  16.832 -0.3219  0.3456 -0.2241
  107CHL1   H3'14108   3.966   6.346  16.895  0.3976  0.3364  0.3789
  107CHL1    C414109   4.151   6.370  16.633 -0.4183 -0.4993 -0.2193
  107CHL1   H4A14110   4.112   6.472  16.613 -1.4757 -0.6029  1.1571
  107CHL1   H4B14111   4.245   6.371  16.692 -0.8520  0.4132  0.4820
  107CHL1    C514112   4.163   6.312  16.497  0.6601 -0.5211  0.4251
  107CHL1    C614113   4.279   6.255  16.457  0.1916 -0.1959 -0.4083
  107CHL1    H614114   4.370   6.260  16.519 -0.4017 -1.4198  0.6309
  107CHL1    C714115   4.287   6.188  16.319 -0.0809 -0.8879  0.0500
  107CHL1   H7A14116   4.381   6.225  16.273  0.2186  0.9613  2.0063
  107CHL1   H7B14117   4.301   6.078  16.310 -0.6587 -0.8451 -1.9768
  107CHL1    C814118   4.168   6.221  16.227 -0.1184 -0.4416 -0.2880
  107CHL1    H814119   4.176   6.329  16.202 -0.6663 -0.4344 -0.4574
  107CHL1   C1414120   4.185   6.143  16.100  0.3436  0.4629  0.3795
  107CHL1   H1414121   4.184   6.040  16.143 -0.7291  0.1608 -0.3143
  107CHL1   C1514122   4.313   6.153  16.024 -0.5111  1.6266  0.3621
  107CHL1  H15A14123   4.345   6.257  16.003 -0.8798  1.6997  0.1476
  107CHL1  H15B14124   4.400   6.109  16.079 -1.0845  0.7118  0.5700
  107CHL1   C1614125   4.271   6.094  15.883  0.6430  0.5104  0.5099
  107CHL1  H16A14126   4.291   6.174  15.809 -0.0361  2.3362  2.2133
  107CHL1  H16B14127   4.326   6.002  15.856  1.0778 -0.4960  4.2744
  107CHL1   C1714128   4.117   6.065  15.882  0.0418 -0.5940  0.1523
  107CHL1   H1714129   4.089   5.965  15.921 -1.3579 -0.3121 -0.0888
  107CHL1   C1314130   4.064   6.154  16.001 -0.3976  1.4199  0.1463
  107CHL1   C1814131   4.049   6.301  15.956 -0.0935 -0.2902 -0.3090
  107CHL1  H18A14132   3.970   6.308  15.878  2.0858 -1.9130 -2.8111
  107CHL1  H18B14133   4.025   6.370  16.040 -1.5538 -2.8093  1.4855
  107CHL1  H18C14134   4.146   6.329  15.910 -0.4775  2.0568  0.1676
  107CHL1   C1214135   3.944   6.095  16.075  0.0248 -0.1714 -0.2284
  107CHL1  H12A14136   3.856   6.093  16.007 -0.3694  1.4023  0.1919
  107CHL1  H12B14137   3.967   5.988  16.094 -0.5952 -0.4576 -1.0281
  107CHL1   C1114138   3.913   6.184  16.201 -0.2499  0.5435 -0.0358
  107CHL1  H11A14139   3.881   6.289  16.183 -0.5568  0.3426 -0.6981
  107CHL1  H11B14140   3.830   6.130  16.251 -0.2223 -0.1077 -0.6773
  107CHL1    C914141   4.040   6.199  16.301 -0.2613  0.3095  0.2140
  107CHL1    H914142   4.039   6.099  16.349 -0.2610  0.5296  0.6869
  107CHL1   C1014143   4.022   6.299  16.417 -0.5735 -0.4044 -0.2005
  107CHL1   C1914144   3.988   6.444  16.372  0.1517 -0.6654  1.0061
  107CHL1  H19A14145   3.972   6.505  16.463  0.0614 -0.9228  1.1608
  107CHL1  H19B14146   4.074   6.491  16.319 -0.7457  1.7469  1.5693
  107CHL1  H19C14147   3.895   6.470  16.317 -1.1167  2.4030  4.2341
  107CHL1    C114148   3.910   6.245  16.510  0.7161  0.1924  0.0616
  107CHL1   H1A14149   3.816   6.263  16.453  1.8105  2.6190 -1.1070
  107CHL1   H1B14150   3.929   6.140  16.539  0.9282  0.3759  0.6008
  107CHL1    C214151   3.904   6.310  16.647  0.3826 -0.1777  0.0450
  107CHL1   H2A14152   3.840   6.243  16.707 -1.3201  0.7981 -0.6112
  107CHL1   H2B14153   3.847   6.405  16.639  0.3366 -0.0958  1.1414
  107CHL1   C2014154   4.053   6.078  15.735  0.5400  0.1911  0.1748
  107CHL1   H2014155   4.065   6.185  15.708  0.0917 -0.0707 -1.1205
  107CHL1   C2114156   3.907   6.034  15.732  0.5939  0.2939 -0.0462
  107CHL1  H21A14157   3.872   6.037  15.626  0.3826  1.0833  0.0419
  107CHL1  H21B14158   3.841   6.099  15.793 -0.2932 -1.4363  0.9061
  107CHL1  H21C14159   3.895   5.928  15.764 -1.5974  1.0662  1.9377
  107CHL1   C2214160   4.135   6.001  15.623 -0.4568  0.5236 -0.4395
  107CHL1  H22A14161   4.244   6.012  15.639 -0.3210 -2.1201  1.0623
  107CHL1  H22B14162   4.107   5.894  15.632 -1.3906  0.7364 -0.6386
  107CHL1   C2314163   4.116   6.058  15.478 -0.0248 -0.1125  0.4495
  107CHL1  H23A14164   4.013   6.042  15.440  0.1237 -0.2304  0.0920
  107CHL1  H23B14165   4.126   6.168  15.493 -2.9921  0.8530 -2.9923
  107CHL1   C2414166   4.205   5.996  15.369 -0.8219  0.1664 -0.4751
  107CHL1  H24A14167   4.312   6.021  15.387 -0.9111 -0.3609  0.9407
  107CHL1  H24B14168   4.205   5.888  15.393  1.0234  0.1497 -0.4040
  107CHL1   C2514169   4.165   6.015  15.226  0.3120 -0.1890 -0.5966
  107CHL1   H2514170   4.062   5.974  15.220 -0.8943  2.4530  0.5705
  107CHL1   C2614171   4.161   6.157  15.181 -0.3159 -0.4598 -0.7721
  107CHL1  H26A14172   4.146   6.158  15.071  0.1913 -1.0270 -0.8473
  107CHL1  H26B14173   4.073   6.211  15.223  1.1489  0.7863  0.8424
  107CHL1  H26C14174   4.246   6.220  15.216 -2.4005  0.7100  2.7704
  107CHL1   C2714175   4.259   5.939  15.138  0.0605 -0.2163  0.8944
  107CHL1  H27A14176   4.248   5.832  15.165 -0.2240 -0.4429 -0.0822
  107CHL1  H27B14177   4.241   5.963  15.031  3.0951  2.5685  0.8523
  107CHL1  H27C14178   4.361   5.974  15.163  0.8053 -1.3317 -0.4275
  108CHL1    C314179   6.086   3.258  16.761 -0.0498  0.2294 -0.3774
  108CHL1    H314180   6.007   3.181  16.749  0.7260 -0.5641 -0.5017
  108CHL1    O314181   6.150   3.232  16.888  0.2124  0.3037  0.2805
  108CHL1   H3'14182   6.111   3.294  16.950 -0.4956 -0.2232  0.3800
  108CHL1    C414183   6.181   3.248  16.643 -0.2682  0.7645  0.6790
  108CHL1   H4A14184   6.270   3.310  16.667  0.4037 -0.2496  0.8681
  108CHL1   H4B14185   6.221   3.144  16.647  2.3469  1.4903 -2.7757
  108CHL1    C514186   6.108   3.274  16.514  0.1521  0.4126 -0.5921
  108CHL1    C614187   6.111   3.184  16.413 -0.4456 -0.3607 -0.4915
  108CHL1    H614188   6.166   3.089  16.426 -3.0600 -1.6772  2.4168
  108CHL1    C714189   6.056   3.204  16.276  0.2909  0.6276  0.2171
  108CHL1   H7A14190   6.132   3.195  16.194  1.8041 -0.7652  1.7024
  108CHL1   H7B14191   5.986   3.123  16.250  1.6026 -0.8588  1.1672
  108CHL1    C814192   6.004   3.354  16.259  0.9431 -0.4071  0.4260
  108CHL1    H814193   6.090   3.420  16.236 -0.1002  0.6653 -0.5561
  108CHL1   C1414194   5.902   3.359  16.144 -0.9470 -0.4734 -0.4822
  108CHL1   H1414195   5.816   3.297  16.178 -2.0754  1.0801 -0.3877
  108CHL1   C1514196   5.954   3.302  16.013 -0.2461 -0.0201  0.3512
  108CHL1  H15A14197   6.053   3.344  15.987  0.2163 -1.7974 -0.9344
  108CHL1  H15B14198   5.962   3.191  16.007  0.3628 -0.0653  1.6456
  108CHL1   C1614199   5.848   3.352  15.920  0.0975 -0.0084  0.7212
  108CHL1  H16A14200   5.885   3.394  15.824 -1.2989  0.5950  0.4269
  108CHL1  H16B14201   5.791   3.263  15.885  1.1155  0.2912 -1.8967
  108CHL1   C1714202   5.753   3.456  15.993 -0.8427 -0.0332  0.5649
  108CHL1   H1714203   5.665   3.394  16.020 -0.6054 -0.9308 -0.6565
  108CHL1   C1314204   5.837   3.496  16.113  0.3756  0.5612  0.5855
  108CHL1   C1814205   5.950   3.589  16.068 -0.3295  0.3874 -0.3563
  108CHL1  H18A14206   6.019   3.586  16.156 -0.6042 -0.9436 -0.1646
  108CHL1  H18B14207   6.009   3.566  15.977  0.3607  2.2955 -0.4462
  108CHL1  H18C14208   5.913   3.692  16.051  0.6474  0.6411 -1.0283
  108CHL1   C1214209   5.771   3.547  16.245  0.4328 -0.6512 -0.0343
  108CHL1  H12A14210   5.739   3.652  16.226  2.1845 -0.0015  0.4134
  108CHL1  H12B14211   5.678   3.491  16.270 -1.2026  2.0214  0.3694
  108CHL1   C1114212   5.869   3.546  16.363  0.0271  0.0412  0.0410
  108CHL1  H11A14213   5.940   3.631  16.351  0.0200  0.0097 -0.2227
  108CHL1  H11B14214   5.798   3.559  16.448 -1.5804  1.3136 -1.4220
  108CHL1    C914215   5.938   3.409  16.387  0.2034  0.1375 -0.8460
  108CHL1    H914216   5.856   3.335  16.401  0.6687 -0.1595  0.4127
  108CHL1   C1014217   6.032   3.407  16.515 -0.0301  1.4169  0.4684
  108CHL1   C1914218   6.127   3.528  16.507  0.2648  0.7243 -0.8404
  108CHL1  H19A14219   6.190   3.515  16.416  2.1793 -0.6503  0.5873
  108CHL1  H19B14220   6.070   3.622  16.516  0.5167  0.8745 -0.8179
  108CHL1  H19C14221   6.194   3.524  16.596 -1.1591  2.3890  0.3690
  108CHL1    C114222   5.939   3.423  16.638  0.5924  0.9947  0.2048
  108CHL1   H1A14223   5.872   3.511  16.642 -2.8947 -1.3826 -0.9902
  108CHL1   H1B14224   5.856   3.349  16.631  1.1266  0.5045 -1.3998
  108CHL1    C214225   6.010   3.392  16.772  0.0840  0.3035 -0.3014
  108CHL1   H2A14226   5.944   3.402  16.860  1.9943  2.9378  0.9885
  108CHL1   H2B14227   6.075   3.478  16.799 -1.5732  1.0822  1.4458
  108CHL1   C2014228   5.694   3.564  15.904 -0.0059 -0.1674 -0.3872
  108CHL1   H2014229   5.776   3.617  15.850 -0.4050  2.8807  1.7073
  108CHL1   C2114230   5.609   3.661  15.979  0.3671  0.5454 -0.2267
  108CHL1  H21A14231   5.563   3.743  15.920  1.0519  1.7505  0.8628
  108CHL1  H21B14232   5.662   3.721  16.056 -0.2031 -0.7662  1.2476
  108CHL1  H21C14233   5.530   3.596  16.024  2.1848 -0.6672  1.3489
  108CHL1   C2214234   5.615   3.500  15.786 -0.8860 -0.5843 -0.3216
  108CHL1  H22A14235   5.668   3.413  15.742 -1.4676  0.1431 -2.6132
  108CHL1  H22B14236   5.517   3.479  15.833  0.0950 -2.0790  1.1805
  108CHL1   C2314237   5.601   3.601  15.666  0.0174  0.0563 -0.4664
  108CHL1  H23A14238   5.541   3.690  15.694 -0.7093  0.4530 -3.0466
  108CHL1  H23B14239   5.698   3.634  15.624  0.0830 -1.3674 -1.5014
  108CHL1   C2414240   5.532   3.521  15.552 -0.0437 -0.5882  0.0895
  108CHL1  H24A14241   5.583   3.423  15.544  0.6798 -0.3049  1.0302
  108CHL1  H24B14242   5.423   3.509  15.571 -0.5982  1.5936 -1.3462
  108CHL1   C2514243   5.542   3.593  15.415  0.3379 -0.6292 -1.0638
  108CHL1   H2514244   5.651   3.599  15.396  0.2616 -0.2312 -1.3743
  108CHL1   C2614245   5.472   3.514  15.307 -0.2418  0.5260 -0.0434
  108CHL1  H26A14246   5.494   3.553  15.206 -0.6276  1.5134  0.2430
  108CHL1  H26B14247   5.519   3.414  15.298 -0.8916  0.0713  1.2504
  108CHL1  H26C14248   5.363   3.503  15.325  0.0148  0.3976  1.6506
  108CHL1   C2714249   5.477   3.739  15.425 -0.3629 -0.2856 -0.0446
  108CHL1  H27A14250   5.559   3.808  15.457 -0.4375 -0.7125  1.1422
  108CHL1  H27B14251   5.446   3.775  15.325 -0.1316  0.3500  0.1073
  108CHL1  H27C14252   5.389   3.734  15.493 -0.8052  0.0312 -0.5912
  109CHL1    C314253   3.107   6.257  16.654 -0.8044  0.4421  0.0912
  109CHL1    H314254   3.074   6.359  16.625 -1.8790 -0.2675 -1.2983
  109CHL1    O314255   3.121   6.245  16.795 -0.2989 -0.5587  0.1243
  109CHL1   H3'14256   3.030   6.251  16.826  0.7706  0.6574  3.3958
  109CHL1    C414257   3.004   6.160  16.602 -0.0055  0.6963  0.2261
  109CHL1   H4A14258   3.027   6.053  16.625 -0.1548  0.2672 -1.4623
  109CHL1   H4B14259   2.909   6.171  16.658  0.6700 -1.5168  1.9697
  109CHL1    C514260   2.986   6.166  16.450 -0.3007 -0.0509  0.2023
  109CHL1    C614261   2.871   6.203  16.394 -0.5317 -0.6126 -0.2889
  109CHL1    H614262   2.788   6.235  16.459 -0.8257 -1.6085 -0.1562
  109CHL1    C714263   2.847   6.200  16.246  0.0135  0.2641  0.3234
  109CHL1   H7A14264   2.746   6.156  16.232  0.2796 -0.5885  1.0036
  109CHL1   H7B14265   2.848   6.306  16.212 -0.3281 -0.0277 -0.6230
  109CHL1    C814266   2.957   6.138  16.169 -0.4054  0.4640 -0.4428
  109CHL1    H814267   2.940   6.030  16.188 -0.3081  0.7675  1.5730
  109CHL1   C1414268   2.953   6.176  16.021  0.4377  0.7422  0.0840
  109CHL1   H1414269   2.986   6.282  16.023  0.6157  0.6909  2.0418
  109CHL1   C1514270   2.824   6.163  15.949  0.6028  0.0797  0.1701
  109CHL1  H15A14271   2.774   6.064  15.959  0.5093  0.0645 -0.3950
  109CHL1  H15B14272   2.751   6.243  15.975 -0.6015 -1.9371  3.5700
  109CHL1   C1614273   2.864   6.176  15.803  0.2600 -0.3969  0.8323
  109CHL1  H16A14274   2.799   6.108  15.745  1.8042  0.4585 -2.1197
  109CHL1  H16B14275   2.840   6.272  15.753 -1.7433 -0.4354  1.6410
  109CHL1   C1714276   3.018   6.154  15.796  1.1428 -0.1842  0.4002
  109CHL1   H1714277   3.061   6.256  15.783  2.3231 -0.7262 -0.0762
  109CHL1   C1314278   3.055   6.100  15.936 -0.0983 -0.7261 -0.7139
  109CHL1   C1814279   3.029   5.947  15.942  0.6402 -1.1171  0.5397
  109CHL1  H18A14280   3.026   5.903  16.044 -1.2125 -0.0583  0.9774
  109CHL1  H18B14281   2.928   5.917  15.906  1.1001 -2.8421  0.5615
  109CHL1  H18C14282   3.099   5.891  15.876  0.6760 -1.8871  1.2116
  109CHL1   C1214283   3.195   6.139  15.986 -0.3724 -0.1747  0.1885
  109CHL1  H12A14284   3.269   6.079  15.928  0.7775  1.3126  0.0729
  109CHL1  H12B14285   3.223   6.245  15.972 -2.2698  0.4806  1.0332
  109CHL1   C1114286   3.209   6.112  16.131 -0.7009 -0.0302  0.0604
  109CHL1  H11A14287   3.211   6.001  16.137  0.5007 -0.0131  0.3976
  109CHL1  H11B14288   3.305   6.154  16.169  0.7533 -3.9149  1.1352
  109CHL1    C914289   3.092   6.169  16.221 -1.3837 -0.3855 -0.1935
  109CHL1    H914290   3.098   6.280  16.213 -3.3345 -0.1564  1.0414
  109CHL1   C1014291   3.112   6.134  16.369  0.0995  0.4518  0.1617
  109CHL1   C1914292   3.150   5.989  16.395  0.1682 -1.2767 -0.2604
  109CHL1  H19A14293   3.140   5.960  16.502 -0.3407  1.4547  0.5097
  109CHL1  H19B14294   3.073   5.923  16.348 -1.0703  0.1799 -0.3702
  109CHL1  H19C14295   3.253   5.972  16.357  0.2577 -1.7051  0.1626
  109CHL1    C114296   3.228   6.223  16.439 -0.1271  1.0439 -0.0523
  109CHL1   H1A14297   3.328   6.190  16.401 -0.1898  0.2990  0.4107
  109CHL1   H1B14298   3.214   6.324  16.396  0.0013  0.6200 -1.1103
  109CHL1    C214299   3.238   6.224  16.592  0.4039 -0.0113  0.0457
  109CHL1   H2A14300   3.311   6.301  16.626  2.7634 -1.4339 -1.5036
  109CHL1   H2B14301   3.278   6.127  16.629 -1.1714 -0.6900  0.0354
  109CHL1   C2014302   3.051   6.072  15.669  0.0063 -0.5898  0.7056
  109CHL1   H2014303   3.014   5.968  15.681  0.5009 -0.7217  1.0866
  109CHL1   C2114304   3.202   6.056  15.655 -0.2189 -0.3898 -0.5452
  109CHL1  H21A14305   3.231   6.013  15.556 -0.8342 -2.0388 -0.0375
  109CHL1  H21B14306   3.244   5.984  15.728 -1.6036  0.4014  1.0844
  109CHL1  H21C14307   3.255   6.153  15.666  1.6485 -1.3653 -0.4474
  109CHL1   C2214308   2.992   6.128  15.535  0.0373 -0.7610 -0.3826
  109CHL1  H22A14309   3.021   6.075  15.441 -2.2969 -0.2226 -1.4784
  109CHL1  H22B14310   2.881   6.127  15.535  0.0041 -0.1066 -1.8215
  109CHL1   C2314311   3.022   6.278  15.504 -0.2280 -0.2173 -0.3130
  109CHL1  H23A14312   2.986   6.352  15.580  0.1357  0.1654 -0.5068
  109CHL1  H23B14313   3.133   6.292  15.500 -0.3697  0.9218 -0.7940
  109CHL1   C2414314   2.965   6.335  15.372 -0.4709 -0.1260 -0.1338
  109CHL1  H24A14315   3.006   6.292  15.279  0.4547  1.1388 -0.3379
  109CHL1  H24B14316   2.864   6.291  15.355 -1.2942  1.7663 -0.4082
  109CHL1   C2514317   2.972   6.490  15.359  0.1195  0.7320  0.0192
  109CHL1   H2514318   2.946   6.534  15.458 -1.3309  1.2271 -0.5446
  109CHL1   C2614319   3.104   6.540  15.312 -0.2820 -0.3960  0.9062
  109CHL1  H26A14320   3.092   6.647  15.283 -0.3145 -1.2040 -2.5134
  109CHL1  H26B14321   3.185   6.527  15.386  0.1357  0.1496  0.5555
  109CHL1  H26C14322   3.139   6.489  15.219  0.2648  0.9571  0.3311
  109CHL1   C2714323   2.854   6.553  15.278 -0.1067 -0.6490  0.2798
  109CHL1  H27A14324   2.757   6.516  15.318 -0.6309  1.8826  1.5427
  109CHL1  H27B14325   2.854   6.664  15.275 -0.1135 -0.6163  1.1802
  109CHL1  H27C14326   2.870   6.522  15.173  0.0424 -0.5743  0.2807
  110CHL1    C314327   1.748   5.438  16.671  0.0901  0.0925  0.4331
  110CHL1    H314328   1.741   5.338  16.717  0.5166  0.1845  0.6934
  110CHL1    O314329   1.754   5.527  16.778 -0.2973 -0.5670  0.0939
  110CHL1   H3'14330   1.757   5.618  16.748  1.6757 -0.5891  0.1091
  110CHL1    C414331   1.884   5.448  16.596  0.2101  0.2407 -0.3729
  110CHL1   H4A14332   1.917   5.545  16.553  0.7956 -0.0352 -0.5656
  110CHL1   H4B14333   1.964   5.427  16.670  1.5593  0.0979 -1.8015
  110CHL1    C514334   1.878   5.357  16.470 -0.4410 -0.4495  0.0324
  110CHL1    C614335   1.973   5.264  16.450  0.1648  0.2038  0.4846
  110CHL1    H614336   2.057   5.246  16.519 -1.4814 -2.1485  2.0225
  110CHL1    C714337   1.971   5.166  16.337  0.1888 -0.5813 -0.0088
  110CHL1   H7A14338   2.073   5.172  16.293  0.7029  0.9706  1.2909
  110CHL1   H7B14339   1.947   5.060  16.357 -0.1373 -0.2330  1.5604
  110CHL1    C814340   1.881   5.210  16.220  0.6749  0.0113  0.8009
  110CHL1    H814341   1.928   5.298  16.171  1.8848 -1.5813 -1.0108
  110CHL1   C1414342   1.865   5.101  16.116  0.0289 -0.4369 -0.3228
  110CHL1   H1414343   1.823   5.011  16.165 -0.1796 -0.3176 -0.2845
  110CHL1   C1514344   1.987   5.055  16.036 -0.4053 -0.3500  0.1831
  110CHL1  H15A14345   2.055   5.135  15.998  0.1293 -0.7831  0.2142
  110CHL1  H15B14346   2.050   4.979  16.086  0.8335  0.2574 -0.4019
  110CHL1   C1614347   1.933   4.984  15.909  0.8619  0.5648  0.5686
  110CHL1  H16A14348   1.976   5.031  15.818  2.4537 -0.2285  0.8728
  110CHL1  H16B14349   1.969   4.879  15.903  2.0774  1.0590 -3.1355
  110CHL1   C1714350   1.780   5.010  15.911  0.1997  0.3440  0.6302
  110CHL1   H1714351   1.730   4.925  15.963 -0.5663  0.4069 -0.0019
  110CHL1   C1314352   1.766   5.127  16.001  0.1679  0.2141  0.2120
  110CHL1   C1814353   1.803   5.250  15.918 -0.1490 -0.6912  0.1416
  110CHL1  H18A14354   1.896   5.251  15.856  0.2584  1.8465  0.7042
  110CHL1  H18B14355   1.715   5.259  15.851 -0.4411 -3.3374  0.0514
  110CHL1  H18C14356   1.797   5.336  15.988  0.9089 -0.2887 -0.2435
  110CHL1   C1214357   1.633   5.141  16.070 -0.0240  0.2144 -0.2645
  110CHL1  H12A14358   1.553   5.173  16.000  1.0825  1.0839 -1.1588
  110CHL1  H12B14359   1.602   5.053  16.130 -0.1931  1.5097  1.6235
  110CHL1   C1114360   1.634   5.257  16.167  0.4092  0.0913 -0.2092
  110CHL1  H11A14361   1.640   5.360  16.125  0.0879  0.7945  1.3934
  110CHL1  H11B14362   1.534   5.262  16.216  0.9671  0.4080  0.9258
  110CHL1    C914363   1.743   5.241  16.278  0.3911 -0.7972  0.2676
  110CHL1    H914364   1.700   5.162  16.343  1.8219 -0.6441  1.4527
  110CHL1   C1014365   1.752   5.364  16.378 -0.8407  0.5267 -0.0602
  110CHL1   C1914366   1.758   5.495  16.305 -0.4529  0.0741 -0.6208
  110CHL1  H19A14367   1.660   5.502  16.253  0.7315 -1.4574 -3.2169
  110CHL1  H19B14368   1.753   5.585  16.370 -0.0634 -0.6930  0.5204
  110CHL1  H19C14369   1.844   5.499  16.236 -0.4103  0.1219 -0.5661
  110CHL1    C114370   1.625   5.368  16.459 -0.1658 -0.1764 -0.2912
  110CHL1   H1A14371   1.536   5.384  16.394 -1.8368  0.4679  2.0407
  110CHL1   H1B14372   1.610   5.265  16.498  0.0670 -0.2574 -0.4137
  110CHL1    C214373   1.626   5.467  16.586  0.1665  0.4261  0.0832
  110CHL1   H2A14374   1.532   5.446  16.641  0.7121  0.6354  1.1232
  110CHL1   H2B14375   1.630   5.574  16.557 -2.2520  0.7278  0.6780
  110CHL1   C2014376   1.716   4.997  15.761  0.6334 -0.3166  0.4218
  110CHL1   H2014377   1.749   5.082  15.696 -0.2510 -0.9516 -0.9109
  110CHL1   C2114378   1.561   5.002  15.767 -0.0094 -0.4384  0.2425
  110CHL1  H21A14379   1.528   4.933  15.847 -0.7136 -0.9101 -0.4468
  110CHL1  H21B14380   1.512   4.973  15.672  1.8706 -2.4005 -0.2073
  110CHL1  H21C14381   1.529   5.103  15.803  1.1009  0.1988 -0.4984
  110CHL1   C2214382   1.766   4.864  15.692  1.1176 -0.4429 -0.4041
  110CHL1  H22A14383   1.870   4.828  15.713  1.0043  0.9033  3.0484
  110CHL1  H22B14384   1.698   4.784  15.728  1.0584 -0.3450 -0.2973
  110CHL1   C2314385   1.755   4.875  15.543 -0.3180  0.2839 -0.2847
  110CHL1  H23A14386   1.744   4.771  15.503 -1.9700 -0.6293  2.3046
  110CHL1  H23B14387   1.656   4.919  15.519 -0.4673  0.1487  0.0824
  110CHL1   C2414388   1.862   4.952  15.464  0.6763 -0.1196  0.1508
  110CHL1  H24A14389   1.879   5.046  15.521  0.0294 -0.2770  0.6331
  110CHL1  H24B14390   1.961   4.903  15.472 -0.1352 -1.9215 -0.2503
  110CHL1   C2514391   1.817   4.974  15.322 -0.9251 -0.3032  0.1355
  110CHL1   H2514392   1.710   5.005  15.319 -1.2991 -1.4759  0.8147
  110CHL1   C2614393   1.907   5.087  15.277 -0.4321 -0.1545  0.0802
  110CHL1  H26A14394   1.877   5.180  15.330 -2.6370 -0.9676  0.3373
  110CHL1  H26B14395   2.017   5.070  15.284 -0.1867  0.2782 -1.9696
  110CHL1  H26C14396   1.893   5.097  15.167 -3.1432  0.1034  0.3972
  110CHL1   C2714397   1.828   4.855  15.232  0.1739  0.5408  0.0670
  110CHL1  H27A14398   1.744   4.787  15.258  0.0755 -1.0378 -3.6681
  110CHL1  H27B14399   1.823   4.878  15.123  0.3542 -3.0460 -0.8220
  110CHL1  H27C14400   1.926   4.806  15.253  0.2215  0.9298  0.7766
  111CHL1    C314401   3.393   1.055  16.697  0.3080  0.1139 -0.4104
  111CHL1    H314402   3.289   1.092  16.686  0.4885  1.1468  1.1506
  111CHL1    O314403   3.408   1.030  16.834  0.3976 -0.2196  0.5183
  111CHL1   H3'14404   3.372   1.101  16.888 -0.2677 -0.6936  0.7064
  111CHL1    C414405   3.432   0.933  16.621 -0.1168  0.3724  0.0255
  111CHL1   H4A14406   3.536   0.903  16.646  0.3331  1.2487 -0.7407
  111CHL1   H4B14407   3.377   0.845  16.661  1.2161 -0.2801  0.4953
  111CHL1    C514408   3.415   0.956  16.476  0.5496  0.2086  0.7113
  111CHL1    C614409   3.349   0.863  16.399  0.1152  0.4536 -0.7675
  111CHL1    H614410   3.295   0.778  16.445 -0.1470  1.1136  0.1640
  111CHL1    C714411   3.349   0.867  16.248  0.3242  0.2921  0.7198
  111CHL1   H7A14412   3.390   0.773  16.206  0.4431  0.9410 -0.7052
  111CHL1   H7B14413   3.245   0.878  16.210 -0.2048  0.1915  2.0884
  111CHL1    C814414   3.435   0.981  16.176 -0.7026  0.4588 -0.0331
  111CHL1    H814415   3.537   0.939  16.163 -0.4539  1.2037 -0.5201
  111CHL1   C1414416   3.391   1.020  16.040  0.4311 -0.2042 -0.3715
  111CHL1   H1414417   3.288   1.060  16.047 -0.5603 -2.1772 -2.5403
  111CHL1   C1514418   3.374   0.907  15.929 -0.3723 -0.1872  0.0432
  111CHL1  H15A14419   3.470   0.858  15.903 -0.0016  0.0230  0.9902
  111CHL1  H15B14420   3.289   0.840  15.958 -0.8997 -0.0282 -1.0729
  111CHL1   C1614421   3.338   0.993  15.799 -0.5210  0.1585  0.8120
  111CHL1  H16A14422   3.379   0.943  15.710 -1.3253 -1.1682  1.1710
  111CHL1  H16B14423   3.228   0.992  15.789 -0.2763 -0.3724 -2.8752
  111CHL1   C1714424   3.394   1.135  15.826  0.1488 -0.0909 -0.1288
  111CHL1   H1714425   3.306   1.201  15.846  0.7567  0.1671  1.9496
  111CHL1   C1314426   3.464   1.128  15.963  0.5833  0.1702 -0.0727
  111CHL1   C1814427   3.613   1.073  15.937  0.1167  0.7549 -0.4487
  111CHL1  H18A14428   3.658   1.053  16.036 -2.1412  2.8745  1.1319
  111CHL1  H18B14429   3.618   0.982  15.873  0.4651 -2.0906  3.2589
  111CHL1  H18C14430   3.666   1.160  15.893 -2.3144  2.4220 -0.3325
  111CHL1   C1214431   3.465   1.254  16.050  0.3339  0.1586  0.1821
  111CHL1  H12A14432   3.535   1.329  16.007  2.2054 -1.7809 -0.2708
  111CHL1  H12B14433   3.367   1.308  16.050  0.3635  0.2428 -1.4324
  111CHL1   C1114434   3.514   1.233  16.196  0.3316  0.3974  0.0043
  111CHL1  H11A14435   3.624   1.219  16.188  0.2741  0.4125 -0.8492
  111CHL1  H11B14436   3.495   1.328  16.251 -2.2160 -0.3797  0.5880
  111CHL1    C914437   3.447   1.107  16.264  0.3013  0.1420  0.8165
  111CHL1    H914438   3.341   1.140  16.272  1.2380  2.9827  4.0488
  111CHL1   C1014439   3.494   1.076  16.412  0.0974  0.4460 -0.2901
  111CHL1   C1914440   3.644   1.040  16.415  0.7336 -0.4895 -0.9747
  111CHL1  H19A14441   3.674   1.020  16.520  1.2802 -0.5238 -1.1372
  111CHL1  H19B14442   3.657   0.945  16.358 -1.3480 -1.2719 -0.2399
  111CHL1  H19C14443   3.702   1.125  16.373 -0.7372  1.3416  0.5121
  111CHL1    C114444   3.475   1.203  16.502  0.1006  0.7394 -0.0525
  111CHL1   H1A14445   3.544   1.283  16.467  1.5491 -0.1735  0.6620
  111CHL1   H1B14446   3.375   1.245  16.477  0.9414  1.2693 -2.8946
  111CHL1    C214447   3.477   1.179  16.654 -0.0795  0.2717 -0.1546
  111CHL1   H2A14448   3.429   1.268  16.698 -2.4304  0.2484 -2.4368
  111CHL1   H2B14449   3.585   1.166  16.678 -0.1297 -0.5205 -0.3205
  111CHL1   C2014450   3.468   1.183  15.705  0.4897  0.1129 -0.4608
  111CHL1   H2014451   3.552   1.114  15.681 -0.4350 -1.6581  1.1189
  111CHL1   C2114452   3.512   1.330  15.726  0.1073 -0.4167 -0.2925
  111CHL1  H21A14453   3.554   1.379  15.636  0.9082  0.4292  0.5153
  111CHL1  H21B14454   3.585   1.351  15.807 -0.5318 -1.3707  0.5594
  111CHL1  H21C14455   3.428   1.394  15.760  0.5070 -0.0315 -0.0187
  111CHL1   C2214456   3.391   1.179  15.572 -0.5652 -0.1858  0.3404
  111CHL1  H22A14457   3.456   1.211  15.488  0.7370 -1.4064  0.8447
  111CHL1  H22B14458   3.366   1.073  15.551 -1.2303  0.0068  0.1434
  111CHL1   C2314459   3.256   1.255  15.573  0.3362 -0.5453 -0.2874
  111CHL1  H23A14460   3.195   1.242  15.665  2.9500  0.6118  1.7412
  111CHL1  H23B14461   3.277   1.364  15.563  3.1058 -1.1077 -1.7385
  111CHL1   C2414462   3.182   1.209  15.443  0.4498 -0.6088  0.0910
  111CHL1  H24A14463   3.247   1.229  15.355 -0.3830  1.1061 -0.1862
  111CHL1  H24B14464   3.173   1.099  15.456 -0.1986 -0.5435  0.2217
  111CHL1   C2514465   3.038   1.259  15.416  0.3159 -0.1938  0.5154
  111CHL1   H2514466   3.050   1.369  15.412 -1.1839  0.0082  1.0194
  111CHL1   C2614467   2.989   1.235  15.269 -0.1037  0.1012  0.0395
  111CHL1  H26A14468   2.880   1.250  15.255 -0.0677  1.2822  0.8372
  111CHL1  H26B14469   3.032   1.308  15.197  0.1034 -1.4835 -1.5068
  111CHL1  H26C14470   3.013   1.134  15.229 -2.2918  0.4757 -2.5133
  111CHL1   C2714471   2.944   1.225  15.529  0.6081 -0.2895 -0.0029
  111CHL1  H27A14472   2.920   1.118  15.547  1.2813 -0.0283  2.9049
  111CHL1  H27B14473   2.985   1.277  15.618 -2.1869  2.4881 -0.1490
  111CHL1  H27C14474   2.845   1.275  15.520  0.3662 -0.2502  2.2628
  112CHL1    C314475   4.447   1.195  16.731  0.0908  0.0928  0.6093
  112CHL1    H314476   4.369   1.128  16.771  1.8600 -3.6877 -1.7214
  112CHL1    O314477   4.494   1.282  16.842  0.3875 -0.2042  0.3155
  112CHL1   H3'14478   4.415   1.321  16.881  0.2694  0.2833 -0.3902
  112CHL1    C414479   4.569   1.116  16.677 -0.1351  0.0736  0.2880
  112CHL1   H4A14480   4.654   1.186  16.662  0.5264 -0.9500 -0.9371
  112CHL1   H4B14481   4.605   1.052  16.760  0.6744  0.1548  0.0114
  112CHL1    C514482   4.549   1.051  16.546 -0.2284 -0.0104  0.0695
  112CHL1    C614483   4.572   0.919  16.538  0.9920 -0.6114  0.0726
  112CHL1    H614484   4.610   0.857  16.621  0.0667 -0.4105  0.6558
  112CHL1    C714485   4.539   0.848  16.414 -0.2036  0.2725  0.2045
  112CHL1   H7A14486   4.630   0.787  16.392  0.4113  1.4180 -0.4964
  112CHL1   H7B14487   4.456   0.776  16.429 -1.8662  2.0941  0.1476
  112CHL1    C814488   4.515   0.931  16.283  0.0268 -0.6208  0.3466
  112CHL1    H814489   4.612   0.972  16.248  1.0145 -3.1684 -0.1432
  112CHL1   C1414490   4.449   0.846  16.181 -0.5646 -0.3972  0.3889
  112CHL1   H1414491   4.350   0.826  16.229 -0.3964  0.9068  1.3257
  112CHL1   C1514492   4.512   0.716  16.156  0.5838 -0.3377  0.2922
  112CHL1  H15A14493   4.622   0.731  16.164  0.4016  3.1591 -1.7089
  112CHL1  H15B14494   4.487   0.649  16.241 -1.7014 -2.3226 -1.7879
  112CHL1   C1614495   4.480   0.679  16.015  0.5755 -0.0579  1.0014
  112CHL1  H16A14496   4.566   0.667  15.947  0.5958  0.4491  0.9320
  112CHL1  H16B14497   4.420   0.586  16.019  0.4087  0.0586  1.2773
  112CHL1   C1714498   4.387   0.792  15.965  0.3888 -0.7526  0.1735
  112CHL1   H1714499   4.283   0.774  15.999 -0.0633 -0.1426 -0.8497
  112CHL1   C1314500   4.434   0.921  16.049 -0.0536 -0.1352  0.5619
  112CHL1   C1814501   4.567   0.971  15.985  0.1368  0.4042 -0.2432
  112CHL1  H18A14502   4.625   0.895  15.929  0.1031 -0.2919  0.6394
  112CHL1  H18B14503   4.548   1.046  15.906  3.3642 -0.4385 -2.0065
  112CHL1  H18C14504   4.632   1.033  16.050  1.1394  0.4230 -1.2411
  112CHL1   C1214505   4.332   1.031  16.074  0.1259 -0.5041 -1.3742
  112CHL1  H12A14506   4.294   1.091  15.988  0.9664  2.9331  0.4546
  112CHL1  H12B14507   4.240   0.993  16.123  0.9411  1.2168  1.7506
  112CHL1   C1114508   4.391   1.134  16.182 -0.0182  0.5174 -0.0173
  112CHL1  H11A14509   4.490   1.179  16.160 -0.3846  1.6646  0.5733
  112CHL1  H11B14510   4.318   1.213  16.210  0.5411  0.6842  1.0084
  112CHL1    C914511   4.426   1.054  16.315  0.5753  1.0176 -0.0024
  112CHL1    H914512   4.330   1.009  16.347  1.0930 -1.3088 -1.4259
  112CHL1   C1014513   4.487   1.136  16.434 -0.0015  0.5195  0.0006
  112CHL1   C1914514   4.603   1.223  16.388 -0.1992 -0.1840  0.6780
  112CHL1  H19A14515   4.681   1.159  16.341 -2.5952 -3.7365  1.1864
  112CHL1  H19B14516   4.574   1.300  16.312  2.1360  1.8490  1.7007
  112CHL1  H19C14517   4.652   1.279  16.470 -0.9580  0.1560  0.9101
  112CHL1    C114518   4.364   1.229  16.481 -0.1092 -0.4589  0.5132
  112CHL1   H1A14519   4.331   1.306  16.409  1.6737 -0.5830 -0.5005
  112CHL1   H1B14520   4.273   1.165  16.481 -1.2445  1.0999 -0.3193
  112CHL1    C214521   4.386   1.288  16.625 -0.1965 -0.3209  0.0477
  112CHL1   H2A14522   4.288   1.321  16.666 -0.4785  1.1958 -1.6946
  112CHL1   H2B14523   4.450   1.377  16.611  0.5719 -1.0041 -0.9772
  112CHL1   C2014524   4.375   0.801  15.810 -0.3694  0.2751  0.6981
  112CHL1   H2014525   4.480   0.797  15.775 -0.8182 -0.5983 -0.6423
  112CHL1   C2114526   4.297   0.924  15.760 -0.1232  0.9126  0.3306
  112CHL1  H21A14527   4.279   0.928  15.651  3.5011  0.0593 -0.4486
  112CHL1  H21B14528   4.353   1.017  15.784  1.0692  0.1368  0.6977
  112CHL1  H21C14529   4.202   0.915  15.817 -0.1923 -1.3019 -0.0234
  112CHL1   C2214530   4.305   0.683  15.753  0.3472 -0.0234  0.1226
  112CHL1  H22A14531   4.349   0.588  15.790  0.4451 -0.5627 -1.3064
  112CHL1  H22B14532   4.195   0.690  15.767 -0.0216 -1.6108 -1.5895
  112CHL1   C2314533   4.312   0.663  15.605  0.0191 -0.0357  0.5028
  112CHL1  H23A14534   4.287   0.755  15.547 -0.8023 -0.0185  0.8710
  112CHL1  H23B14535   4.403   0.621  15.557 -2.7460 -1.2402 -4.3210
  112CHL1   C2414536   4.199   0.561  15.555 -0.7110 -0.6347 -0.7172
  112CHL1  H24A14537   4.232   0.465  15.600  1.8754  0.6112  0.2478
  112CHL1  H24B14538   4.104   0.601  15.598  0.2822 -0.3452  1.3530
  112CHL1   C2514539   4.194   0.554  15.402  0.1915  0.8728  0.0946
  112CHL1   H2514540   4.283   0.497  15.367 -0.7220 -0.9820  0.6252
  112CHL1   C2614541   4.076   0.455  15.364 -0.1799 -0.3139  0.1467
  112CHL1  H26A14542   4.073   0.438  15.254  2.0537 -2.3566  0.3314
  112CHL1  H26B14543   4.089   0.353  15.405  0.3083 -0.6609 -0.8274
  112CHL1  H26C14544   3.984   0.504  15.402  1.1682  0.8626  2.0639
  112CHL1   C2714545   4.194   0.676  15.314 -0.2333 -0.1966 -0.4039
  112CHL1  H27A14546   4.290   0.732  15.309 -0.3176  0.3405  2.5445
  112CHL1  H27B14547   4.181   0.639  15.210  1.5497  0.2723 -0.8248
  112CHL1  H27C14548   4.109   0.744  15.336  1.9034  1.7589  2.4203
  113CHL1    C314549   1.100   5.302  16.615 -0.0765 -0.2905 -0.2002
  113CHL1    H314550   1.022   5.379  16.597  0.6218  1.1117  2.3119
  113CHL1    O314551   1.102   5.298  16.753 -0.1149 -0.4345 -0.2741
  113CHL1   H3'14552   1.168   5.233  16.776  0.0436 -0.3446 -0.4853
  113CHL1    C414553   1.049   5.160  16.575 -0.0936 -0.0548  0.2949
  113CHL1   H4A14554   1.118   5.083  16.615  1.3765  1.4606  0.8076
  113CHL1   H4B14555   0.951   5.136  16.621 -0.6421 -0.9290 -1.2208
  113CHL1    C514556   1.042   5.162  16.424  0.0680  0.5663  0.2021
  113CHL1    C614557   0.919   5.136  16.363 -0.2759  0.5721  0.3901
  113CHL1    H614558   0.832   5.114  16.426 -0.0048 -0.0899  0.5420
  113CHL1    C714559   0.904   5.123  16.214 -0.3112 -0.0675  0.7267
  113CHL1   H7A14560   0.838   5.033  16.206 -1.6798  0.8611  1.1896
  113CHL1   H7B14561   0.849   5.212  16.178 -0.1342 -0.5628 -0.8796
  113CHL1    C814562   1.041   5.111  16.137  0.1321 -0.3576  0.0935
  113CHL1    H814563   1.085   5.011  16.159  0.2357 -0.8101 -1.9002
  113CHL1   C1414564   1.025   5.137  15.992 -0.2965  0.0271 -0.2852
  113CHL1   H1414565   0.984   5.240  15.989  1.1146  0.6869  1.5070
  113CHL1   C1514566   0.927   5.046  15.914 -0.0889  0.3148 -0.0996
  113CHL1  H15A14567   0.942   4.939  15.941  1.4448  0.1097 -1.5876
  113CHL1  H15B14568   0.822   5.073  15.938 -0.3470  1.3884 -2.2255
  113CHL1   C1614569   0.962   5.068  15.770 -0.7366 -0.3796  0.5339
  113CHL1  H16A14570   0.958   4.971  15.716  0.5349 -0.0174 -0.2494
  113CHL1  H16B14571   0.891   5.129  15.711 -0.7069 -1.4750 -0.6834
  113CHL1   C1714572   1.099   5.146  15.768 -0.1387  0.8341 -0.3248
  113CHL1   H1714573   1.077   5.254  15.764 -0.2087  0.8194 -0.3428
  113CHL1   C1314574   1.157   5.130  15.912 -0.2052  0.9304 -0.1619
  113CHL1   C1814575   1.221   4.988  15.926 -0.0600  0.8648  0.2933
  113CHL1  H18A14576   1.280   4.968  16.018 -2.4683  1.5362  2.0730
  113CHL1  H18B14577   1.150   4.907  15.897 -0.3973  0.8311  1.1804
  113CHL1  H18C14578   1.314   4.994  15.866  0.9068 -0.5885  1.5856
  113CHL1   C1214579   1.250   5.238  15.959 -0.3162 -0.0440 -0.3077
  113CHL1  H12A14580   1.345   5.242  15.902  0.0717  3.2843  0.3567
  113CHL1  H12B14581   1.195   5.332  15.938  0.8204  0.2506 -2.1848
  113CHL1   C1114582   1.265   5.235  16.112 -0.1557  0.2287 -0.1190
  113CHL1  H11A14583   1.317   5.137  16.112 -2.3300 -1.1568 -3.9119
  113CHL1  H11B14584   1.311   5.327  16.152 -0.9484 -0.2568  2.0457
  113CHL1    C914585   1.137   5.217  16.194  0.0062  0.2706 -0.8181
  113CHL1    H914586   1.087   5.317  16.193  0.3028  0.5122  1.6887
  113CHL1   C1014587   1.169   5.195  16.349 -0.3703  0.4598  0.0195
  113CHL1   C1914588   1.258   5.069  16.370 -0.5997 -0.0387 -0.3103
  113CHL1  H19A14589   1.226   4.976  16.318  0.4802 -1.5023  1.5141
  113CHL1  H19B14590   1.358   5.095  16.328 -1.3600  3.8797 -0.0528
  113CHL1  H19C14591   1.276   5.045  16.477 -0.2393 -1.9674 -0.7621
  113CHL1    C114592   1.235   5.322  16.404  0.4012  0.5264 -0.6753
  113CHL1   H1A14593   1.337   5.327  16.361 -0.3260  0.9113 -2.4275
  113CHL1   H1B14594   1.184   5.417  16.377  2.0044  1.2700 -1.1538
  113CHL1    C214595   1.236   5.330  16.556  0.0051 -0.3102 -0.2430
  113CHL1   H2A14596   1.272   5.429  16.592 -0.1026 -0.3755  0.0459
  113CHL1   H2B14597   1.321   5.278  16.605  1.4062  2.5560  0.6297
  113CHL1   C2014598   1.185   5.111  15.645  0.3667 -0.1127 -0.0926
  113CHL1   H2014599   1.228   5.010  15.656 -1.0181 -0.8212 -0.8981
  113CHL1   C2114600   1.297   5.212  15.626 -0.8802 -0.5153  0.0746
  113CHL1  H21A14601   1.385   5.176  15.684 -0.6579 -0.4620 -0.2282
  113CHL1  H21B14602   1.258   5.311  15.659 -5.2237 -1.5175 -1.3784
  113CHL1  H21C14603   1.330   5.230  15.521  2.4088 -0.4181  1.0314
  113CHL1   C2214604   1.093   5.105  15.515  0.1397  0.3620 -0.8068
  113CHL1  H22A14605   1.163   5.077  15.433  1.6752 -0.1253  0.6144
  113CHL1  H22B14606   1.024   5.019  15.527  1.0086 -0.5308 -1.9691
  113CHL1   C2314607   1.029   5.232  15.457  0.3573 -0.0594  0.1656
  113CHL1  H23A14608   0.955   5.265  15.533 -0.4979 -0.9266 -0.2766
  113CHL1  H23B14609   1.096   5.320  15.446  0.4647 -0.2456 -0.7191
  113CHL1   C2414610   0.974   5.197  15.315  0.1898  0.0387  0.3054
  113CHL1  H24A14611   1.054   5.151  15.252 -0.4557 -2.1063  0.9718
  113CHL1  H24B14612   0.902   5.115  15.332  1.6159 -1.5598 -0.9830
  113CHL1   C2514613   0.915   5.314  15.229  0.5666  1.1100 -0.4276
  113CHL1   H2514614   0.828   5.353  15.285 -0.0448 -0.2118 -0.4155
  113CHL1   C2614615   1.012   5.416  15.183 -0.5008 -0.7047 -0.4446
  113CHL1  H26A14616   1.100   5.383  15.124  0.3804  0.0315  0.4184
  113CHL1  H26B14617   0.973   5.496  15.117 -1.2314  0.1136  0.9329
  113CHL1  H26C14618   1.054   5.470  15.271 -2.0567 -0.7716  0.3711
  113CHL1   C2714619   0.865   5.261  15.098 -0.7435  0.3603  0.4172
  113CHL1  H27A14620   0.955   5.226  15.043 -1.3079  0.3548 -0.5097
  113CHL1  H27B14621   0.804   5.168  15.104  0.6738 -0.6212  0.4104
  113CHL1  H27C14622   0.821   5.343  15.038  1.7671  0.7712 -1.0096
  114CHL1    C314623   5.415   7.673  16.759  0.5276 -0.0487  0.4462
  114CHL1    H314624   5.517   7.713  16.771  1.5766 -2.2305 -0.5571
  114CHL1    O314625   5.355   7.619  16.876 -0.3511 -0.0921 -0.8541
  114CHL1   H3'14626   5.412   7.653  16.946 -1.7375  0.3142  0.1196
  114CHL1    C414627   5.335   7.798  16.713 -0.4380 -0.2053  0.2786
  114CHL1   H4A14628   5.230   7.763  16.705 -0.2096 -0.5016 -2.2307
  114CHL1   H4B14629   5.345   7.877  16.790  1.8971 -0.0796 -0.0941
  114CHL1    C514630   5.375   7.846  16.576  0.5041 -0.4224 -0.3177
  114CHL1    C614631   5.411   7.975  16.550 -0.1103 -0.6777  0.2274
  114CHL1    H614632   5.411   8.054  16.627 -1.1566  0.1117 -0.5428
  114CHL1    C714633   5.431   8.029  16.410 -0.1995  0.0310  0.2593
  114CHL1   H7A14634   5.382   8.128  16.398  0.7109  0.6235  1.2281
  114CHL1   H7B14635   5.540   8.046  16.404 -0.1141 -0.8036 -0.6894
  114CHL1    C814636   5.382   7.938  16.295  0.3564 -0.2244 -0.1451
  114CHL1    H814637   5.273   7.957  16.300  0.2835 -0.8840  1.8960
  114CHL1   C1414638   5.443   7.974  16.158 -0.2054  0.6642 -0.1318
  114CHL1   H1414639   5.551   7.951  16.160 -0.4365 -0.6316 -1.1889
  114CHL1   C1514640   5.428   8.114  16.103  0.2998 -0.0957  0.5277
  114CHL1  H15A14641   5.322   8.146  16.116  0.3710  1.3126 -1.7630
  114CHL1  H15B14642   5.489   8.179  16.169  0.6936 -0.8949  0.9685
  114CHL1   C1614643   5.457   8.109  15.951 -0.0678  0.2363 -0.3399
  114CHL1  H16A14644   5.378   8.158  15.891  0.5537 -2.1068 -3.3409
  114CHL1  H16B14645   5.546   8.168  15.919  0.1650  0.1477  0.1244
  114CHL1   C1714646   5.458   7.959  15.916  0.2192 -0.4855  0.3783
  114CHL1   H1714647   5.562   7.921  15.911  0.6011  0.4603  0.8616
  114CHL1   C1314648   5.391   7.891  16.042  0.2200 -0.3478  0.0476
  114CHL1   C1814649   5.238   7.904  16.027 -0.6338 -0.4409 -0.4242
  114CHL1  H18A14650   5.194   7.877  16.125  1.6242  1.2924  1.1848
  114CHL1  H18B14651   5.203   8.008  16.009 -1.6830 -0.7645 -0.3093
  114CHL1  H18C14652   5.192   7.842  15.948 -1.2499 -1.0554  0.4081
  114CHL1   C1214653   5.423   7.738  16.063 -0.4901 -0.3922 -0.8625
  114CHL1  H12A14654   5.372   7.672  15.990  0.0602 -1.5974 -0.1713
  114CHL1  H12B14655   5.533   7.724  16.058 -0.4154 -0.9940  1.4797
  114CHL1   C1114656   5.381   7.693  16.209  0.0489 -0.2986 -0.4108
  114CHL1  H11A14657   5.271   7.686  16.197 -0.5520  0.6416  3.3745
  114CHL1  H11B14658   5.416   7.589  16.226  1.4239  0.4947  2.0083
  114CHL1    C914659   5.422   7.790  16.323 -0.0159  0.2554  0.5911
  114CHL1    H914660   5.533   7.797  16.332 -0.0002  3.0505 -0.5755
  114CHL1   C1014661   5.368   7.745  16.465  0.0643  0.5546  0.7378
  114CHL1   C1914662   5.222   7.686  16.445 -1.2336 -1.2476 -0.3617
  114CHL1  H19A14663   5.178   7.663  16.545 -0.4379  3.6077  1.3956
  114CHL1  H19B14664   5.146   7.755  16.401 -0.3241  0.6233  0.8897
  114CHL1  H19C14665   5.207   7.592  16.388 -1.8535 -2.4564  1.6789
  114CHL1    C114666   5.454   7.623  16.511  0.1802 -0.0322 -0.0879
  114CHL1   H1A14667   5.455   7.540  16.438  1.5534  1.0315 -1.3320
  114CHL1   H1B14668   5.558   7.663  16.516  0.3610 -0.5186  0.1680
  114CHL1    C214669   5.421   7.564  16.643 -0.2673 -0.2969 -0.7896
  114CHL1   H2A14670   5.504   7.499  16.676 -0.4363 -0.3006 -0.3637
  114CHL1   H2B14671   5.332   7.497  16.638  1.4633 -2.7215 -0.4655
  114CHL1   C2014672   5.392   7.939  15.774 -0.0449 -0.7130 -0.7756
  114CHL1   H2014673   5.286   7.967  15.794  0.3514  2.1771 -2.2435
  114CHL1   C2114674   5.407   7.788  15.738 -0.2235  1.1378 -0.7195
  114CHL1  H21A14675   5.331   7.724  15.788 -1.7381  2.7336 -0.8476
  114CHL1  H21B14676   5.508   7.752  15.764 -1.9516 -2.3355  2.0565
  114CHL1  H21C14677   5.388   7.779  15.629  0.4679 -2.2300 -0.6645
  114CHL1   C2214678   5.447   8.041  15.664  0.6440 -0.1461 -0.1814
  114CHL1  H22A14679   5.462   8.145  15.700  0.7604 -0.3021  0.2274
  114CHL1  H22B14680   5.549   8.001  15.645  0.7425  0.0114  0.0090
  114CHL1   C2314681   5.362   8.067  15.547  0.6015 -0.4394  0.2057
  114CHL1  H23A14682   5.394   8.161  15.497  0.9001 -0.1288  0.9646
  114CHL1  H23B14683   5.381   7.981  15.479 -0.1790 -0.2730 -0.2407
  114CHL1   C2414684   5.213   8.081  15.576  0.1911 -0.0963 -0.1713
  114CHL1  H24A14685   5.177   7.987  15.622 -0.9106  0.3829 -0.0082
  114CHL1  H24B14686   5.187   8.160  15.650 -2.1480  0.2857 -1.3042
  114CHL1   C2514687   5.125   8.108  15.447  0.5987 -0.4916  0.1175
  114CHL1   H2514688   5.178   8.175  15.376  1.7515 -2.2035 -0.7106
  114CHL1   C2614689   5.089   7.978  15.374 -0.8443 -0.0907 -0.3429
  114CHL1  H26A14690   5.180   7.937  15.326  0.3466 -0.5786  2.1696
  114CHL1  H26B14691   5.052   7.908  15.452  0.3428 -0.0199  0.3127
  114CHL1  H26C14692   5.011   7.999  15.297  0.1376 -0.0389 -1.3449
  114CHL1   C2714693   4.990   8.176  15.477  0.2141 -0.0544  0.1611
  114CHL1  H27A14694   4.919   8.115  15.537  0.9689 -1.6439 -0.5121
  114CHL1  H27B14695   5.017   8.263  15.540  0.8438  0.0654 -0.2644
  114CHL1  H27C14696   4.935   8.213  15.388 -0.5802  0.1215  0.7224
  115CHL1    C314697   2.076   1.077  16.727 -0.2781  0.6872  0.3575
  115CHL1    H314698   2.183   1.107  16.722 -0.3635  0.8257 -2.2607
  115CHL1    O314699   2.055   1.040  16.864 -0.4170  0.0754  0.2983
  115CHL1   H3'14700   2.140   1.013  16.900 -0.8271 -0.6322  0.7652
  115CHL1    C414701   1.984   1.205  16.689  0.0323  0.0508  0.4987
  115CHL1   H4A14702   1.877   1.190  16.717 -0.3322  4.5850  2.5255
  115CHL1   H4B14703   1.998   1.295  16.753 -0.6959 -1.4903  2.9576
  115CHL1    C514704   1.988   1.231  16.536 -0.4221 -0.3742  0.6526
  115CHL1    C614705   2.036   1.346  16.486 -0.0512  0.1014 -0.0516
  115CHL1    H614706   2.052   1.433  16.552  0.4668  0.8471 -1.1336
  115CHL1    C714707   2.051   1.381  16.345  1.0239 -0.2090  0.3606
  115CHL1   H7A14708   2.038   1.488  16.317  1.7800 -0.0743  0.4925
  115CHL1   H7B14709   2.159   1.377  16.320  0.6529 -1.8790 -1.2206
  115CHL1    C814710   1.978   1.277  16.242  0.8176 -0.1789 -0.6025
  115CHL1    H814711   1.874   1.314  16.229 -0.1463 -2.0036  1.3200
  115CHL1   C1414712   2.037   1.294  16.105 -0.7502 -0.0574  0.4856
  115CHL1   H1414713   2.135   1.244  16.116 -0.9093 -0.5139 -0.1040
  115CHL1   C1514714   2.058   1.432  16.049 -0.1879 -0.2041 -0.2739
  115CHL1  H15A14715   1.972   1.495  16.079 -0.5379 -1.0306  0.5301
  115CHL1  H15B14716   2.157   1.461  16.092 -0.1987 -2.6316  1.6177
  115CHL1   C1614717   2.069   1.411  15.899  0.5291 -0.2788 -0.4037
  115CHL1  H16A14718   1.991   1.460  15.838  0.2368 -2.2859 -1.7223
  115CHL1  H16B14719   2.169   1.455  15.878  0.0565  0.9317 -0.1880
  115CHL1   C1714720   2.046   1.259  15.877 -0.1318  0.4624 -0.8832
  115CHL1   H1714721   2.141   1.202  15.891 -0.7301 -0.0936  1.2758
  115CHL1   C1314722   1.962   1.211  16.003  0.4005  0.4518  0.4532
  115CHL1   C1814723   1.816   1.253  15.980  0.1139  0.1761 -0.2401
  115CHL1  H18A14724   1.772   1.228  16.079  0.5581 -3.0390 -0.7373
  115CHL1  H18B14725   1.814   1.363  15.970 -1.8115  0.1796 -0.1061
  115CHL1  H18C14726   1.767   1.206  15.893  1.3390 -0.2723 -0.7178
  115CHL1   C1214727   1.975   1.062  16.037 -0.0312 -0.2267 -0.8379
  115CHL1  H12A14728   1.907   0.997  15.978 -1.0250 -0.8456  0.9188
  115CHL1  H12B14729   2.080   1.026  16.028  0.4295  1.0489 -0.7246
  115CHL1   C1114730   1.939   1.033  16.189  0.1661 -0.5684  0.3296
  115CHL1  H11A14731   1.830   1.051  16.182 -0.1807 -2.0753  1.4393
  115CHL1  H11B14732   1.942   0.928  16.224  1.3074 -0.4813  0.5277
  115CHL1    C914733   1.992   1.135  16.292  0.1314  0.0298 -0.0654
  115CHL1    H914734   2.102   1.115  16.288 -0.1169 -1.3183 -0.5899
  115CHL1   C1014735   1.958   1.109  16.439  0.2050 -0.5465  0.7307
  115CHL1   C1914736   1.809   1.073  16.451 -0.0079 -0.5625  0.4235
  115CHL1  H19A14737   1.734   1.152  16.431 -2.0942 -2.2457  1.2486
  115CHL1  H19B14738   1.789   0.988  16.382 -3.8588  2.1206 -2.2219
  115CHL1  H19C14739   1.789   1.029  16.551 -2.1679 -2.0579 -0.5904
  115CHL1    C114740   2.039   0.989  16.489 -0.4636  0.3684  0.0082
  115CHL1   H1A14741   2.008   0.903  16.427  0.7450  0.1617 -0.3310
  115CHL1   H1B14742   2.147   1.001  16.465 -0.2894  0.8524  0.9702
  115CHL1    C214743   2.041   0.957  16.641 -0.0252  0.0637 -0.0708
  115CHL1   H2A14744   2.113   0.875  16.663  1.4167  1.7436  1.9234
  115CHL1   H2B14745   1.939   0.920  16.667  0.3275  0.6074  2.3867
  115CHL1   C2014746   1.999   1.233  15.735 -0.2202 -0.2923 -0.5614
  115CHL1   H2014747   1.896   1.275  15.727  0.6929  1.9585 -1.2407
  115CHL1   C2114748   1.994   1.083  15.702  0.3534 -0.3080  0.3523
  115CHL1  H21A14749   1.940   1.066  15.607  0.5140  1.5292 -0.1024
  115CHL1  H21B14750   1.933   1.035  15.781 -0.5073  0.5328  0.2256
  115CHL1  H21C14751   2.090   1.032  15.680  0.3915  0.5199 -1.5824
  115CHL1   C2214752   2.078   1.315  15.627  0.1711 -0.2545 -0.8414
  115CHL1  H22A14753   2.038   1.282  15.528  0.5940 -1.1698 -0.7224
  115CHL1  H22B14754   2.053   1.423  15.633 -0.3631 -0.3963 -0.3824
  115CHL1   C2314755   2.225   1.279  15.624 -0.4817 -0.1889 -0.1634
  115CHL1  H23A14756   2.278   1.302  15.719  0.7071  2.5437 -1.3935
  115CHL1  H23B14757   2.243   1.172  15.599  2.0684  0.1286  0.0462
  115CHL1   C2414758   2.295   1.363  15.525  0.1866  0.1186  0.0598
  115CHL1  H24A14759   2.241   1.356  15.428 -1.4043  1.5075  0.7897
  115CHL1  H24B14760   2.287   1.470  15.552  0.3904 -0.2249  1.6017
  115CHL1   C2514761   2.442   1.324  15.506  0.6466 -0.6662 -0.0246
  115CHL1   H2514762   2.483   1.318  15.609  1.5633 -0.5956 -0.3777
  115CHL1   C2614763   2.458   1.180  15.452 -0.2266  0.5460  0.3742
  115CHL1  H26A14764   2.568   1.166  15.456 -0.1004  1.8023  2.5695
  115CHL1  H26B14765   2.412   1.101  15.515 -1.8321 -0.8336 -2.3054
  115CHL1  H26C14766   2.425   1.172  15.346 -0.2542 -2.0171  0.4993
  115CHL1   C2714767   2.524   1.430  15.432  0.6365  1.1104 -0.4643
  115CHL1  H27A14768   2.512   1.528  15.484 -0.1589  1.5891 -1.5068
  115CHL1  H27B14769   2.633   1.411  15.429  0.7225  1.1804  1.2984
  115CHL1  H27C14770   2.472   1.448  15.336 -2.2406  1.7325  1.0911
  116CHL1    C314771   2.742   0.721  16.566 -0.0614 -0.2553 -1.2066
  116CHL1    H314772   2.634   0.738  16.552 -0.3943 -0.5864  0.6437
  116CHL1    O314773   2.762   0.743  16.707  0.5136 -0.2886 -0.2728
  116CHL1   H3'14774   2.855   0.764  16.715  0.1347  1.5201 -0.2838
  116CHL1    C414775   2.801   0.585  16.528 -0.6007 -0.0471 -0.0669
  116CHL1   H4A14776   2.902   0.584  16.575 -1.2581  0.4903  1.4162
  116CHL1   H4B14777   2.757   0.503  16.590  1.2551 -0.3768  0.8987
  116CHL1    C514778   2.795   0.556  16.381 -0.3653 -0.2142  0.4732
  116CHL1    C614779   2.726   0.453  16.323 -0.6853 -0.1619 -0.1774
  116CHL1    H614780   2.683   0.375  16.388 -2.4887  0.6790 -0.2927
  116CHL1    C714781   2.723   0.425  16.181 -0.0031 -0.1073  0.4826
  116CHL1   H7A14782   2.737   0.319  16.151  1.3856  0.3296 -0.5525
  116CHL1   H7B14783   2.625   0.452  16.137  0.8587  1.0989 -0.8172
  116CHL1    C814784   2.825   0.500  16.098 -0.3662  0.7585  0.2272
  116CHL1    H814785   2.925   0.455  16.117 -1.0901 -1.8750 -1.5481
  116CHL1   C1414786   2.812   0.491  15.940  0.1320 -0.0736  0.3494
  116CHL1   H1414787   2.724   0.554  15.916  0.1419  0.9922  2.8462
  116CHL1   C1514788   2.789   0.356  15.880 -0.4358 -0.2159 -0.2256
  116CHL1  H15A14789   2.863   0.282  15.919 -0.3234 -0.5852 -1.1185
  116CHL1  H15B14790   2.690   0.311  15.902  0.4463 -1.6923  0.9630
  116CHL1   C1614791   2.807   0.382  15.725 -0.1241  0.1102  0.2438
  116CHL1  H16A14792   2.877   0.310  15.677  2.0433  1.4074  1.2921
  116CHL1  H16B14793   2.707   0.385  15.678  0.3275  1.3963 -0.6680
  116CHL1   C1714794   2.864   0.531  15.705 -1.2294  0.6591 -0.0216
  116CHL1   H1714795   2.778   0.597  15.684 -0.5243  1.7342  0.3715
  116CHL1   C1314796   2.917   0.561  15.846 -0.1717 -0.0690 -0.4707
  116CHL1   C1814797   3.056   0.489  15.884  0.8146  0.2052  0.3054
  116CHL1  H18A14798   3.078   0.472  15.992  0.5456 -0.4365  0.2684
  116CHL1  H18B14799   3.049   0.384  15.848  3.3011 -0.8336  2.4479
  116CHL1  H18C14800   3.147   0.529  15.835  0.9894  0.2448  0.6573
  116CHL1   C1214801   2.911   0.708  15.893 -0.2278 -0.0641 -0.3335
  116CHL1  H12A14802   2.984   0.763  15.830  3.0658 -2.3873  1.1851
  116CHL1  H12B14803   2.812   0.744  15.858 -1.2361 -0.8208  1.6361
  116CHL1   C1114804   2.924   0.730  16.047  0.7062  0.4256 -0.6426
  116CHL1  H11A14805   3.029   0.702  16.069  0.2199  0.1224  1.6216
  116CHL1  H11B14806   2.913   0.839  16.064  2.3973  0.6042 -0.4929
  116CHL1    C914807   2.832   0.641  16.146  0.4207  0.2249 -0.8896
  116CHL1    H914808   2.732   0.684  16.124  0.1449 -0.8158 -1.7817
  116CHL1   C1014809   2.856   0.663  16.300  0.5387  0.3092  0.5760
  116CHL1   C1914810   3.008   0.663  16.322  0.4992 -0.8132 -0.2703
  116CHL1  H19A14811   3.032   0.672  16.430  0.0193 -2.4116  0.0069
  116CHL1  H19B14812   3.061   0.572  16.285  1.6700 -0.9850  1.6805
  116CHL1  H19C14813   3.055   0.754  16.280  1.0312 -0.1459  1.6517
  116CHL1    C114814   2.799   0.806  16.330 -0.4697  0.1198 -0.0382
  116CHL1   H1A14815   2.864   0.884  16.284 -0.5614  0.0012 -0.3705
  116CHL1   H1B14816   2.695   0.816  16.293 -0.1731  0.7619 -0.7205
  116CHL1    C214817   2.809   0.834  16.485 -0.5832  0.4865  0.4800
  116CHL1   H2A14818   2.776   0.936  16.514  0.4687  1.1343 -0.5073
  116CHL1   H2B14819   2.916   0.832  16.515 -0.5706  0.0333  0.4140
  116CHL1   C2014820   2.959   0.531  15.585 -0.5213  0.5268  0.4761
  116CHL1   H2014821   3.044   0.465  15.610 -0.8244  0.7487  2.1542
  116CHL1   C2114822   3.021   0.675  15.573 -0.0681  0.4623  0.0944
  116CHL1  H21A14823   3.073   0.686  15.475 -2.3127 -1.0208 -1.3698
  116CHL1  H21B14824   3.088   0.692  15.660 -0.3377 -1.3356  0.6948
  116CHL1  H21C14825   2.946   0.754  15.592 -1.2057 -0.7174  0.6280
  116CHL1   C2214826   2.890   0.492  15.450 -0.3574 -0.0199 -0.8093
  116CHL1  H22A14827   2.848   0.390  15.452  1.0760 -0.6237  1.2222
  116CHL1  H22B14828   2.814   0.568  15.421 -0.6280 -0.6883 -1.9178
  116CHL1   C2314829   2.993   0.495  15.333  0.3575  0.3062  0.3824
  116CHL1  H23A14830   3.043   0.593  15.312  0.6580  0.4324  1.6486
  116CHL1  H23B14831   3.068   0.420  15.365 -2.0107 -1.1517  2.9372
  116CHL1   C2414832   2.925   0.444  15.203  0.2891  0.2738 -0.3182
  116CHL1  H24A14833   2.858   0.358  15.227  1.6540 -0.8381 -0.3903
  116CHL1  H24B14834   2.861   0.521  15.156 -0.2452 -0.0589 -0.1526
  116CHL1   C2514835   3.030   0.406  15.103 -0.0311  0.3155 -0.8613
  116CHL1   H2514836   3.120   0.468  15.124 -0.5809  1.9207 -2.9608
  116CHL1   C2614837   3.064   0.260  15.119  0.0624  0.8721 -0.0035
  116CHL1  H26A14838   3.100   0.232  15.220 -2.1275  1.9728  1.1405
  116CHL1  H26B14839   2.982   0.195  15.082  1.1554 -1.3756  1.3208
  116CHL1  H26C14840   3.152   0.243  15.052 -2.3511  0.5783 -3.3552
  116CHL1   C2714841   2.997   0.432  14.957  0.2714  0.1412 -0.3817
  116CHL1  H27A14842   2.901   0.379  14.937  0.7870 -1.8075  1.9111
  116CHL1  H27B14843   2.983   0.541  14.941  0.1059  0.0620 -0.7944
  116CHL1  H27C14844   3.079   0.402  14.888 -0.0877  1.3813 -1.3932
  117CHL1    C314845   5.561   1.009  16.689  0.4974 -0.2806  0.1514
  117CHL1    H314846   5.472   1.073  16.708 -0.9228 -1.5791 -1.7382
  117CHL1    O314847   5.655   1.009  16.797  0.2164 -0.0239  0.0931
  117CHL1   H3'14848   5.702   0.926  16.795  2.7029  1.1972  1.7004
  117CHL1    C414849   5.492   0.871  16.663  0.0533 -0.0213  0.3910
  117CHL1   H4A14850   5.568   0.795  16.636 -0.5103 -0.6661  0.6052
  117CHL1   H4B14851   5.433   0.834  16.750 -3.3330 -1.1327 -2.1780
  117CHL1    C514852   5.399   0.873  16.548  1.0356  0.4040 -0.0671
  117CHL1    C614853   5.263   0.856  16.561 -0.2729 -0.0279  0.2412
  117CHL1    H614854   5.234   0.824  16.662 -0.7946  0.4742  0.2520
  117CHL1    C714855   5.164   0.853  16.446 -0.2739 -0.0887 -0.0161
  117CHL1   H7A14856   5.091   0.770  16.452  1.1729 -1.4221 -0.4235
  117CHL1   H7B14857   5.103   0.946  16.449  0.3312  0.3000  0.4110
  117CHL1    C814858   5.234   0.842  16.311  0.5702  0.2061  0.0315
  117CHL1    H814859   5.268   0.738  16.291  2.5073  0.9907 -1.0841
  117CHL1   C1414860   5.132   0.881  16.207 -0.2834  0.0867  0.1138
  117CHL1   H1414861   5.115   0.990  16.219  0.5350  0.6349 -3.0172
  117CHL1   C1514862   4.994   0.812  16.208  0.4754  0.0189  0.0368
  117CHL1  H15A14863   5.009   0.702  16.219  0.8596  0.0706  0.0443
  117CHL1  H15B14864   4.928   0.851  16.288  2.0940  2.4131  0.3047
  117CHL1   C1614865   4.941   0.845  16.069 -0.3418  0.0779 -0.0861
  117CHL1  H16A14866   4.905   0.752  16.021 -1.8876 -0.5844  2.1706
  117CHL1  H16B14867   4.856   0.915  16.080 -0.3812 -0.2242  2.1719
  117CHL1   C1714868   5.049   0.919  15.985  0.6134 -0.3077  0.4393
  117CHL1   H1714869   5.034   1.027  16.008  1.3790 -0.3064  0.9545
  117CHL1   C1314870   5.175   0.882  16.063  0.3629  0.4979  0.3235
  117CHL1   C1814871   5.222   0.740  16.024 -0.1060  0.4443 -0.3248
  117CHL1  H18A14872   5.297   0.700  16.096 -0.0326  2.2487  0.6486
  117CHL1  H18B14873   5.139   0.666  16.027 -0.0740  0.4469  0.6980
  117CHL1  H18C14874   5.271   0.752  15.925 -0.5064  0.4663 -0.5217
  117CHL1   C1214875   5.285   0.986  16.057 -0.1603 -1.1555 -0.0438
  117CHL1  H12A14876   5.337   0.995  15.959  2.7086  1.9977  1.5634
  117CHL1  H12B14877   5.242   1.084  16.085  2.0949 -0.3256  0.7515
  117CHL1   C1114878   5.391   0.956  16.163 -0.1010  0.0774 -0.0608
  117CHL1  H11A14879   5.451   0.872  16.123 -1.5639 -0.7780 -0.5489
  117CHL1  H11B14880   5.461   1.042  16.160 -0.3408  0.2531 -0.7759
  117CHL1    C914881   5.346   0.947  16.309  0.1271  0.5188 -0.2935
  117CHL1    H914882   5.309   1.046  16.343 -0.7781  0.0603  0.0933
  117CHL1   C1014883   5.463   0.917  16.412 -0.1939  0.3621  0.4116
  117CHL1   C1914884   5.548   0.803  16.355 -0.0685  0.2386 -0.0440
  117CHL1  H19A14885   5.629   0.773  16.425 -0.1890 -3.5749 -1.2853
  117CHL1  H19B14886   5.488   0.712  16.332 -0.8333  0.4190  1.2021
  117CHL1  H19C14887   5.597   0.836  16.261  3.5096 -1.8627  0.8758
  117CHL1    C114888   5.551   1.039  16.439 -0.3210 -0.3031  0.5174
  117CHL1   H1A14889   5.623   1.055  16.356 -0.9164  0.2629  0.0932
  117CHL1   H1B14890   5.489   1.131  16.443  2.1561  1.4391  0.9020
  117CHL1    C214891   5.637   1.039  16.564 -0.3480  0.4101 -0.5410
  117CHL1   H2A14892   5.687   1.138  16.565 -0.7856  0.6363  0.8251
  117CHL1   H2B14893   5.715   0.959  16.561 -0.4958  0.2237  0.2444
  117CHL1   C2014894   5.036   0.893  15.835  0.6535  0.2570  0.2908
  117CHL1   H2014895   5.045   0.784  15.816 -1.2468 -0.6013  3.6843
  117CHL1   C2114896   5.134   0.985  15.758  0.0542  0.2288 -0.6963
  117CHL1  H21A14897   5.126   0.995  15.648  0.4419  1.0909 -0.6566
  117CHL1  H21B14898   5.240   0.956  15.772  0.2019  0.6074 -1.0204
  117CHL1  H21C14899   5.123   1.086  15.804  2.0503  0.7978 -1.3500
  117CHL1   C2214900   4.889   0.929  15.779 -0.3491  0.1523  0.0243
  117CHL1  H22A14901   4.819   0.871  15.843 -0.4849  0.6196  0.2970
  117CHL1  H22B14902   4.869   1.036  15.801  0.8725  0.3278  0.3539
  117CHL1   C2314903   4.863   0.897  15.633  0.3393  0.5999  0.3643
  117CHL1  H23A14904   4.929   0.957  15.566 -1.8852  0.0511 -2.5211
  117CHL1  H23B14905   4.889   0.790  15.615 -0.7332  0.4674 -0.5310
  117CHL1   C2414906   4.722   0.929  15.592  0.1611  0.8216  0.3757
  117CHL1  H24A14907   4.649   0.865  15.646  1.0384 -0.8043 -0.2934
  117CHL1  H24B14908   4.693   1.031  15.624  0.6296  0.9327  0.4544
  117CHL1   C2514909   4.705   0.900  15.440 -0.0030 -0.4252 -0.1346
  117CHL1   H2514910   4.811   0.905  15.406 -0.0960  0.4004 -0.3321
  117CHL1   C2614911   4.648   0.759  15.411  0.4161  0.1102  0.6757
  117CHL1  H26A14912   4.654   0.748  15.300 -0.4894  0.8341  0.5445
  117CHL1  H26B14913   4.713   0.685  15.462 -1.0181 -1.0997  0.8317
  117CHL1  H26C14914   4.538   0.747  15.423  0.5745 -2.1337  0.2878
  117CHL1   C2714915   4.612   1.004  15.389 -0.2098  0.2746 -0.0679
  117CHL1  H27A14916   4.592   1.002  15.279  0.8285  2.8471 -0.3695
  117CHL1  H27B14917   4.516   1.018  15.444 -0.0704  1.1700 -0.0425
  117CHL1  H27C14918   4.655   1.106  15.392  0.1737  0.1843 -1.5046
  118CHL1    C314919   0.045   1.281  16.747 -0.1478  0.2269 -0.4768
  118CHL1    H314920  -0.067   1.280  16.745 -0.1586 -0.5861  0.1678
  118CHL1    O314921   0.084   1.310  16.881  0.2642 -0.0750 -0.4466
  118CHL1   H3'14922   0.038   1.249  16.939  1.8268  1.1717  2.2837
  118CHL1    C414923   0.112   1.146  16.709 -0.8199 -0.2135 -0.1485
  118CHL1   H4A14924   0.219   1.159  16.736 -1.6710  1.3299  3.0018
  118CHL1   H4B14925   0.077   1.065  16.777  0.2592 -1.5766 -1.1648
  118CHL1    C514926   0.097   1.110  16.561  0.1617 -0.1075  0.5004
  118CHL1    C614927   0.043   0.993  16.524  0.3857 -0.3136 -0.1505
  118CHL1    H614928   0.011   0.920  16.600 -2.6275  0.8918 -0.1212
  118CHL1    C714929   0.039   0.947  16.378 -0.1765 -0.4764  0.0443
  118CHL1   H7A14930   0.071   0.842  16.365 -0.6730 -0.4514 -1.6141
  118CHL1   H7B14931  -0.067   0.946  16.347 -0.9086 -0.5398  2.3657
  118CHL1    C814932   0.124   1.038  16.288 -0.7579 -0.0411  0.0422
  118CHL1    H814933   0.228   1.003  16.299 -0.2782  1.0292 -0.8601
  118CHL1   C1414934   0.080   1.017  16.149 -0.2904  0.2707 -0.5221
  118CHL1   H1414935  -0.026   1.051  16.154  0.3671  2.2815  3.1019
  118CHL1   C1514936   0.071   0.874  16.103 -0.3008  1.0899  0.4375
  118CHL1  H15A14937   0.158   0.816  16.141 -0.4721 -0.6745 -1.6463
  118CHL1  H15B14938  -0.023   0.826  16.137 -0.6938  0.3445 -1.5599
  118CHL1   C1614939   0.070   0.882  15.948 -0.3091  0.7444 -0.0688
  118CHL1  H16A14940   0.164   0.827  15.923 -1.7464 -2.8444  1.6220
  118CHL1  H16B14941  -0.010   0.826  15.897 -0.0620  1.1258 -0.8854
  118CHL1   C1714942   0.084   1.030  15.912  0.2253 -0.1758 -0.1390
  118CHL1   H1714943  -0.020   1.067  15.901  0.2372  0.5116  1.6275
  118CHL1   C1314944   0.152   1.092  16.038  1.0817  0.4726 -0.5686
  118CHL1   C1814945   0.302   1.052  16.043 -0.0815  0.0077 -0.4176
  118CHL1  H18A14946   0.356   1.113  15.967 -2.4340  4.0306  0.8523
  118CHL1  H18B14947   0.342   1.071  16.145  0.3789  0.4660 -0.6809
  118CHL1  H18C14948   0.318   0.943  16.028  2.3158  0.0112  1.4162
  118CHL1   C1214949   0.137   1.241  16.063  0.7621 -0.2667 -0.6299
  118CHL1  H12A14950   0.192   1.299  15.987 -1.6323  1.7940 -0.9294
  118CHL1  H12B14951   0.034   1.284  16.063  0.4615 -0.8594  1.3540
  118CHL1   C1114952   0.178   1.279  16.213 -0.1998  0.6365 -0.1227
  118CHL1  H11A14953   0.289   1.267  16.218 -0.3662 -1.9452 -1.0975
  118CHL1  H11B14954   0.151   1.385  16.232  0.3941  0.6625  0.6279
  118CHL1    C914955   0.117   1.186  16.321  0.3703  0.2426 -0.2174
  118CHL1    H914956   0.010   1.215  16.321  0.4459  0.5379 -0.7794
  118CHL1   C1014957   0.153   1.219  16.463  0.3433  0.0741  0.1817
  118CHL1   C1914958   0.307   1.212  16.473 -0.2104  0.5075  0.2007
  118CHL1  H19A14959   0.343   1.213  16.578  2.0445  0.6647 -0.5257
  118CHL1  H19B14960   0.339   1.113  16.433 -1.8526  0.3218 -0.7314
  118CHL1  H19C14961   0.361   1.298  16.428  0.6027  2.1177  3.9429
  118CHL1    C114962   0.094   1.362  16.509 -0.3135  0.3206  0.2977
  118CHL1   H1A14963   0.139   1.441  16.444  2.3471 -0.8333  0.6124
  118CHL1   H1B14964  -0.016   1.351  16.497 -0.4456  2.2794 -0.6146
  118CHL1    C214965   0.107   1.391  16.660 -0.4429  0.6607  0.2965
  118CHL1   H2A14966   0.056   1.486  16.686 -0.7736  0.7234 -0.5367
  118CHL1   H2B14967   0.214   1.400  16.689 -0.6623  0.5311  1.1698
  118CHL1   C2014968   0.163   1.052  15.780 -0.3675  0.1317 -0.6471
  118CHL1   H2014969   0.268   1.018  15.796  0.5597  2.9318 -0.0671
  118CHL1   C2114970   0.176   1.189  15.724  0.2009 -0.2168  0.0716
  118CHL1  H21A14971   0.233   1.178  15.629  0.8351  2.2236  0.1221
  118CHL1  H21B14972   0.240   1.255  15.786  0.1898 -0.0940 -0.0479
  118CHL1  H21C14973   0.081   1.240  15.698  0.7215  0.3784 -0.7053
  118CHL1   C2214974   0.103   0.955  15.669 -0.2038 -0.6669  0.0499
  118CHL1  H22A14975   0.178   0.966  15.588  0.1455  2.0396  0.6648
  118CHL1  H22B14976   0.096   0.851  15.707 -1.1918 -0.4549  0.4772
  118CHL1   C2314977  -0.034   0.985  15.602 -0.1733 -0.0678 -0.2343
  118CHL1  H23A14978  -0.111   1.004  15.680 -1.1932  0.6920 -1.3997
  118CHL1  H23B14979  -0.030   1.076  15.539 -1.3657  0.2050  0.0697
  118CHL1   C2414980  -0.084   0.871  15.509 -0.1236 -0.1532 -0.3515
  118CHL1  H24A14981  -0.013   0.853  15.425 -2.6663 -1.3336 -2.4072
  118CHL1  H24B14982  -0.078   0.776  15.566  0.3113 -0.7644 -1.3811
  118CHL1   C2514983  -0.226   0.902  15.450 -0.0636  0.6212 -0.3291
  118CHL1   H2514984  -0.244   1.011  15.440  0.0503  0.4755 -2.8844
  118CHL1   C2614985  -0.232   0.852  15.304  0.2505  0.1431  0.1962
  118CHL1  H26A14986  -0.335   0.873  15.269 -0.5352 -1.6954  1.2768
  118CHL1  H26B14987  -0.157   0.898  15.236 -0.3219 -0.3248 -0.7708
  118CHL1  H26C14988  -0.220   0.742  15.312  0.9339  0.3211  2.1835
  118CHL1   C2714989  -0.346   0.841  15.508  0.3596  0.0782  0.6051
  118CHL1  H27A14990  -0.435   0.887  15.460  0.4428 -1.3985 -1.1004
  118CHL1  H27B14991  -0.361   0.732  15.489 -1.4095  0.1776  1.2230
  118CHL1  H27C14992  -0.338   0.857  15.617  1.8768  0.0658  0.5204
  119CHL1    C314993   1.650   0.148  16.726  0.1604 -0.1033  0.1427
  119CHL1    H314994   1.541   0.147  16.704 -0.4128 -1.2084  2.6516
  119CHL1    O314995   1.661   0.184  16.862 -0.0111 -0.2755  0.6013
  119CHL1   H3'14996   1.668   0.280  16.855  0.4911 -0.4389 -2.5560
  119CHL1    C414997   1.689  -0.003  16.707 -0.1906 -0.0146 -0.3148
  119CHL1   H4A14998   1.790  -0.023  16.748  0.3433  2.2526 -0.4038
  119CHL1   H4B14999   1.615  -0.062  16.765  0.2110 -0.8570 -0.6384
  119CHL1    C515000   1.677  -0.037  16.559  0.5057 -0.5626 -0.2335
  119CHL1    C615001   1.602  -0.140  16.511  0.2236 -0.5004  0.1736
  119CHL1    H615002   1.551  -0.211  16.579  1.4753 -0.9878  0.6289
  119CHL1    C715003   1.594  -0.184  16.369  0.2341  0.0499  0.0909
  119CHL1   H7A15004   1.611  -0.292  16.348  0.3493  0.4399 -1.9762
  119CHL1   H7B15005   1.501  -0.149  16.320  1.1854  2.4174 -0.1408
  119CHL1    C815006   1.692  -0.098  16.287  0.4600 -0.3174 -0.4058
  119CHL1    H815007   1.794  -0.142  16.294  0.2512 -0.7944 -0.3148
  119CHL1   C1415008   1.641  -0.114  16.134  0.3827 -0.3966  0.3193
  119CHL1   H1415009   1.555  -0.044  16.144  0.9279  0.8900 -2.7932
  119CHL1   C1515010   1.608  -0.247  16.072  0.5319  0.1760  0.6088
  119CHL1  H15A15011   1.701  -0.308  16.083  2.3335  2.1582 -2.1838
  119CHL1  H15B15012   1.517  -0.296  16.112  1.4750 -2.5421 -0.3477
  119CHL1   C1615013   1.590  -0.212  15.919  0.0029  0.2159 -0.6772
  119CHL1  H16A15014   1.655  -0.284  15.866 -1.0145 -1.3341  0.0896
  119CHL1  H16B15015   1.485  -0.222  15.884 -0.3516  2.1137 -0.2716
  119CHL1   C1715016   1.642  -0.069  15.901  0.3448  0.2849 -0.5457
  119CHL1   H1715017   1.556  -0.003  15.921  1.0163  0.4483  2.1438
  119CHL1   C1315018   1.734  -0.039  16.037  1.3205  0.3246  0.2719
  119CHL1   C1815019   1.870  -0.100  16.007  0.3954 -0.0417 -0.6950
  119CHL1  H18A15020   1.930  -0.092  16.100 -0.4796  2.5120 -0.2577
  119CHL1  H18B15021   1.866  -0.203  15.966 -1.8514  0.5635 -2.1523
  119CHL1  H18C15022   1.923  -0.044  15.927  1.2123 -0.2996 -0.3416
  119CHL1   C1215023   1.739   0.108  16.078  0.3535 -0.1195  0.1887
  119CHL1  H12A15024   1.809   0.169  16.016  1.1963  0.0600  1.2829
  119CHL1  H12B15025   1.638   0.154  16.068  0.0383 -0.8329  0.0154
  119CHL1   C1115026   1.784   0.121  16.224 -0.1458  0.9939 -0.0930
  119CHL1  H11A15027   1.890   0.089  16.228 -0.3193  0.4746  0.5118
  119CHL1  H11B15028   1.786   0.231  16.243 -0.1171  1.1199 -0.8216
  119CHL1    C915029   1.706   0.049  16.328  0.0571 -0.1376 -0.0139
  119CHL1    H915030   1.605   0.094  16.320  0.1517 -0.1913 -1.8932
  119CHL1   C1015031   1.744   0.068  16.474 -0.4317 -0.6059  0.3461
  119CHL1   C1915032   1.901   0.055  16.491  0.4337  0.2390 -0.3540
  119CHL1  H19A15033   1.954   0.126  16.425  1.5161  1.3823  1.6398
  119CHL1  H19B15034   1.932   0.071  16.597 -0.0406 -0.3407 -0.1183
  119CHL1  H19C15035   1.946  -0.037  16.448  0.4773 -0.7167  1.6022
  119CHL1    C115036   1.714   0.222  16.497 -0.7022  0.9964 -0.1642
  119CHL1   H1A15037   1.781   0.290  16.439 -1.7945  1.8438 -0.4659
  119CHL1   H1B15038   1.614   0.256  16.462 -0.8965 -1.6757 -2.6000
  119CHL1    C215039   1.739   0.246  16.644 -0.1607  0.2120  0.0395
  119CHL1   H2A15040   1.699   0.347  16.667  1.6512  0.6359  1.5979
  119CHL1   H2B15041   1.842   0.218  16.674  0.7642  0.9700 -2.1636
  119CHL1   C2015042   1.712  -0.043  15.760 -0.0433  0.1565  0.6781
  119CHL1   H2015043   1.811  -0.094  15.756  0.1497  0.5799 -0.0995
  119CHL1   C2115044   1.755   0.104  15.747  0.1387 -0.4899 -0.9913
  119CHL1  H21A15045   1.677   0.180  15.770 -0.0872 -1.1954  0.7469
  119CHL1  H21B15046   1.792   0.137  15.647 -2.2183 -0.8454 -2.0356
  119CHL1  H21C15047   1.843   0.123  15.813  1.4303  2.6666 -3.3744
  119CHL1   C2215048   1.614  -0.093  15.648 -0.0635  0.5695 -0.2143
  119CHL1  H22A15049   1.602  -0.203  15.651  2.6721  0.1824 -1.0409
  119CHL1  H22B15050   1.518  -0.043  15.672 -0.0632  0.4371  0.0652
  119CHL1   C2315051   1.656  -0.069  15.500 -0.0599 -0.0723 -0.7807
  119CHL1  H23A15052   1.671   0.040  15.479 -0.2888  0.9416  3.5242
  119CHL1  H23B15053   1.745  -0.131  15.479  0.6726  0.8548 -0.4911
  119CHL1   C2415054   1.548  -0.118  15.406  0.8556 -0.0266 -0.2171
  119CHL1  H24A15055   1.564  -0.226  15.390 -1.9147 -0.4444 -0.7486
  119CHL1  H24B15056   1.444  -0.100  15.443  1.0549 -0.6417  0.6652
  119CHL1   C2515057   1.558  -0.063  15.263 -0.4766 -0.1668  0.5124
  119CHL1   H2515058   1.549   0.047  15.271 -3.5993 -0.3430  0.4918
  119CHL1   C2615059   1.685  -0.116  15.184 -0.1611 -0.0619  0.2480
  119CHL1  H26A15060   1.687  -0.065  15.086 -0.3661 -0.0211  0.2650
  119CHL1  H26B15061   1.779  -0.094  15.239 -0.1456  0.6468 -0.0523
  119CHL1  H26C15062   1.669  -0.226  15.186 -0.2727 -0.0361  1.3914
  119CHL1   C2715063   1.440  -0.101  15.174 -0.6048 -0.2676  0.1011
  119CHL1  H27A15064   1.436  -0.211  15.155  1.0549 -0.1462 -1.2270
  119CHL1  H27B15065   1.343  -0.066  15.214 -0.2713 -1.4220  2.0486
  119CHL1  H27C15066   1.457  -0.051  15.077 -0.4917 -0.3292  0.0891
  120CHL1    C315067   7.411   0.051  16.620  0.1267 -0.3774  0.3429
  120CHL1    H315068   7.301   0.042  16.612  0.1757 -0.0946 -0.8225
  120CHL1    O315069   7.446   0.073  16.755 -0.2915  0.0970  0.1258
  120CHL1   H3'15070   7.540   0.062  16.767 -0.2237  1.3846  0.9237
  120CHL1    C415071   7.479  -0.074  16.563  0.6384 -0.3712  0.5821
  120CHL1   H4A15072   7.588  -0.064  16.549  0.6827 -2.5983 -1.2516
  120CHL1   H4B15073   7.462  -0.147  16.645  0.3887 -0.3746  0.5303
  120CHL1    C515074   7.422  -0.099  16.425 -0.3868  0.5671 -0.3629
  120CHL1    C615075   7.343  -0.207  16.393  0.4104  0.3181 -0.2456
  120CHL1    H615076   7.323  -0.282  16.472  1.5608  1.4217  1.1473
  120CHL1    C715077   7.295  -0.242  16.258 -0.0084 -0.5504  0.8224
  120CHL1   H7A15078   7.289  -0.351  16.238  1.5448 -0.5560  0.2273
  120CHL1   H7B15079   7.188  -0.212  16.251  0.5095  1.3542  0.4272
  120CHL1    C815080   7.367  -0.157  16.148 -0.1335  0.0778  0.0566
  120CHL1    H815081   7.468  -0.203  16.152  0.3787  1.2504  1.4689
  120CHL1   C1415082   7.300  -0.172  16.016 -0.5485  0.0447 -0.0733
  120CHL1   H1415083   7.198  -0.132  16.037 -0.6158  0.7817 -1.6605
  120CHL1   C1515084   7.279  -0.316  15.975  0.3812  0.0391 -0.6845
  120CHL1  H15A15085   7.363  -0.382  16.004  0.6320 -0.1814 -1.8678
  120CHL1  H15B15086   7.179  -0.349  16.011  0.6395  0.4494  0.4529
  120CHL1   C1615087   7.268  -0.313  15.823  0.2828  0.0132 -0.2690
  120CHL1  H16A15088   7.339  -0.382  15.773 -0.0027 -0.8470  0.4772
  120CHL1  H16B15089   7.170  -0.351  15.786  0.3084  1.9099 -2.5408
  120CHL1   C1715090   7.284  -0.166  15.785  0.4746  0.5194 -0.4034
  120CHL1   H1715091   7.185  -0.115  15.783  0.2269  0.0494 -0.2396
  120CHL1   C1315092   7.360  -0.098  15.900 -0.6058  0.8504 -0.1415
  120CHL1   C1815093   7.511  -0.134  15.881  0.0482  0.4184  0.0737
  120CHL1  H18A15094   7.548  -0.046  15.824 -2.4410  3.6645  3.0731
  120CHL1  H18B15095   7.572  -0.129  15.974  0.2715 -0.2711 -0.0240
  120CHL1  H18C15096   7.527  -0.227  15.822  0.1212  0.5908 -0.1806
  120CHL1   C1215097   7.333   0.046  15.936 -0.1683 -0.9749 -0.6583
  120CHL1  H12A15098   7.352   0.126  15.862  1.4274  0.6888  1.4364
  120CHL1  H12B15099   7.227   0.058  15.968 -0.6801 -0.3859 -2.4313
  120CHL1   C1115100   7.419   0.084  16.059  0.3459  0.7846 -0.8127
  120CHL1  H11A15101   7.528   0.072  16.038  0.6368  0.0099  1.0137
  120CHL1  H11B15102   7.398   0.190  16.083  1.7469  0.8638  0.1579
  120CHL1    C915103   7.373  -0.008  16.185 -0.5072  0.2829  0.2651
  120CHL1    H915104   7.265   0.012  16.202 -0.9825 -2.8078  1.4985
  120CHL1   C1015105   7.444   0.009  16.320 -0.2551 -0.4984 -0.8078
  120CHL1   C1915106   7.601   0.007  16.286  0.6301  0.6162  0.4306
  120CHL1  H19A15107   7.635   0.095  16.226  1.7802 -0.7668 -1.0311
  120CHL1  H19B15108   7.671   0.002  16.372  1.5481  3.7963 -0.0064
  120CHL1  H19C15109   7.624  -0.087  16.231  0.2739 -0.8009  2.5704
  120CHL1    C115110   7.410   0.146  16.387  0.4408  0.2556 -0.1123
  120CHL1   H1A15111   7.456   0.216  16.313 -0.7176 -0.3241 -1.4260
  120CHL1   H1B15112   7.301   0.159  16.374  0.2892  2.5793  2.6326
  120CHL1    C215113   7.451   0.177  16.535 -0.0038 -0.0772  0.6043
  120CHL1   H2A15114   7.393   0.259  16.583 -0.5369 -0.3507  0.4342
  120CHL1   H2B15115   7.561   0.191  16.545  0.3213 -2.2371  0.5095
  120CHL1   C2015116   7.334  -0.152  15.646 -0.1961 -0.5004 -0.9348
  120CHL1   H2015117   7.440  -0.182  15.637 -0.1617 -0.3595 -0.9936
  120CHL1   C2115118   7.322  -0.004  15.602  0.5480  0.5568 -0.0174
  120CHL1  H21A15119   7.362   0.016  15.500  1.5880  0.3501  0.3378
  120CHL1  H21B15120   7.370   0.054  15.683  1.7212 -1.3199  0.7020
  120CHL1  H21C15121   7.216   0.029  15.600 -0.6528 -2.9172 -1.9945
  120CHL1   C2215122   7.252  -0.240  15.546 -1.0982 -0.0796 -0.5129
  120CHL1  H22A15123   7.265  -0.344  15.581  0.4286  0.3922  0.4268
  120CHL1  H22B15124   7.144  -0.217  15.538 -1.3177 -1.0105 -0.3345
  120CHL1   C2315125   7.306  -0.245  15.398  0.1680  0.3433  0.3680
  120CHL1  H23A15126   7.314  -0.142  15.358  0.1163 -0.3149 -1.4656
  120CHL1  H23B15127   7.413  -0.272  15.388  0.4286  1.6720 -0.6573
  120CHL1   C2415128   7.225  -0.336  15.301  0.1034 -0.1082 -0.7254
  120CHL1  H24A15129   7.219  -0.438  15.346 -1.0617  1.0969  2.0690
  120CHL1  H24B15130   7.122  -0.295  15.298  0.5058  0.9200 -0.5634
  120CHL1   C2515131   7.276  -0.351  15.158 -0.5712 -0.4039  0.5188
  120CHL1   H2515132   7.379  -0.394  15.161 -0.2251  0.4195  0.9444
  120CHL1   C2615133   7.174  -0.433  15.078 -0.2197  0.8806  0.1791
  120CHL1  H26A15134   7.069  -0.397  15.079 -0.4542  0.2065  0.1563
  120CHL1  H26B15135   7.204  -0.432  14.971 -1.4007 -2.0216 -0.2769
  120CHL1  H26C15136   7.181  -0.541  15.103  0.3783  0.8722 -0.0142
  120CHL1   C2715137   7.302  -0.222  15.076  0.4705 -0.7775 -0.0737
  120CHL1  H27A15138   7.342  -0.236  14.973  1.3925 -0.0465  0.1709
  120CHL1  H27B15139   7.204  -0.173  15.061  0.8850  0.2330  0.4680
  120CHL1  H27C15140   7.355  -0.144  15.134  0.1233 -1.6675  1.5045
  121CHL1    C315141   3.940   3.536  13.252 -0.3101 -0.2434  0.4024
  121CHL1    H315142   3.916   3.431  13.278  0.5881 -0.5338  0.0843
  121CHL1    O315143   3.941   3.546  13.111  0.0985  0.3874 -1.0458
  121CHL1   H3'15144   3.913   3.637  13.100 -1.5769  0.2960  1.6486
  121CHL1    C415145   3.844   3.635  13.314 -0.0846  0.2816 -0.4375
  121CHL1   H4A15146   3.872   3.733  13.270  0.7725  0.3305  0.2006
  121CHL1   H4B15147   3.746   3.602  13.272  0.9063 -2.2821 -0.8955
  121CHL1    C515148   3.850   3.640  13.468 -0.0087  0.2115 -0.2939
  121CHL1    C615149   3.744   3.615  13.551 -0.4635 -0.0776  0.2143
  121CHL1    H615150   3.642   3.602  13.513 -1.1985  0.5655  1.8812
  121CHL1    C715151   3.745   3.629  13.699 -0.2315  0.1506 -0.3654
  121CHL1   H7A15152   3.660   3.691  13.735 -0.7003 -1.5155  1.6591
  121CHL1   H7B15153   3.706   3.532  13.738 -0.9331 -0.0069 -1.4224
  121CHL1    C815154   3.880   3.671  13.760 -0.3201 -0.2108  0.7504
  121CHL1    H815155   3.878   3.782  13.761 -2.8743 -0.1307 -1.1959
  121CHL1   C1415156   3.904   3.625  13.903  0.9706 -0.5004  0.3077
  121CHL1   H1415157   3.899   3.514  13.893 -2.1795 -0.3709 -0.4755
  121CHL1   C1515158   3.787   3.652  14.002 -0.0205  0.1365  0.6661
  121CHL1  H15A15159   3.743   3.752  13.980 -0.8636 -0.3341  0.1256
  121CHL1  H15B15160   3.710   3.571  13.995 -1.0242  1.0276  1.0706
  121CHL1   C1615161   3.850   3.650  14.134  0.1739  0.4747 -0.7121
  121CHL1  H16A15162   3.833   3.738  14.199  1.4714  0.0271  0.2984
  121CHL1  H16B15163   3.796   3.571  14.190  0.2770 -0.1737 -1.5056
  121CHL1   C1715164   3.999   3.616  14.121 -0.9929 -0.9043  0.5651
  121CHL1   H1715165   4.011   3.508  14.097 -0.0881  0.0857 -4.6809
  121CHL1   C1315166   4.029   3.672  13.972  0.4031 -0.6157 -0.0674
  121CHL1   C1815167   4.023   3.829  13.984 -0.1889 -0.3673 -0.4082
  121CHL1  H18A15168   3.946   3.851  14.061  0.9977 -1.5429  1.1844
  121CHL1  H18B15169   4.114   3.868  14.033 -0.5585  0.0133 -0.0075
  121CHL1  H18C15170   3.994   3.881  13.890 -2.8002  2.9787  1.9931
  121CHL1   C1215171   4.150   3.623  13.898 -0.0708 -0.1606 -0.3584
  121CHL1  H12A15172   4.245   3.670  13.934 -0.4668  0.9066 -0.6513
  121CHL1  H12B15173   4.154   3.513  13.892  2.4739 -0.1123 -0.9040
  121CHL1   C1115174   4.140   3.663  13.749  0.2790  0.2392  0.6320
  121CHL1  H11A15175   4.141   3.774  13.741 -1.0544  0.2012 -0.4615
  121CHL1  H11B15176   4.226   3.619  13.695 -0.2515 -1.8304  1.3789
  121CHL1    C915177   4.002   3.625  13.675  0.2678 -0.2977  0.0268
  121CHL1    H915178   4.002   3.515  13.682  1.1877 -0.2252  1.6460
  121CHL1   C1015179   3.987   3.661  13.523 -0.0046  0.1921  0.4307
  121CHL1   C1915180   4.024   3.816  13.502  0.5183 -0.0225 -0.6753
  121CHL1  H19A15181   3.954   3.883  13.557 -0.8151 -0.5481 -1.6604
  121CHL1  H19B15182   4.130   3.842  13.525  1.6394 -1.2210 -3.9864
  121CHL1  H19C15183   4.015   3.841  13.394 -0.7564  1.4209 -0.2789
  121CHL1    C115184   4.099   3.578  13.450 -0.3045  0.0193  0.5031
  121CHL1   H1A15185   4.194   3.622  13.487 -0.5797 -0.4073  1.7550
  121CHL1   H1B15186   4.091   3.470  13.475 -1.6897  0.1714  0.8166
  121CHL1    C215187   4.088   3.578  13.301  0.4668  0.0986  0.5375
  121CHL1   H2A15188   4.164   3.510  13.257 -0.6499  0.7672 -2.7519
  121CHL1   H2B15189   4.100   3.680  13.259 -2.7972  0.4738  0.2539
  121CHL1   C2015190   4.097   3.661  14.234 -0.2542 -0.2714  0.1987
  121CHL1   H2015191   4.107   3.770  14.219 -2.4231  0.0156  0.5269
  121CHL1   C2115192   4.238   3.590  14.218  0.7040 -0.1428  0.2764
  121CHL1  H21A15193   4.282   3.620  14.121 -0.0708 -2.3197 -0.8091
  121CHL1  H21B15194   4.223   3.481  14.231 -1.6798  0.2642  1.6672
  121CHL1  H21C15195   4.305   3.617  14.303 -0.2871 -1.5997  1.5749
  121CHL1   C2215196   4.039   3.645  14.375  0.3766  0.8749 -0.5809
  121CHL1  H22A15197   3.931   3.671  14.370 -0.3050 -1.2297  1.3602
  121CHL1  H22B15198   4.041   3.536  14.395  3.2169  1.3354  2.5341
  121CHL1   C2315199   4.116   3.721  14.485  0.3427  0.6812  0.2134
  121CHL1  H23A15200   4.222   3.736  14.453  0.1656  3.6216  0.6741
  121CHL1  H23B15201   4.083   3.827  14.480 -0.2363  0.5666  1.3989
  121CHL1   C2415202   4.108   3.667  14.626 -0.4772  0.1237  0.1561
  121CHL1  H24A15203   4.024   3.717  14.679  0.7190  2.5445 -0.0981
  121CHL1  H24B15204   4.091   3.557  14.623 -0.7352  0.1023  1.6070
  121CHL1   C2515205   4.238   3.681  14.712  0.0129  0.8103 -0.0121
  121CHL1   H2515206   4.278   3.781  14.686  3.9423 -0.6729 -0.3044
  121CHL1   C2615207   4.218   3.679  14.858  0.4285 -0.0573 -0.1415
  121CHL1  H26A15208   4.159   3.592  14.895  2.1110 -0.5153  1.6447
  121CHL1  H26B15209   4.306   3.699  14.924 -0.5249  1.0338  0.8417
  121CHL1  H26C15210   4.146   3.759  14.885 -0.1091 -0.3770 -0.5928
  121CHL1   C2715211   4.350   3.573  14.678  0.0394 -0.8148 -0.2989
  121CHL1  H27A15212   4.359   3.565  14.568 -1.6748  1.2371 -0.6419
  121CHL1  H27B15213   4.446   3.604  14.726  0.4008 -3.9120  1.2301
  121CHL1  H27C15214   4.314   3.479  14.725  0.9580 -1.9751 -1.8137
  122CHL1    C315215   2.526   3.962  13.239  0.4826  0.2269  0.4147
  122CHL1    H315216   2.446   3.887  13.248  0.0078  0.5674 -0.7115
  122CHL1    O315217   2.515   4.021  13.110 -0.3686  0.2159  0.4311
  122CHL1   H3'15218   2.423   4.044  13.095 -0.2833  0.8011  0.7717
  122CHL1    C415219   2.519   4.067  13.351 -0.0684 -0.3315 -0.5606
  122CHL1   H4A15220   2.581   4.152  13.315 -0.6091  0.3223  0.0167
  122CHL1   H4B15221   2.418   4.112  13.350  0.2696  0.4902  0.4082
  122CHL1    C515222   2.553   4.020  13.487 -0.6988 -0.1288 -0.5370
  122CHL1    C615223   2.474   4.053  13.597  0.1145 -0.0074  0.3077
  122CHL1    H615224   2.399   4.131  13.578  0.9783  0.3304 -2.1336
  122CHL1    C715225   2.501   4.018  13.738  0.6706 -1.0045  0.1279
  122CHL1   H7A15226   2.490   4.105  13.807 -0.5607 -1.2638  0.2839
  122CHL1   H7B15227   2.425   3.945  13.773  0.9621 -2.2289 -1.6484
  122CHL1    C815228   2.643   3.962  13.753  0.2649  0.1603 -0.4767
  122CHL1    H815229   2.711   4.049  13.746 -0.3739  0.8576  1.5186
  122CHL1   C1415230   2.666   3.888  13.880  0.2443 -0.3495 -0.6219
  122CHL1   H1415231   2.599   3.799  13.882  0.8139 -0.7785 -0.2214
  122CHL1   C1515232   2.605   3.957  14.010  0.6597 -0.1415  0.5596
  122CHL1  H15A15233   2.624   4.066  14.017 -0.4050  0.0906  0.0560
  122CHL1  H15B15234   2.495   3.947  14.003  0.4770  2.0970 -0.8171
  122CHL1   C1615235   2.667   3.881  14.122  0.3314 -0.1849 -0.1222
  122CHL1  H16A15236   2.721   3.955  14.185  0.0308 -0.8120  0.8827
  122CHL1  H16B15237   2.587   3.824  14.175  0.7608 -1.4230 -0.7671
  122CHL1   C1715238   2.771   3.783  14.058  0.3585  0.0114  0.7291
  122CHL1   H1715239   2.714   3.689  14.044 -0.5600  0.6282  0.1566
  122CHL1   C1315240   2.805   3.832  13.915  0.4461  0.5495 -0.4549
  122CHL1   C1815241   2.907   3.950  13.920 -0.0221  0.1341  0.4505
  122CHL1  H18A15242   2.882   4.024  13.999  2.8396 -0.2586  1.8627
  122CHL1  H18B15243   3.011   3.911  13.930  0.1010  0.5941  1.0288
  122CHL1  H18C15244   2.901   4.000  13.821  0.9970 -1.0540 -0.2496
  122CHL1   C1215245   2.849   3.736  13.802  0.4240  0.3949 -0.0998
  122CHL1  H12A15246   2.953   3.701  13.817  1.1874  3.2828  2.4337
  122CHL1  H12B15247   2.782   3.647  13.799  1.9820 -0.8724  0.9289
  122CHL1   C1115248   2.821   3.802  13.663 -0.0452  0.9462 -0.6773
  122CHL1  H11A15249   2.908   3.871  13.654 -0.0567  1.5641  2.8106
  122CHL1  H11B15250   2.835   3.727  13.582 -1.7513  1.1300 -1.1826
  122CHL1    C915251   2.687   3.869  13.641 -0.0586  0.2194 -0.4952
  122CHL1    H915252   2.614   3.786  13.637 -0.2086  0.3354 -0.1638
  122CHL1   C1015253   2.678   3.941  13.499 -0.5382  0.6425  0.1767
  122CHL1   C1915254   2.792   4.038  13.488  0.6361  0.4507 -0.0461
  122CHL1  H19A15255   2.773   4.104  13.400 -0.7567  0.5663  0.3202
  122CHL1  H19B15256   2.789   4.109  13.573 -2.8325 -0.7515  0.9963
  122CHL1  H19C15257   2.896   3.998  13.489  0.6411  0.4647 -0.0097
  122CHL1    C115258   2.695   3.830  13.393  0.0306  0.6396  0.0344
  122CHL1   H1A15259   2.798   3.790  13.378 -1.3487 -2.7351 -1.4557
  122CHL1   H1B15260   2.633   3.743  13.423 -0.0240  0.6327 -0.0988
  122CHL1    C215261   2.659   3.880  13.247  0.2105 -0.3370  0.2440
  122CHL1   H2A15262   2.640   3.795  13.179  0.7187 -1.7305  1.7675
  122CHL1   H2B15263   2.743   3.943  13.211  1.0855 -1.5708  0.0886
  122CHL1   C2015264   2.895   3.757  14.146 -0.1315 -0.3200  0.6489
  122CHL1   H2015265   2.952   3.851  14.162 -0.0132 -0.3791  0.5681
  122CHL1   C2115266   2.977   3.649  14.082 -0.2742  0.6074 -0.1906
  122CHL1  H21A15267   3.035   3.589  14.156 -0.1097  1.6672  0.5634
  122CHL1  H21B15268   3.052   3.691  14.013  0.7855 -0.4673  0.2703
  122CHL1  H21C15269   2.904   3.585  14.027 -0.2224 -0.3849  0.8447
  122CHL1   C2215270   2.858   3.720  14.299  0.3530  0.4441  0.3170
  122CHL1  H22A15271   2.776   3.783  14.340 -1.8157 -0.9249 -1.6621
  122CHL1  H22B15272   2.825   3.614  14.300  0.3519  0.4217 -1.0434
  122CHL1   C2315273   2.974   3.711  14.393 -1.0085 -0.2398 -1.1101
  122CHL1  H23A15274   3.037   3.628  14.356  0.0005 -0.3973  0.8733
  122CHL1  H23B15275   3.039   3.801  14.384  1.0516 -1.3669  1.3002
  122CHL1   C2415276   2.933   3.678  14.539  0.3216  0.1108 -0.0028
  122CHL1  H24A15277   2.897   3.772  14.588  0.8683 -0.3143  1.2728
  122CHL1  H24B15278   2.849   3.605  14.546 -1.5457  2.2641  1.8878
  122CHL1   C2515279   3.044   3.627  14.631 -0.0157  1.1111 -0.2826
  122CHL1   H2515280   3.112   3.714  14.641 -0.0745  1.0356  0.8631
  122CHL1   C2615281   2.994   3.604  14.774  0.2356  0.2531  0.1204
  122CHL1  H26A15282   2.898   3.548  14.775  0.1665  0.3767  1.0469
  122CHL1  H26B15283   3.073   3.555  14.834  0.0092  1.3852  1.3758
  122CHL1  H26C15284   2.975   3.706  14.812 -0.7516  0.2840 -0.4184
  122CHL1   C2715285   3.117   3.503  14.565  0.5494 -0.5930 -0.9535
  122CHL1  H27A15286   3.050   3.430  14.516  1.9251 -0.8692 -2.5046
  122CHL1  H27B15287   3.188   3.537  14.487  1.5787 -0.8627 -0.1699
  122CHL1  H27C15288   3.173   3.451  14.646 -0.2136  3.5175  2.5715
  123CHL1    C315289   4.906   3.943  13.205 -0.6069  0.3252 -0.3479
  123CHL1    H315290   4.981   4.022  13.184 -0.8324  0.5269 -0.4074
  123CHL1    O315291   4.861   3.901  13.076 -0.4114  0.1961  0.5422
  123CHL1   H3'15292   4.825   3.812  13.084 -0.3907 -0.2338 -2.8684
  123CHL1    C415293   4.972   3.830  13.281  0.0155 -0.1855 -0.2484
  123CHL1   H4A15294   4.901   3.745  13.293  1.4672 -1.5128 -0.8429
  123CHL1   H4B15295   5.049   3.785  13.216 -0.0861  0.4307 -0.8086
  123CHL1    C515296   5.021   3.871  13.419  0.0037  0.4864 -0.0026
  123CHL1    C615297   5.148   3.855  13.452  0.4759 -0.5846 -0.1821
  123CHL1    H615298   5.216   3.813  13.377 -0.4078 -0.3241 -1.1576
  123CHL1    C715299   5.202   3.903  13.588 -0.2978  0.0503  0.2726
  123CHL1   H7A15300   5.279   3.829  13.621 -0.5160 -0.8740 -1.1802
  123CHL1   H7B15301   5.257   3.998  13.574  0.0616 -0.2019 -0.0873
  123CHL1    C815302   5.090   3.926  13.687 -0.3655  0.2432 -0.1897
  123CHL1    H815303   5.059   3.824  13.715  1.7862 -0.4564 -0.1578
  123CHL1   C1415304   5.138   3.986  13.822 -0.4569  0.7981  0.2067
  123CHL1   H1415305   5.173   4.090  13.799 -1.3264  0.8121 -1.1927
  123CHL1   C1515306   5.254   3.917  13.892 -0.0712  0.1024  0.2575
  123CHL1  H15A15307   5.236   3.808  13.885  0.7072 -0.0875  1.0128
  123CHL1  H15B15308   5.353   3.937  13.847  0.7668 -2.2918  0.9022
  123CHL1   C1615309   5.238   3.957  14.041  0.0800  0.9702 -0.1697
  123CHL1  H16A15310   5.245   3.871  14.111 -0.8984  1.0768  0.0763
  123CHL1  H16B15311   5.329   4.018  14.059  1.6580 -0.6573 -2.0647
  123CHL1   C1715312   5.109   4.047  14.050 -0.6258 -0.5374  0.2325
  123CHL1   H1715313   5.149   4.150  14.036  2.4422 -1.4538  1.3860
  123CHL1   C1315314   5.025   4.003  13.926 -0.2584  0.2401  0.2915
  123CHL1   C1815315   4.967   3.868  13.962 -0.1244 -0.7476  0.1056
  123CHL1  H18A15316   5.038   3.788  13.994  1.0640 -0.6851 -2.1855
  123CHL1  H18B15317   4.890   3.878  14.041 -2.2869  0.5934 -2.0370
  123CHL1  H18C15318   4.914   3.821  13.877 -0.5569 -0.3182  0.1333
  123CHL1   C1215319   4.918   4.097  13.866  0.8677 -0.4842 -0.0408
  123CHL1  H12A15320   4.832   4.108  13.934 -0.2426 -2.9579 -0.9352
  123CHL1  H12B15321   4.961   4.200  13.857 -0.7610  0.2496  0.3017
  123CHL1   C1115322   4.864   4.041  13.733  0.5001 -0.4526 -0.2781
  123CHL1  H11A15323   4.804   3.952  13.763 -0.7853  0.0743 -1.1489
  123CHL1  H11B15324   4.790   4.113  13.692 -0.3245 -0.8902  0.3969
  123CHL1    C915325   4.978   4.013  13.635  0.3831  0.4521  0.2391
  123CHL1    H915326   5.018   4.110  13.600 -0.7761  0.2414 -1.8386
  123CHL1   C1015327   4.917   3.940  13.509  0.1060  0.1830 -0.6800
  123CHL1   C1915328   4.829   3.823  13.555  0.1318 -0.2432  0.0595
  123CHL1  H19A15329   4.884   3.760  13.628 -1.4583 -0.0599  1.4617
  123CHL1  H19B15330   4.739   3.870  13.600 -0.3796 -0.0793 -1.0991
  123CHL1  H19C15331   4.783   3.756  13.478 -2.2395  0.1948  1.0117
  123CHL1    C115332   4.822   4.045  13.428  0.0262 -0.0630  0.1067
  123CHL1   H1A15333   4.736   4.064  13.495 -1.6353 -2.4582 -1.1706
  123CHL1   H1B15334   4.885   4.136  13.417 -3.6530  2.7519  0.2672
  123CHL1    C215335   4.788   3.997  13.280 -0.2829  0.9460 -0.4145
  123CHL1   H2A15336   4.745   4.086  13.229 -1.1441 -0.6579 -2.5954
  123CHL1   H2B15337   4.710   3.918  13.290  1.7637 -1.2245 -0.7265
  123CHL1   C2015338   5.048   4.047  14.190 -0.4101 -0.2234  0.0407
  123CHL1   H2015339   5.031   3.943  14.224 -0.4429 -0.5113 -0.8224
  123CHL1   C2115340   4.909   4.121  14.194  0.4005  0.3235  0.2105
  123CHL1  H21A15341   4.884   4.146  14.299  0.1990 -1.6995  0.6818
  123CHL1  H21B15342   4.825   4.064  14.149  0.5375  0.6558 -0.4803
  123CHL1  H21C15343   4.919   4.213  14.132 -2.6067 -1.8583 -4.0355
  123CHL1   C2215344   5.155   4.112  14.283  0.3043 -1.1498  0.4811
  123CHL1  H22A15345   5.232   4.033  14.286 -0.5031 -1.9803 -0.1148
  123CHL1  H22B15346   5.209   4.197  14.236  1.8393 -1.3186  1.8300
  123CHL1   C2315347   5.119   4.133  14.434 -0.1087 -0.2590 -0.8759
  123CHL1  H23A15348   5.210   4.170  14.487 -2.2758  1.1085  2.1572
  123CHL1  H23B15349   5.049   4.219  14.435 -0.1382 -0.2834 -0.3572
  123CHL1   C2415350   5.068   4.018  14.513  0.5494 -0.0742 -1.2322
  123CHL1  H24A15351   4.966   3.991  14.479 -0.2734 -0.2809  1.2168
  123CHL1  H24B15352   5.134   3.931  14.494  2.1029  0.4350  1.3389
  123CHL1   C2515353   5.056   4.036  14.669  0.3343  0.7961  0.0614
  123CHL1   H2515354   5.155   4.065  14.711 -0.6894  2.5925  1.3718
  123CHL1   C2615355   4.964   4.147  14.720 -0.6237 -0.3196 -0.8141
  123CHL1  H26A15356   4.859   4.132  14.689 -1.1897 -0.6805  1.1840
  123CHL1  H26B15357   4.974   4.159  14.830 -3.1329 -0.0447 -0.5753
  123CHL1  H26C15358   5.001   4.242  14.674 -0.0697  0.6055  1.4294
  123CHL1   C2715359   5.018   3.901  14.730 -0.1260  0.4238  0.2652
  123CHL1  H27A15360   5.082   3.814  14.703  0.3951  0.8173  0.2109
  123CHL1  H27B15361   5.009   3.901  14.841  1.3298 -0.4553  0.4159
  123CHL1  H27C15362   4.918   3.880  14.686  0.1279 -0.0155 -0.1202
  124CHL1    C315363   3.518   4.514  13.299  0.4385 -0.2436  0.4338
  124CHL1    H315364   3.465   4.424  13.335  1.0756 -0.9765 -0.3999
  124CHL1    O315365   3.511   4.524  13.158 -0.2244 -0.2142  0.0348
  124CHL1   H3'15366   3.558   4.600  13.123  0.3544 -1.2784 -1.6578
  124CHL1    C415367   3.458   4.639  13.363 -1.3804  0.9072 -0.3762
  124CHL1   H4A15368   3.504   4.725  13.310 -0.7277  0.7541 -0.0721
  124CHL1   H4B15369   3.352   4.631  13.330 -0.1797 -0.4880 -4.5711
  124CHL1    C515370   3.492   4.648  13.511 -0.7318 -0.0412 -0.0459
  124CHL1    C615371   3.395   4.682  13.594 -0.3319  0.0106  1.0063
  124CHL1    H615372   3.296   4.694  13.548 -0.0560 -0.4895  0.2747
  124CHL1    C715373   3.402   4.712  13.735 -0.5745 -0.1663  0.8215
  124CHL1   H7A15374   3.353   4.811  13.748  2.6425  1.6068  0.3936
  124CHL1   H7B15375   3.345   4.629  13.783 -0.4138 -0.1578  1.0309
  124CHL1    C815376   3.555   4.710  13.781 -0.0323  0.9739 -0.3713
  124CHL1    H815377   3.594   4.811  13.756  0.7164  0.5136 -1.1180
  124CHL1   C1415378   3.558   4.680  13.931  0.2150 -0.1437  0.1893
  124CHL1   H1415379   3.530   4.574  13.946 -0.0009  0.0328  1.0628
  124CHL1   C1515380   3.459   4.747  14.023 -0.6989 -0.2500 -0.4688
  124CHL1  H15A15381   3.440   4.856  14.008 -3.0040 -0.6413 -0.7457
  124CHL1  H15B15382   3.362   4.693  14.032 -0.3729 -0.6836  0.6423
  124CHL1   C1615383   3.522   4.716  14.159 -0.1113  0.0507  0.3099
  124CHL1  H16A15384   3.548   4.808  14.214 -0.3397  0.7771 -0.7569
  124CHL1  H16B15385   3.456   4.659  14.227 -2.1793  2.1866  0.2299
  124CHL1   C1715386   3.660   4.639  14.146  0.8434  0.3523 -0.1516
  124CHL1   H1715387   3.644   4.529  14.147  0.8942  0.3307 -1.2076
  124CHL1   C1315388   3.699   4.675  13.999 -0.4107  0.1175 -0.3231
  124CHL1   C1815389   3.759   4.824  14.006  0.0614  1.0112  0.6519
  124CHL1  H18A15390   3.680   4.894  14.042 -2.0503 -0.8957 -0.0168
  124CHL1  H18B15391   3.850   4.823  14.069  0.5532  1.5013 -0.0338
  124CHL1  H18C15392   3.790   4.847  13.902 -1.2271  0.6372  0.1689
  124CHL1   C1215393   3.787   4.571  13.919  0.2673  0.5695 -0.1171
  124CHL1  H12A15394   3.894   4.572  13.950  0.3535 -1.8238 -0.1210
  124CHL1  H12B15395   3.751   4.468  13.941 -1.1339  1.2095  0.6940
  124CHL1   C1115396   3.787   4.602  13.771 -0.8495 -0.3243  0.4453
  124CHL1  H11A15397   3.846   4.695  13.753  0.8121 -1.3358  0.4031
  124CHL1  H11B15398   3.842   4.524  13.713  0.3557  0.6040  0.2850
  124CHL1    C915399   3.645   4.614  13.706 -0.8528  0.2343 -1.0576
  124CHL1    H915400   3.603   4.515  13.734 -1.1599  0.5976 -0.1983
  124CHL1   C1015401   3.640   4.624  13.551 -0.1420  0.1769 -0.2945
  124CHL1   C1915402   3.731   4.747  13.500  0.7938  0.3491 -0.1905
  124CHL1  H19A15403   3.835   4.713  13.518  0.6813 -0.4620 -0.9563
  124CHL1  H19B15404   3.712   4.779  13.395 -3.1726 -0.1619  0.2219
  124CHL1  H19C15405   3.713   4.841  13.557  2.5365  0.4676  0.1934
  124CHL1    C115406   3.700   4.493  13.486 -0.2305 -0.4630 -0.0510
  124CHL1   H1A15407   3.810   4.487  13.500 -0.1191 -2.0414 -1.2431
  124CHL1   H1B15408   3.661   4.400  13.534  0.6907 -1.1249 -0.5393
  124CHL1    C215409   3.669   4.492  13.335  0.6505 -0.4643  0.8557
  124CHL1   H2A15410   3.690   4.392  13.289 -2.4251 -1.2868  1.0182
  124CHL1   H2B15411   3.730   4.575  13.293 -0.5601  1.3125  2.4629
  124CHL1   C2015412   3.764   4.658  14.259  0.5535 -0.0806 -0.6243
  124CHL1   H2015413   3.778   4.768  14.268 -1.3040  0.2175 -0.9698
  124CHL1   C2115414   3.884   4.575  14.229  0.4015  0.7215 -0.2818
  124CHL1  H21A15415   3.850   4.470  14.229  1.8134  0.2220 -1.6723
  124CHL1  H21B15416   3.959   4.597  14.308 -0.2588  1.7173  0.0886
  124CHL1  H21C15417   3.921   4.599  14.127 -2.3682 -0.1153 -1.5611
  124CHL1   C2215418   3.711   4.632  14.406  0.2957 -0.3889  1.0783
  124CHL1  H22A15419   3.795   4.644  14.478  0.3052 -2.1153  1.4140
  124CHL1  H22B15420   3.625   4.690  14.444  0.4004  0.0528  0.6503
  124CHL1   C2315421   3.666   4.483  14.427 -0.6916 -0.5807  0.0226
  124CHL1  H23A15422   3.580   4.461  14.360 -1.0497 -2.9347  1.1311
  124CHL1  H23B15423   3.751   4.415  14.405  2.0121  2.0666  1.5784
  124CHL1   C2415424   3.630   4.468  14.581 -0.8880 -0.1622 -0.3009
  124CHL1  H24A15425   3.729   4.471  14.632 -0.7230  0.4440 -0.6447
  124CHL1  H24B15426   3.584   4.559  14.626  1.2972 -0.2576  2.3732
  124CHL1   C2515427   3.563   4.338  14.624  0.3317  0.2378 -0.1136
  124CHL1   H2515428   3.641   4.260  14.612 -0.8360 -1.1735  1.1523
  124CHL1   C2615429   3.528   4.348  14.777  1.0628  0.5674 -0.3372
  124CHL1  H26A15430   3.610   4.390  14.839  0.2364  0.7639  0.6565
  124CHL1  H26B15431   3.432   4.404  14.785  1.2086  0.8711 -0.6764
  124CHL1  H26C15432   3.496   4.247  14.810 -0.8202  0.4044 -2.3920
  124CHL1   C2715433   3.445   4.307  14.527 -0.7886 -0.0792 -0.5395
  124CHL1  H27A15434   3.372   4.388  14.543  0.8975  0.8476  3.9996
  124CHL1  H27B15435   3.470   4.312  14.419 -0.5047 -0.6901 -0.5090
  124CHL1  H27C15436   3.403   4.206  14.546 -3.4818  0.8862 -0.9217
  125CHL1    C315437   4.024   4.770  13.260 -0.3193  0.1352 -0.4245
  125CHL1    H315438   3.928   4.721  13.289  0.2922  0.5835  2.7843
  125CHL1    O315439   4.046   4.789  13.120 -0.0912  0.5627 -0.4198
  125CHL1   H3'15440   4.018   4.704  13.084  1.1658  0.4216 -1.1122
  125CHL1    C415441   4.032   4.912  13.333  1.0632  0.2312  0.1870
  125CHL1   H4A15442   4.126   4.959  13.295  1.5219  1.7753  2.9261
  125CHL1   H4B15443   3.945   4.967  13.291  1.2729 -0.4147 -1.1497
  125CHL1    C515444   4.043   4.912  13.485  0.4079  0.4492 -0.7083
  125CHL1    C615445   3.958   4.981  13.564 -0.2817 -0.8854  0.1918
  125CHL1    H615446   3.884   5.048  13.517  1.3823  0.2694 -0.9425
  125CHL1    C715447   3.974   4.985  13.708 -0.3804 -0.3465 -0.2185
  125CHL1   H7A15448   3.967   5.089  13.745  0.9222  0.5003 -2.1814
  125CHL1   H7B15449   3.898   4.918  13.753 -1.2044  1.2574  0.8255
  125CHL1    C815450   4.112   4.930  13.749 -0.1850 -0.6299  0.2340
  125CHL1    H815451   4.187   5.006  13.716  0.6159 -2.3167 -2.0694
  125CHL1   C1415452   4.122   4.920  13.900  0.3659  0.4769  0.1676
  125CHL1   H1415453   4.039   4.849  13.920 -0.1676  0.7115 -1.0834
  125CHL1   C1515454   4.082   5.042  13.985 -0.0603  0.2930  0.1681
  125CHL1  H15A15455   4.124   5.125  13.924  0.4441 -0.9852 -1.2975
  125CHL1  H15B15456   3.973   5.065  13.994 -0.4751 -1.5608  0.1669
  125CHL1   C1615457   4.129   5.004  14.131  0.5261  0.0094  0.3586
  125CHL1  H16A15458   4.211   5.072  14.161  1.6025 -0.1000 -2.0449
  125CHL1  H16B15459   4.045   5.000  14.204  0.6603  1.3694  0.6150
  125CHL1   C1715460   4.201   4.858  14.115  1.1759 -0.1586 -0.2404
  125CHL1   H1715461   4.126   4.779  14.138 -0.3344  0.2547 -3.1765
  125CHL1   C1315462   4.248   4.859  13.963  0.2333  0.0741  0.6233
  125CHL1   C1815463   4.368   4.964  13.939 -0.9419  0.6664 -0.0663
  125CHL1  H18A15464   4.324   5.066  13.942 -2.6614 -0.0611  1.3753
  125CHL1  H18B15465   4.451   4.949  14.011 -1.3361 -3.3841 -0.1786
  125CHL1  H18C15466   4.414   4.944  13.840 -0.2942 -1.0521  0.5373
  125CHL1   C1215467   4.275   4.717  13.901  0.3605 -0.1733  0.0573
  125CHL1  H12A15468   4.362   4.665  13.946 -1.3521 -0.7077  2.9593
  125CHL1  H12B15469   4.192   4.649  13.929  1.2981 -1.9709 -1.3203
  125CHL1   C1115470   4.271   4.729  13.748 -0.1659 -0.3090  0.2407
  125CHL1  H11A15471   4.362   4.790  13.729 -0.8798  1.9186  3.2549
  125CHL1  H11B15472   4.267   4.625  13.708 -2.1417 -0.6562  1.2027
  125CHL1    C915473   4.145   4.796  13.687  0.4063 -0.8316 -0.0867
  125CHL1    H915474   4.065   4.720  13.704  0.4950 -0.7777  0.6086
  125CHL1   C1015475   4.154   4.809  13.530  1.2195 -0.4390 -0.6450
  125CHL1   C1915476   4.288   4.878  13.492  0.2626  0.2056  0.0168
  125CHL1  H19A15477   4.292   4.917  13.388  1.3612  1.4144  0.4872
  125CHL1  H19B15478   4.314   4.959  13.563  1.5753 -0.6237  0.5226
  125CHL1  H19C15479   4.358   4.791  13.495 -2.0640 -1.7988 -0.7276
  125CHL1    C115480   4.146   4.667  13.462 -0.3305  0.6029 -0.4004
  125CHL1   H1A15481   4.228   4.609  13.510 -1.2516 -0.0492  0.4407
  125CHL1   H1B15482   4.059   4.618  13.511  1.5262 -0.5700  1.9362
  125CHL1    C215483   4.137   4.672  13.312 -0.0511 -0.6166  0.0857
  125CHL1   H2A15484   4.120   4.570  13.271  0.0630  0.3203 -2.4083
  125CHL1   H2B15485   4.235   4.715  13.285 -1.7076  5.3870  2.0992
  125CHL1   C2015486   4.327   4.856  14.211  0.3424  0.1890  0.2035
  125CHL1   H2015487   4.383   4.948  14.184  0.3504  0.1438  0.0652
  125CHL1   C2115488   4.420   4.733  14.191  0.3883  0.6857  0.0308
  125CHL1  H21A15489   4.477   4.751  14.098 -0.4080  0.4679 -0.5130
  125CHL1  H21B15490   4.357   4.641  14.186  0.3320  0.8072 -2.4534
  125CHL1  H21C15491   4.492   4.710  14.272 -1.2555 -0.8334  1.1231
  125CHL1   C2215492   4.288   4.865  14.361  0.0637 -0.5892 -0.3150
  125CHL1  H22A15493   4.378   4.831  14.417  0.2201 -0.3593 -0.4254
  125CHL1  H22B15494   4.271   4.973  14.382  0.9705 -0.0281 -2.2598
  125CHL1   C2315495   4.174   4.776  14.407  0.9793  0.2941  0.2717
  125CHL1  H23A15496   4.076   4.811  14.369  0.1647  0.0035  2.0032
  125CHL1  H23B15497   4.184   4.681  14.351  2.9337 -0.4651  1.8140
  125CHL1   C2415498   4.187   4.745  14.555 -0.7860  0.1176 -0.3499
  125CHL1  H24A15499   4.109   4.673  14.588  0.2517  0.0776  2.2427
  125CHL1  H24B15500   4.289   4.703  14.564 -0.2973  1.6273  1.6949
  125CHL1   C2515501   4.167   4.863  14.641 -1.0149 -0.2173  0.2205
  125CHL1   H2515502   4.223   4.956  14.614  1.4468 -1.1775  1.6794
  125CHL1   C2615503   4.027   4.914  14.635 -0.7867 -0.1365 -0.4411
  125CHL1  H26A15504   4.033   4.976  14.543  3.2100  2.6619  1.4467
  125CHL1  H26B15505   3.946   4.841  14.616 -0.9416 -0.5206  1.5540
  125CHL1  H26C15506   3.990   4.971  14.722 -1.8427 -0.1589 -0.8559
  125CHL1   C2715507   4.219   4.828  14.778 -0.3958  0.2067  0.0404
  125CHL1  H27A15508   4.199   4.906  14.855  0.2528 -0.2412  0.6749
  125CHL1  H27B15509   4.187   4.736  14.831  0.7508 -0.7643 -0.8830
  125CHL1  H27C15510   4.330   4.819  14.775 -0.2992  0.8850  1.0126
  126CHL1    C315511   2.706   5.110  13.398  0.5019 -0.0944 -0.2007
  126CHL1    H315512   2.740   5.006  13.417  1.7331 -0.0528 -1.9731
  126CHL1    O315513   2.646   5.111  13.268 -0.4263  0.1874  0.0620
  126CHL1   H3'15514   2.617   5.020  13.256 -1.0023  0.1427  1.5745
  126CHL1    C415515   2.609   5.167  13.500 -0.1726  0.3606  0.0319
  126CHL1   H4A15516   2.575   5.264  13.460  1.2578  0.4947 -0.9556
  126CHL1   H4B15517   2.526   5.092  13.502  1.2877 -1.3115  1.3222
  126CHL1    C515518   2.664   5.178  13.642 -1.1484 -0.0097  0.1307
  126CHL1    C615519   2.608   5.110  13.745  0.2046 -0.7046  0.3279
  126CHL1    H615520   2.507   5.075  13.718  0.0535  1.4857 -2.2956
  126CHL1    C715521   2.645   5.120  13.888 -0.5233 -0.7292 -0.1614
  126CHL1   H7A15522   2.560   5.135  13.958  0.6014 -0.8001  1.2474
  126CHL1   H7B15523   2.696   5.029  13.924 -0.7717 -0.0670  1.9798
  126CHL1    C815524   2.741   5.243  13.905 -0.2727 -0.1978 -0.0408
  126CHL1    H815525   2.683   5.338  13.900 -2.5045 -1.4788 -0.1892
  126CHL1   C1415526   2.813   5.226  14.045 -0.3533 -0.1101  0.3090
  126CHL1   H1415527   2.882   5.140  14.034 -0.8438 -0.4632 -0.0955
  126CHL1   C1515528   2.725   5.185  14.165 -0.6799 -0.5328 -0.7755
  126CHL1  H15A15529   2.637   5.253  14.171 -0.1129  0.2543 -1.2277
  126CHL1  H15B15530   2.693   5.079  14.169 -1.3636 -0.3036  0.3653
  126CHL1   C1615531   2.815   5.228  14.282  0.6021  0.0208  0.1884
  126CHL1  H16A15532   2.774   5.314  14.339 -0.4173 -0.2967 -0.0566
  126CHL1  H16B15533   2.839   5.149  14.357  1.5481  1.5263  1.5358
  126CHL1   C1715534   2.950   5.277  14.222  0.5035 -0.2166  0.5150
  126CHL1   H1715535   3.014   5.188  14.202 -0.8976 -1.1852  0.2384
  126CHL1   C1315536   2.908   5.330  14.080 -0.0845 -1.2161  0.0225
  126CHL1   C1815537   2.834   5.470  14.086 -0.5125  0.1179 -0.0721
  126CHL1  H18A15538   2.738   5.447  14.138 -0.5631 -1.9051 -0.9535
  126CHL1  H18B15539   2.908   5.531  14.143  0.2893 -1.1850  0.3345
  126CHL1  H18C15540   2.823   5.515  13.985  1.9032  0.6918 -0.1340
  126CHL1   C1215541   3.014   5.333  13.973 -0.0193 -0.1534  0.0792
  126CHL1  H12A15542   3.075   5.425  13.984  1.5280 -1.2814  1.5598
  126CHL1  H12B15543   3.082   5.246  13.990 -0.7420 -1.0730 -1.5679
  126CHL1   C1115544   2.966   5.346  13.831  0.5328  0.4273  0.4088
  126CHL1  H11A15545   2.927   5.448  13.812  0.5177  0.3412 -0.0186
  126CHL1  H11B15546   3.053   5.330  13.764 -0.2678 -0.2990 -0.4859
  126CHL1    C915547   2.856   5.251  13.802  0.4412  0.4317 -0.1782
  126CHL1    H915548   2.898   5.148  13.801 -0.6023 -0.1672  3.5299
  126CHL1   C1015549   2.792   5.264  13.656 -0.3345  0.7677  0.1532
  126CHL1   C1915550   2.758   5.410  13.630 -0.4743 -0.3239  0.1859
  126CHL1  H19A15551   2.844   5.480  13.628 -1.2336  0.7256  1.8973
  126CHL1  H19B15552   2.725   5.417  13.524 -0.0549 -2.2315 -0.1038
  126CHL1  H19C15553   2.682   5.463  13.692  3.3373  3.3764  2.2286
  126CHL1    C115554   2.889   5.218  13.544  0.7064  0.0211  0.1441
  126CHL1   H1A15555   2.971   5.293  13.549 -0.4782  1.3513  0.1681
  126CHL1   H1B15556   2.936   5.125  13.582  2.5340  0.6735 -0.4291
  126CHL1    C215557   2.831   5.203  13.400  0.0691  0.3777  0.5980
  126CHL1   H2A15558   2.911   5.161  13.335  1.6233  2.1750  1.2444
  126CHL1   H2B15559   2.791   5.300  13.365  1.5410  0.2788 -1.5591
  126CHL1   C2015560   3.023   5.362  14.321  0.3629 -0.7619  0.7204
  126CHL1   H2015561   2.965   5.455  14.340 -0.2705 -1.1826  0.8716
  126CHL1   C2115562   3.161   5.410  14.263 -0.0595  0.1199  0.1573
  126CHL1  H21A15563   3.141   5.487  14.186 -0.3034 -1.0758 -1.0134
  126CHL1  H21B15564   3.213   5.326  14.212  0.2235  1.2739 -1.5169
  126CHL1  H21C15565   3.225   5.453  14.343  2.3177 -0.4460 -1.3706
  126CHL1   C2215566   3.039   5.299  14.458 -0.7772  0.1515 -0.1725
  126CHL1  H22A15567   2.955   5.234  14.489 -0.0201 -1.5055 -1.4623
  126CHL1  H22B15568   3.133   5.242  14.440 -0.0150  0.5490  2.1829
  126CHL1   C2315569   3.061   5.419  14.556 -0.8598  0.5408 -0.0071
  126CHL1  H23A15570   3.147   5.481  14.524 -0.4043  0.2107  0.5701
  126CHL1  H23B15571   2.967   5.479  14.553 -1.7325 -0.4628  3.1240
  126CHL1   C2415572   3.073   5.380  14.705  0.1516 -0.6842 -0.0078
  126CHL1  H24A15573   3.087   5.473  14.765 -0.7336  0.4409 -1.4771
  126CHL1  H24B15574   2.982   5.320  14.726  0.0687 -0.4914  0.1809
  126CHL1   C2515575   3.195   5.294  14.738  0.1327  0.0980 -0.2011
  126CHL1   H2515576   3.188   5.202  14.676  2.4204 -1.1828  1.2759
  126CHL1   C2615577   3.328   5.353  14.695  0.5089 -0.2628 -0.2496
  126CHL1  H26A15578   3.343   5.459  14.725  0.1445  0.1359 -1.4308
  126CHL1  H26B15579   3.413   5.285  14.718 -0.3904 -2.0292 -1.8184
  126CHL1  H26C15580   3.320   5.356  14.584  1.2952  0.4131 -0.2996
  126CHL1   C2715581   3.205   5.251  14.882 -0.1715 -0.9903 -0.3087
  126CHL1  H27A15582   3.278   5.169  14.898 -0.4411 -1.3927 -1.1060
  126CHL1  H27B15583   3.210   5.334  14.956 -3.0609  0.1540 -1.2490
  126CHL1  H27C15584   3.109   5.199  14.905 -0.6528  0.1519  0.3820
  127CHL1    C315585   3.390   6.744  13.311  0.6328  0.3816  0.1331
  127CHL1    H315586   3.481   6.803  13.289  0.4708  0.4194 -0.4673
  127CHL1    O315587   3.320   6.735  13.188 -0.0533  0.4052  0.0419
  127CHL1   H3'15588   3.338   6.819  13.145 -0.6877  0.2742 -0.4940
  127CHL1    C415589   3.435   6.603  13.357  0.1252  0.2706 -0.1876
  127CHL1   H4A15590   3.345   6.539  13.365 -0.1096  0.4843 -0.9731
  127CHL1   H4B15591   3.499   6.549  13.283  1.6909 -0.3592  1.5610
  127CHL1    C515592   3.505   6.613  13.497 -0.0505 -0.6034  0.1896
  127CHL1    C615593   3.624   6.555  13.513 -0.0698 -0.1877 -0.8583
  127CHL1    H615594   3.658   6.495  13.427 -0.7571  0.0492 -1.3069
  127CHL1    C715595   3.690   6.551  13.650 -0.5612 -0.2530  0.3622
  127CHL1   H7A15596   3.710   6.447  13.682 -0.2837 -0.6921 -1.1641
  127CHL1   H7B15597   3.773   6.623  13.661 -1.4106  0.6225  1.3346
  127CHL1    C815598   3.612   6.611  13.774  0.1486  0.3644  0.3555
  127CHL1    H815599   3.537   6.532  13.798 -1.3767  1.2355 -1.3022
  127CHL1   C1415600   3.699   6.639  13.891 -0.2603  0.1488 -0.0209
  127CHL1   H1415601   3.772   6.718  13.863 -0.4345 -0.1838 -1.5353
  127CHL1   C1515602   3.782   6.518  13.943 -0.3441 -0.2404 -0.1715
  127CHL1  H15A15603   3.734   6.419  13.953 -0.5184 -0.2738 -1.2052
  127CHL1  H15B15604   3.871   6.502  13.877  0.3293 -0.8377  0.8571
  127CHL1   C1615605   3.830   6.564  14.083  0.6024 -0.0506  0.5417
  127CHL1  H16A15606   3.810   6.474  14.145 -1.6451 -1.1779 -1.6454
  127CHL1  H16B15607   3.937   6.593  14.079  1.2323 -2.0465  1.7822
  127CHL1   C1715608   3.746   6.694  14.111  0.1673 -0.2843  0.3043
  127CHL1   H1715609   3.812   6.765  14.057 -1.1363  0.2196 -0.7066
  127CHL1   C1315610   3.622   6.691  14.010 -0.3527 -0.5757  0.4673
  127CHL1   C1815611   3.514   6.594  14.066  0.7004 -0.4093  0.2603
  127CHL1  H18A15612   3.434   6.581  13.990 -0.0131 -1.8618  1.2060
  127CHL1  H18B15613   3.543   6.488  14.083  1.3172 -0.5960 -1.7240
  127CHL1  H18C15614   3.466   6.643  14.153  1.7183  0.8871  0.1095
  127CHL1   C1215615   3.553   6.821  13.967 -0.5209 -0.4114  0.6320
  127CHL1  H12A15616   3.490   6.864  14.048  1.8108  0.2479  2.1904
  127CHL1  H12B15617   3.638   6.890  13.950 -0.5417 -1.1933 -3.4866
  127CHL1   C1115618   3.461   6.803  13.843 -0.3952 -0.1419  0.1376
  127CHL1  H11A15619   3.363   6.760  13.871 -0.2030  0.2193  1.4663
  127CHL1  H11B15620   3.436   6.908  13.817  1.9232  0.3797 -0.1946
  127CHL1    C915621   3.536   6.731  13.727  0.2985 -0.5768  0.2067
  127CHL1    H915622   3.614   6.807  13.704  0.2195 -1.1286 -2.2012
  127CHL1   C1015623   3.439   6.702  13.604 -0.3848 -0.0505  0.2017
  127CHL1   C1915624   3.322   6.621  13.662 -0.7178  0.0522  0.3916
  127CHL1  H19A15625   3.278   6.566  13.576 -1.6565  0.4370  0.6130
  127CHL1  H19B15626   3.352   6.551  13.743 -3.0161 -1.7259 -0.1933
  127CHL1  H19C15627   3.245   6.673  13.723  0.7992  1.5230  1.1412
  127CHL1    C115628   3.389   6.838  13.548 -0.6404  0.9445 -0.6644
  127CHL1   H1A15629   3.310   6.892  13.604 -2.1064  0.3342 -2.0358
  127CHL1   H1B15630   3.475   6.906  13.527  0.4104 -0.6401 -1.7223
  127CHL1    C215631   3.304   6.822  13.421 -0.2037 -0.5044 -0.0471
  127CHL1   H2A15632   3.291   6.928  13.390 -1.2784 -0.6730 -0.2216
  127CHL1   H2B15633   3.215   6.760  13.444  0.2455 -1.4337 -0.7469
  127CHL1   C2015634   3.719   6.743  14.246  0.2978  0.2984  0.2720
  127CHL1   H2015635   3.629   6.808  14.247  0.7751  0.9873  1.6702
  127CHL1   C2115636   3.830   6.837  14.294 -0.6525  0.1152 -1.0124
  127CHL1  H21A15637   3.797   6.868  14.395  0.2856 -0.4909 -0.5116
  127CHL1  H21B15638   3.845   6.927  14.232  0.0345  0.5471 -0.2334
  127CHL1  H21C15639   3.927   6.784  14.301 -1.0668 -0.4600  3.2350
  127CHL1   C2215640   3.690   6.620  14.345  0.9169 -0.1625 -0.5508
  127CHL1  H22A15641   3.634   6.535  14.301 -0.4398 -0.9362  2.4317
  127CHL1  H22B15642   3.787   6.577  14.380 -0.0119 -3.8055 -2.0365
  127CHL1   C2315643   3.594   6.663  14.459  0.4212  0.0167 -0.2935
  127CHL1  H23A15644   3.620   6.762  14.500 -0.3829  0.6376 -1.2339
  127CHL1  H23B15645   3.487   6.660  14.428  0.0975 -1.5339  0.8432
  127CHL1   C2415646   3.610   6.569  14.586 -0.1830  1.0585 -0.5717
  127CHL1  H24A15647   3.597   6.462  14.558  1.7910  1.2184 -2.3336
  127CHL1  H24B15648   3.716   6.574  14.619 -0.1165 -3.6877  0.7179
  127CHL1   C2515649   3.526   6.608  14.710  0.2149 -0.0686  0.7147
  127CHL1   H2515650   3.539   6.718  14.723 -0.9490  0.1517  0.1242
  127CHL1   C2615651   3.373   6.594  14.691 -0.1304  0.2198  0.3445
  127CHL1  H26A15652   3.319   6.650  14.611 -0.2370 -0.7409 -0.2736
  127CHL1  H26B15653   3.352   6.489  14.663  1.0583 -0.1886  0.9330
  127CHL1  H26C15654   3.325   6.626  14.786 -2.0992 -1.2956 -0.0851
  127CHL1   C2715655   3.585   6.538  14.838 -0.0259 -0.3908  0.2102
  127CHL1  H27A15656   3.692   6.567  14.853 -0.2892  0.7365 -0.0504
  127CHL1  H27B15657   3.528   6.565  14.930  1.6609 -3.8715  2.5032
  127CHL1  H27C15658   3.572   6.429  14.821 -3.8165 -0.3813  2.0266
  128CHL1    C315659   1.604   2.318  13.092  0.3363  0.0707  0.2738
  128CHL1    H315660   1.689   2.386  13.115  1.1463 -0.9722  0.4872
  128CHL1    O315661   1.549   2.347  12.967  0.3310 -0.3869  0.7252
  128CHL1   H3'15662   1.454   2.341  12.980  0.4742  0.2010  2.1970
  128CHL1    C415663   1.670   2.171  13.086 -0.9755  0.4332  0.1571
  128CHL1   H4A15664   1.590   2.101  13.052 -0.6073  0.1285 -0.0900
  128CHL1   H4B15665   1.752   2.183  13.012  0.2853  0.6866  1.5647
  128CHL1    C515666   1.731   2.138  13.226  0.3249 -0.3403  1.0303
  128CHL1    C615667   1.859   2.105  13.243  0.4423 -0.3496  0.1490
  128CHL1    H615668   1.924   2.106  13.154 -0.4587 -0.2571 -0.5196
  128CHL1    C715669   1.916   2.075  13.378 -0.1693  1.0939  0.2396
  128CHL1   H7A15670   1.965   1.976  13.383 -1.0710  0.6413  0.2544
  128CHL1   H7B15671   1.987   2.156  13.409 -0.7536  1.9130 -0.5069
  128CHL1    C815672   1.814   2.054  13.495 -0.0072  0.5389  0.2021
  128CHL1    H815673   1.766   1.954  13.486 -0.0083  0.6531 -1.6023
  128CHL1   C1415674   1.880   2.068  13.627 -0.5863  0.4453 -0.2947
  128CHL1   H1415675   1.906   2.175  13.644 -0.2299 -0.0067  2.6209
  128CHL1   C1515676   2.023   2.008  13.650 -0.0359 -0.4636 -0.5477
  128CHL1  H15A15677   2.023   1.904  13.611  0.3023 -1.1711  1.2455
  128CHL1  H15B15678   2.110   2.061  13.606 -1.3805  2.2123 -0.1912
  128CHL1   C1615679   2.034   2.005  13.805 -0.5126 -0.2785  0.1853
  128CHL1  H16A15680   2.034   1.897  13.834 -1.9508 -0.6230 -0.9746
  128CHL1  H16B15681   2.122   2.066  13.834  1.6385 -3.2566  0.4168
  128CHL1   C1715682   1.898   2.057  13.865  0.3457  0.7035  0.1347
  128CHL1   H1715683   1.905   2.166  13.885 -1.3527  0.9866 -0.6107
  128CHL1   C1315684   1.795   2.037  13.745 -0.1000 -0.7167  0.0792
  128CHL1   C1815685   1.750   1.887  13.739  0.0578  0.6887 -0.0237
  128CHL1  H18A15686   1.702   1.857  13.835 -0.7094  2.4898  0.1984
  128CHL1  H18B15687   1.684   1.858  13.655  0.1535 -0.7441  0.3688
  128CHL1  H18C15688   1.839   1.822  13.721 -1.3734 -0.7880 -2.3252
  128CHL1   C1215689   1.673   2.139  13.746 -0.3758 -0.7896 -0.4487
  128CHL1  H12A15690   1.604   2.090  13.818  0.7659  0.0016  1.2529
  128CHL1  H12B15691   1.705   2.233  13.797  1.9817 -1.4130 -0.6693
  128CHL1   C1115692   1.605   2.153  13.606  0.2732  0.7819  0.6229
  128CHL1  H11A15693   1.536   2.066  13.595  0.7355  0.4919 -0.0748
  128CHL1  H11B15694   1.538   2.241  13.602 -0.3832  0.2623 -2.1798
  128CHL1    C915695   1.704   2.150  13.483  0.1515 -0.3180  0.5021
  128CHL1    H915696   1.759   2.246  13.495 -0.1538  0.0965 -1.1021
  128CHL1   C1015697   1.632   2.155  13.345  1.1941  0.5400  0.1112
  128CHL1   C1915698   1.528   2.038  13.333 -0.2768  0.8686 -0.6587
  128CHL1  H19A15699   1.483   2.034  13.231  1.3622 -1.0864 -1.3561
  128CHL1  H19B15700   1.591   1.949  13.353 -0.8015  0.4280 -0.9246
  128CHL1  H19C15701   1.450   2.049  13.411  0.0040  0.3089 -0.2965
  128CHL1    C115702   1.551   2.288  13.337  0.1967 -0.3359  0.1343
  128CHL1   H1A15703   1.461   2.282  13.402 -0.2205  0.3425 -0.3663
  128CHL1   H1B15704   1.612   2.377  13.363  2.1431 -1.3589 -0.7134
  128CHL1    C215705   1.494   2.320  13.195  0.3237 -0.2976 -0.1686
  128CHL1   H2A15706   1.443   2.418  13.181 -1.3896 -1.5332 -4.0833
  128CHL1   H2B15707   1.421   2.245  13.157 -3.5832  1.6287  2.7702
  128CHL1   C2015708   1.864   2.001  14.004  0.3553  0.0286  0.3403
  128CHL1   H2015709   1.835   1.894  14.008  0.1362  0.0621 -0.2615
  128CHL1   C2115710   1.745   2.070  14.062 -0.4580  0.2133  0.3790
  128CHL1  H21A15711   1.741   2.053  14.172  1.4355  0.3043  0.4794
  128CHL1  H21B15712   1.645   2.046  14.018 -0.9316 -0.7776  1.9057
  128CHL1  H21C15713   1.756   2.180  14.061 -2.0488  0.4108  1.0520
  128CHL1   C2215714   1.985   2.016  14.103  0.2856  0.2964 -0.2546
  128CHL1  H22A15715   2.071   1.961  14.058 -0.5729 -1.0543 -0.2928
  128CHL1  H22B15716   2.001   2.123  14.126  0.9606 -0.2315  2.0624
  128CHL1   C2315717   1.968   1.940  14.238  0.1130  0.0544 -0.4308
  128CHL1  H23A15718   1.897   1.992  14.305  0.7891  0.2089  0.1784
  128CHL1  H23B15719   1.931   1.841  14.205 -0.3723  1.0144 -2.9777
  128CHL1   C2415720   2.094   1.923  14.317 -0.1637  0.5592  0.1022
  128CHL1  H24A15721   2.074   1.874  14.414 -0.4052  0.2713 -0.0899
  128CHL1  H24B15722   2.163   1.861  14.255 -0.9465  1.0289 -1.3070
  128CHL1   C2515723   2.155   2.058  14.348 -0.1725  0.0409  0.8619
  128CHL1   H2515724   2.159   2.105  14.247  1.0980  1.7182  1.6288
  128CHL1   C2615725   2.074   2.142  14.443  0.2192 -0.2956 -0.2962
  128CHL1  H26A15726   2.088   2.113  14.549 -0.7741  0.8969  0.1736
  128CHL1  H26B15727   2.103   2.247  14.422 -2.1142  0.6742  1.0240
  128CHL1  H26C15728   1.965   2.134  14.425 -0.0964 -2.5069  2.0392
  128CHL1   C2715729   2.296   2.056  14.400  0.5947 -0.6641 -0.7538
  128CHL1  H27A15730   2.362   1.997  14.333 -1.7182 -1.3897 -2.5417
  128CHL1  H27B15731   2.338   2.159  14.398 -1.2300  0.2057  1.1940
  128CHL1  H27C15732   2.293   2.017  14.504  3.8395  2.3544  0.6889
  129CHL1    C315733   5.775   5.816  13.321  0.0537 -0.2620  0.2557
  129CHL1    H315734   5.680   5.860  13.359  0.8453 -0.6995  2.8991
  129CHL1    O315735   5.776   5.821  13.178 -0.0373 -0.1013  0.0265
  129CHL1   H3'15736   5.707   5.762  13.147 -0.9438  0.7346  0.4200
  129CHL1    C415737   5.883   5.910  13.377 -0.1663 -0.1814  0.1181
  129CHL1   H4A15738   5.979   5.875  13.332  0.1101 -1.5310  1.6574
  129CHL1   H4B15739   5.864   6.015  13.347 -2.6240 -0.8108 -0.7070
  129CHL1    C515740   5.908   5.902  13.524  0.3682 -0.4637 -0.2016
  129CHL1    C615741   5.901   6.010  13.605  0.0142 -0.3362  0.5452
  129CHL1    H615742   5.884   6.110  13.561 -1.0550 -0.4698  0.6305
  129CHL1    C715743   5.938   6.017  13.750  0.7160  0.4787 -0.3009
  129CHL1   H7A15744   6.003   6.106  13.762 -0.0449  1.2925 -1.9102
  129CHL1   H7B15745   5.852   6.031  13.819  1.4058 -2.5205  1.3510
  129CHL1    C815746   6.016   5.892  13.792 -0.4190  1.0711  0.2683
  129CHL1    H815747   6.114   5.897  13.740 -1.1350 -0.0177 -1.2659
  129CHL1   C1415748   6.022   5.867  13.940 -0.7323 -0.3843  0.0272
  129CHL1   H1415749   5.917   5.846  13.970 -1.7232  3.3169 -0.4249
  129CHL1   C1515750   6.070   5.988  14.017  0.5871 -0.2419 -0.4342
  129CHL1  H15A15751   6.166   6.040  13.993 -0.3028  1.3501 -0.6699
  129CHL1  H15B15752   5.996   6.070  14.013  1.2616  0.4335  0.4000
  129CHL1   C1615753   6.056   5.919  14.159  0.1373 -0.1276 -0.3292
  129CHL1  H16A15754   6.124   5.984  14.219 -1.9957 -1.4016  3.8499
  129CHL1  H16B15755   5.954   5.929  14.204  0.0373  0.2734 -0.6355
  129CHL1   C1715756   6.091   5.770  14.149  0.4296 -0.6229  1.1649
  129CHL1   H1715757   5.996   5.714  14.165 -0.7916  0.6538 -1.0557
  129CHL1   C1315758   6.110   5.751  13.992 -0.4405  0.1761  0.4296
  129CHL1   C1815759   6.258   5.775  13.940  0.3774 -0.3578 -0.3891
  129CHL1  H18A15760   6.300   5.863  13.993 -0.7125  0.5403 -0.9768
  129CHL1  H18B15761   6.317   5.683  13.961  0.9382  0.0522 -0.1565
  129CHL1  H18C15762   6.265   5.782  13.830  2.8747  0.8295 -0.2121
  129CHL1   C1215763   6.041   5.619  13.939 -0.0928 -0.1328 -0.2219
  129CHL1  H12A15764   6.106   5.531  13.958 -0.6467 -0.3018  0.9445
  129CHL1  H12B15765   5.947   5.608  13.996 -0.8564 -0.4646 -1.5168
  129CHL1   C1115766   6.022   5.632  13.789  0.0856  0.3726 -0.5510
  129CHL1  H11A15767   6.129   5.634  13.762  0.3408  0.8532  0.4425
  129CHL1  H11B15768   5.973   5.540  13.750 -1.0122  0.1698  1.1595
  129CHL1    C915769   5.954   5.760  13.741 -0.1319  0.4933 -0.4704
  129CHL1    H915770   5.849   5.761  13.777 -0.3060  0.7508 -0.9714
  129CHL1   C1015771   5.941   5.764  13.582 -0.1443 -0.1283  0.3825
  129CHL1   C1915772   6.073   5.707  13.522 -0.2303 -0.2066 -0.0390
  129CHL1  H19A15773   6.074   5.715  13.411  0.7474 -0.1078 -0.0323
  129CHL1  H19B15774   6.159   5.771  13.551 -0.6408  1.3078 -1.9811
  129CHL1  H19C15775   6.101   5.604  13.555  1.7814  0.2094 -0.3189
  129CHL1    C115776   5.818   5.675  13.533 -0.3536 -0.3363 -0.4943
  129CHL1   H1A15777   5.844   5.572  13.565  1.7357  1.2114  3.4969
  129CHL1   H1B15778   5.719   5.699  13.578 -0.2178 -0.7810  0.0465
  129CHL1    C215779   5.798   5.675  13.375 -0.0601  0.1263 -0.0568
  129CHL1   H2A15780   5.701   5.624  13.359 -1.5002  2.9674 -1.1637
  129CHL1   H2B15781   5.881   5.619  13.328 -1.3294 -1.3396 -0.6223
  129CHL1   C2015782   6.197   5.721  14.249 -0.1625  0.5340  1.1128
  129CHL1   H2015783   6.283   5.791  14.236 -1.1107  1.4307 -0.7209
  129CHL1   C2115784   6.234   5.581  14.225  0.2003 -0.3454  0.7350
  129CHL1  H21A15785   6.269   5.560  14.122  0.6736 -0.0746  0.8368
  129CHL1  H21B15786   6.145   5.522  14.255  0.0460 -0.1675  0.6269
  129CHL1  H21C15787   6.316   5.547  14.292  1.5673  1.2246 -0.0878
  129CHL1   C2215788   6.150   5.726  14.396 -0.2583 -0.1391 -0.6778
  129CHL1  H22A15789   6.090   5.818  14.413  2.3602  1.5595 -0.0126
  129CHL1  H22B15790   6.086   5.637  14.413  0.5420 -0.5526  0.2707
  129CHL1   C2315791   6.271   5.729  14.500 -0.0878 -0.3903  0.0755
  129CHL1  H23A15792   6.358   5.667  14.468 -0.9327 -0.6170 -1.9361
  129CHL1  H23B15793   6.315   5.831  14.501  1.3971 -1.0102  0.7263
  129CHL1   C2415794   6.232   5.692  14.644 -0.0917  0.0841 -0.1575
  129CHL1  H24A15795   6.318   5.715  14.711 -0.7055 -0.8188  0.9679
  129CHL1  H24B15796   6.142   5.754  14.663 -0.4884 -0.1208 -1.3040
  129CHL1   C2515797   6.181   5.545  14.671  0.0249  0.2738  0.4845
  129CHL1   H2515798   6.111   5.500  14.598  0.4415  0.2358  0.1089
  129CHL1   C2615799   6.309   5.454  14.662  0.2740 -0.1353 -0.8410
  129CHL1  H26A15800   6.379   5.499  14.736 -0.0530  0.6087 -0.9718
  129CHL1  H26B15801   6.283   5.352  14.697  2.3565 -0.5897 -0.4927
  129CHL1  H26C15802   6.359   5.450  14.563 -1.0928 -2.3758 -1.5228
  129CHL1   C2715803   6.117   5.531  14.813  0.2837  1.1049 -0.0929
  129CHL1  H27A15804   6.049   5.617  14.834 -0.4673  0.1543  1.5513
  129CHL1  H27B15805   6.074   5.430  14.828 -0.2220  1.4286  0.6720
  129CHL1  H27C15806   6.202   5.551  14.882  0.1363  0.4013  0.2971
  130CHL1    C315807   2.709   6.862  13.283  0.4796 -0.1839  0.3258
  130CHL1    H315808   2.626   6.789  13.286 -0.2101  0.6167  2.8031
  130CHL1    O315809   2.708   6.906  13.142 -0.0631 -0.4028 -0.2457
  130CHL1   H3'15810   2.781   6.966  13.123 -0.0218 -0.5932 -0.6944
  130CHL1    C415811   2.675   6.979  13.384 -0.1992  0.2212  0.5197
  130CHL1   H4A15812   2.739   7.064  13.352  0.0006 -0.2495 -0.3812
  130CHL1   H4B15813   2.570   7.009  13.363  0.0800  0.9447  0.1198
  130CHL1    C515814   2.700   6.950  13.532  0.0257  0.1246 -0.4819
  130CHL1    C615815   2.603   6.974  13.629 -0.5071  0.2189  0.2770
  130CHL1    H615816   2.514   7.030  13.596 -2.0630  0.0428  3.7759
  130CHL1    C715817   2.629   6.952  13.777 -0.3387  0.8541 -0.1831
  130CHL1   H7A15818   2.590   7.025  13.851 -1.5185 -0.8032  0.9066
  130CHL1   H7B15819   2.607   6.850  13.813  2.3580  0.3848  0.3406
  130CHL1    C815820   2.779   6.962  13.811  0.1734 -0.0036  0.3925
  130CHL1    H815821   2.807   7.068  13.792  0.2347 -0.0908 -0.0143
  130CHL1   C1415822   2.808   6.928  13.959 -0.2000  0.1235 -0.7871
  130CHL1   H1415823   2.773   6.824  13.971 -0.2416  0.0323 -1.5843
  130CHL1   C1515824   2.742   7.015  14.060 -0.1642 -0.0177 -0.9287
  130CHL1  H15A15825   2.726   7.120  14.028 -0.2792  0.3321  0.2305
  130CHL1  H15B15826   2.647   6.967  14.090  0.3228 -0.4173  0.0297
  130CHL1   C1615827   2.835   7.005  14.190  0.1296  0.3014  0.5404
  130CHL1  H16A15828   2.881   7.105  14.207  3.3187 -1.1610  1.0492
  130CHL1  H16B15829   2.770   6.974  14.275 -1.5590  0.6335 -0.5602
  130CHL1   C1715830   2.943   6.895  14.139  0.0027  0.6768 -0.3611
  130CHL1   H1715831   2.901   6.792  14.136  1.1811  0.1998 -0.9105
  130CHL1   C1315832   2.957   6.919  13.991  0.2135  0.2057  0.4214
  130CHL1   C1815833   3.040   7.058  13.980 -0.1228 -0.6685  0.1179
  130CHL1  H18A15834   3.014   7.140  14.051 -2.7865 -0.5456 -0.8787
  130CHL1  H18B15835   3.149   7.040  13.990  0.0826  1.2773  2.2265
  130CHL1  H18C15836   3.017   7.107  13.883  0.6190 -0.3928  0.0775
  130CHL1   C1215837   3.022   6.803  13.912  0.6630  0.1886  0.1219
  130CHL1  H12A15838   3.133   6.805  13.922  0.6029 -0.1186  0.9608
  130CHL1  H12B15839   2.978   6.701  13.921  1.1970  0.0643  1.6635
  130CHL1   C1115840   2.999   6.839  13.763  0.1809 -0.1955 -0.2324
  130CHL1  H11A15841   3.056   6.932  13.742 -0.9456  0.5258 -0.1454
  130CHL1  H11B15842   3.035   6.750  13.707  2.0916  0.4891 -0.1575
  130CHL1    C915843   2.855   6.866  13.719 -0.1954 -0.1221  0.5300
  130CHL1    H915844   2.805   6.769  13.742 -1.2118  0.4964  0.9737
  130CHL1   C1015845   2.840   6.903  13.560 -0.2462  0.2207 -0.6256
  130CHL1   C1915846   2.940   7.018  13.530  0.7148  0.2602 -0.0887
  130CHL1  H19A15847   2.919   7.070  13.434 -2.6746 -1.4703 -0.4447
  130CHL1  H19B15848   2.933   7.096  13.608  1.6067 -0.7021  0.9767
  130CHL1  H19C15849   3.043   6.978  13.526  0.2368 -1.6111  3.1447
  130CHL1    C115850   2.864   6.782  13.471  0.1563 -1.0586  0.0766
  130CHL1   H1A15851   2.969   6.747  13.466  0.4686 -0.0274 -1.1901
  130CHL1   H1B15852   2.799   6.695  13.493 -2.6038  1.3077  2.0393
  130CHL1    C215853   2.850   6.802  13.319  0.9918  0.1355 -0.4312
  130CHL1   H2A15854   2.865   6.707  13.263  0.6466  0.7159 -1.5278
  130CHL1   H2B15855   2.939   6.858  13.282  1.1387  0.6408  0.6687
  130CHL1   C2015856   3.065   6.894  14.228  0.0265 -0.7296  0.3239
  130CHL1   H2015857   3.120   6.987  14.203  0.3513 -0.9533  0.2026
  130CHL1   C2115858   3.171   6.790  14.186  0.1289 -0.2393  0.3865
  130CHL1  H21A15859   3.249   6.786  14.266 -0.6461 -0.1917  1.1543
  130CHL1  H21B15860   3.215   6.826  14.090 -0.9544  0.2674  0.0726
  130CHL1  H21C15861   3.135   6.685  14.176  0.3401 -0.3137  0.3933
  130CHL1   C2215862   3.045   6.910  14.381  0.0905  0.7200  0.4034
  130CHL1  H22A15863   3.138   6.942  14.434  0.0636 -1.5506  1.9550
  130CHL1  H22B15864   2.971   6.989  14.409  2.9034  2.2582  4.4932
  130CHL1   C2315865   2.989   6.776  14.439  0.0167 -0.4318  0.3004
  130CHL1  H23A15866   2.881   6.768  14.416 -0.0825  1.7881 -0.2919
  130CHL1  H23B15867   3.048   6.690  14.400 -1.2121 -0.1937 -2.3013
  130CHL1   C2415868   3.003   6.769  14.594  0.2398  0.2644  0.1250
  130CHL1  H24A15869   3.107   6.758  14.630 -0.0213  2.4696  1.7086
  130CHL1  H24B15870   2.971   6.861  14.647  1.1547 -0.3827  1.8873
  130CHL1   C2515871   2.919   6.658  14.656  0.0999 -0.2183 -0.1411
  130CHL1   H2515872   2.819   6.656  14.607 -0.7121  1.5227  1.2934
  130CHL1   C2615873   2.982   6.523  14.631 -0.1371  0.3102 -0.2455
  130CHL1  H26A15874   2.929   6.441  14.684  0.3000 -0.8682 -1.5820
  130CHL1  H26B15875   2.996   6.502  14.523  3.4342 -0.8723  0.3006
  130CHL1  H26C15876   3.083   6.522  14.677 -0.3824  0.1656  0.2892
  130CHL1   C2715877   2.898   6.681  14.807 -0.5204 -0.4608  0.0057
  130CHL1  H27A15878   2.990   6.657  14.864 -0.4620  0.0720  0.1454
  130CHL1  H27B15879   2.861   6.785  14.823  1.4281 -0.2174  4.0496
  130CHL1  H27C15880   2.825   6.613  14.854 -0.8526 -0.1125  0.0001
  131CHL1    C315881   0.355   4.890  13.295 -0.4990  0.3192  0.5119
  131CHL1    H315882   0.381   4.783  13.302  1.1761  0.7524  1.4073
  131CHL1    O315883   0.353   4.940  13.165 -0.0903  0.1022 -0.0996
  131CHL1   H3'15884   0.364   5.035  13.180  1.2833  0.0505 -0.6010
  131CHL1    C415885   0.226   4.925  13.365  0.3817  0.0166  0.1027
  131CHL1   H4A15886   0.214   5.035  13.358  2.0028  0.3438  1.7841
  131CHL1   H4B15887   0.149   4.873  13.304  1.4998  0.1890 -1.5352
  131CHL1    C515888   0.237   4.880  13.511  0.8582 -0.5305 -0.1227
  131CHL1    C615889   0.145   4.798  13.571  0.3675 -0.0493 -0.3384
  131CHL1    H615890   0.051   4.758  13.530  0.2116 -1.1620  1.0206
  131CHL1    C715891   0.154   4.747  13.714 -0.1131 -0.8070 -0.4365
  131CHL1   H7A15892   0.061   4.749  13.774 -0.0018 -2.0073 -0.1836
  131CHL1   H7B15893   0.190   4.642  13.711  1.4745 -0.3746  1.6528
  131CHL1    C815894   0.265   4.818  13.797 -0.1449  0.4068  0.5731
  131CHL1    H815895   0.224   4.916  13.829 -3.0488 -1.3566  2.7508
  131CHL1   C1415896   0.296   4.743  13.926 -0.9080  0.1919  0.0140
  131CHL1   H1415897   0.355   4.653  13.900 -1.5148 -0.4325  0.7489
  131CHL1   C1515898   0.176   4.693  14.010 -0.1682  0.5430  0.3227
  131CHL1  H15A15899   0.104   4.778  14.018  0.0421  0.6754  0.8563
  131CHL1  H15B15900   0.127   4.607  13.961  0.0231  0.2318  0.6681
  131CHL1   C1615901   0.228   4.646  14.146 -0.6229 -0.5152  0.0769
  131CHL1  H16A15902   0.165   4.674  14.233  0.0845 -2.1984  1.1762
  131CHL1  H16B15903   0.253   4.537  14.146 -1.2594 -0.6637  0.8014
  131CHL1   C1715904   0.378   4.718  14.146  0.3372  0.4713  0.2128
  131CHL1   H1715905   0.461   4.646  14.127  1.6482  1.6158  1.4107
  131CHL1   C1315906   0.383   4.816  14.027  0.3150  0.4477 -0.1754
  131CHL1   C1815907   0.319   4.950  14.078  0.1797  0.5144 -0.5897
  131CHL1  H18A15908   0.325   5.025  13.996 -2.2082  0.5361 -0.7977
  131CHL1  H18B15909   0.213   4.937  14.106  0.3214 -1.7357 -0.8563
  131CHL1  H18C15910   0.366   4.992  14.170  1.3513 -1.0922 -0.4106
  131CHL1   C1215911   0.519   4.834  13.953 -0.1633 -0.0499 -0.6183
  131CHL1  H12A15912   0.577   4.913  14.004  1.4914 -1.6532  0.1136
  131CHL1  H12B15913   0.585   4.744  13.958  0.9448  0.7853  0.1889
  131CHL1   C1115914   0.506   4.894  13.812  0.0705  0.3023  0.3249
  131CHL1  H11A15915   0.476   4.997  13.840  2.0960  1.1230 -0.3117
  131CHL1  H11B15916   0.609   4.891  13.770  0.4230 -0.8998  1.2353
  131CHL1    C915917   0.396   4.836  13.726  0.7849  0.1966  0.3912
  131CHL1    H915918   0.429   4.738  13.685 -1.1721 -0.6251  0.6692
  131CHL1   C1015919   0.366   4.921  13.592 -0.7104  0.1745  0.6283
  131CHL1   C1915920   0.341   5.072  13.625 -0.0852 -0.0247  0.7527
  131CHL1  H19A15921   0.323   5.133  13.534  0.5872  0.8894  1.2072
  131CHL1  H19B15922   0.258   5.082  13.698  0.2453  0.3945  1.0754
  131CHL1  H19C15923   0.429   5.127  13.665 -0.2227  0.2295  0.7086
  131CHL1    C115924   0.498   4.907  13.505 -0.4840 -0.1585 -0.1300
  131CHL1   H1A15925   0.572   4.964  13.565  1.5651 -1.9349 -0.8566
  131CHL1   H1B15926   0.531   4.801  13.499 -0.3194 -0.2159  1.5612
  131CHL1    C215927   0.476   4.965  13.361  0.1216  0.7129  0.2230
  131CHL1   H2A15928   0.559   4.933  13.294 -1.8676 -1.8130 -1.2261
  131CHL1   H2B15929   0.461   5.075  13.367 -0.8903  0.5418  0.8339
  131CHL1   C2015930   0.417   4.760  14.287 -0.0018 -0.3217 -0.1529
  131CHL1   H2015931   0.337   4.831  14.316 -0.6650 -0.9445 -0.4164
  131CHL1   C2115932   0.558   4.829  14.287  0.2579 -0.0149  0.3556
  131CHL1  H21A15933   0.587   4.877  14.382  0.3931  1.2892 -0.3155
  131CHL1  H21B15934   0.553   4.912  14.213  2.0583 -0.8492 -0.7870
  131CHL1  H21C15935   0.632   4.757  14.245 -0.5240 -1.4004  1.2553
  131CHL1   C2215936   0.421   4.651  14.388 -0.7478 -0.3281  0.5878
  131CHL1  H22A15937   0.351   4.568  14.366 -1.1319  0.6516 -2.2382
  131CHL1  H22B15938   0.520   4.603  14.374 -1.3991 -1.1204 -1.8436
  131CHL1   C2315939   0.414   4.695  14.533  0.2874 -0.1668 -0.1071
  131CHL1  H23A15940   0.425   4.606  14.598  1.8893  0.8438  1.0808
  131CHL1  H23B15941   0.497   4.764  14.562  0.6463 -0.0093 -1.4769
  131CHL1   C2415942   0.279   4.767  14.565 -0.3334 -0.4796 -0.0179
  131CHL1  H24A15943   0.277   4.877  14.552  0.3338 -0.4825 -0.2183
  131CHL1  H24B15944   0.209   4.725  14.490 -1.9727  1.4540  0.3519
  131CHL1   C2515945   0.229   4.733  14.709  0.3880  0.3814 -0.0845
  131CHL1   H2515946   0.228   4.623  14.722  1.8499  0.3618 -0.0079
  131CHL1   C2615947   0.318   4.809  14.814 -0.1634  0.0504 -0.3163
  131CHL1  H26A15948   0.424   4.778  14.800  0.0488  0.2470  0.7929
  131CHL1  H26B15949   0.308   4.918  14.791 -1.2514  0.2111  0.8163
  131CHL1  H26C15950   0.275   4.782  14.912 -0.5418  0.1606 -0.4533
  131CHL1   C2715951   0.084   4.774  14.726  0.6131 -0.1870  0.4779
  131CHL1  H27A15952   0.039   4.745  14.823  0.7618 -0.6139  0.4208
  131CHL1  H27B15953   0.067   4.883  14.712  2.0777 -0.0326 -0.2554
  131CHL1  H27C15954   0.018   4.726  14.651  1.5056 -0.4059 -0.1743
  132CHL1    C315955   3.858   6.987  13.386 -0.0186 -0.0809 -0.3828
  132CHL1    H315956   3.806   7.083  13.406  0.1521  0.5402 -2.6060
  132CHL1    O315957   3.807   6.944  13.263 -0.7364 -0.4263  0.4523
  132CHL1   H3'15958   3.788   7.028  13.220  1.5904  0.1341  0.3999
  132CHL1    C415959   4.006   7.011  13.382  0.3021 -0.4487 -0.0377
  132CHL1   H4A15960   4.041   6.913  13.342  0.5479 -1.3147  2.1773
  132CHL1   H4B15961   4.047   7.081  13.306  3.2170 -1.6389  0.3110
  132CHL1    C515962   4.063   7.034  13.519 -0.8916 -0.8716 -0.3783
  132CHL1    C615963   4.149   7.138  13.547  0.2293  0.2738  0.0380
  132CHL1    H615964   4.173   7.207  13.465 -2.0930  1.2690  0.1209
  132CHL1    C715965   4.217   7.167  13.674 -0.2668 -0.4030 -0.3181
  132CHL1   H7A15966   4.322   7.198  13.655 -0.0272 -1.2019 -0.3417
  132CHL1   H7B15967   4.163   7.248  13.726  0.0963 -0.6285  0.4155
  132CHL1    C815968   4.226   7.043  13.761  0.2709  0.1147 -0.8424
  132CHL1    H815969   4.310   6.980  13.726 -0.5341 -2.1616  1.0957
  132CHL1   C1415970   4.265   7.075  13.909  0.6790  0.6294  0.7461
  132CHL1   H1415971   4.182   7.143  13.934  1.8325  2.8117 -0.9756
  132CHL1   C1515972   4.394   7.149  13.933  0.2203 -0.1151 -0.2037
  132CHL1  H15A15973   4.475   7.096  13.880  0.4900  1.7981 -1.8256
  132CHL1  H15B15974   4.414   7.248  13.886  1.9531  0.0055  0.6986
  132CHL1   C1615975   4.414   7.140  14.088  0.1217 -0.1311 -0.0677
  132CHL1  H16A15976   4.521   7.115  14.103  0.3265  0.3106 -0.7853
  132CHL1  H16B15977   4.401   7.234  14.145 -1.0515 -0.2661 -0.0758
  132CHL1   C1715978   4.306   7.027  14.131 -0.3838 -0.3830 -0.5226
  132CHL1   H1715979   4.219   7.085  14.167  1.4912  2.6772 -0.5740
  132CHL1   C1315980   4.264   6.954  14.005 -0.8950  0.4497  0.2221
  132CHL1   C1815981   4.376   6.851  13.984 -0.5152  0.5217 -0.0139
  132CHL1  H18A15982   4.359   6.770  14.058  0.8646 -1.1393 -1.4282
  132CHL1  H18B15983   4.350   6.795  13.892  0.3404  0.2001 -0.0690
  132CHL1  H18C15984   4.482   6.884  13.992  0.6606 -2.5734 -1.3696
  132CHL1   C1215985   4.128   6.890  14.002 -0.3098 -0.5028  0.9220
  132CHL1  H12A15986   4.133   6.797  14.063 -2.5785 -0.5365  1.1478
  132CHL1  H12B15987   4.042   6.953  14.035 -0.3768  1.4078 -2.4901
  132CHL1   C1115988   4.080   6.857  13.863 -0.0023  0.3985 -0.7202
  132CHL1  H11A15989   4.145   6.773  13.831  2.9523  2.8799 -1.8083
  132CHL1  H11B15990   3.977   6.815  13.868 -0.3283  1.2767  0.6004
  132CHL1    C915991   4.092   6.966  13.764  0.5758  0.1575 -0.6540
  132CHL1    H915992   4.018   7.044  13.793  0.1396 -0.0449 -1.1878
  132CHL1   C1015993   4.033   6.928  13.626  0.0932  1.0800  0.2876
  132CHL1   C1915994   4.100   6.790  13.586 -0.3728 -0.1107 -0.3712
  132CHL1  H19A15995   4.038   6.707  13.627 -0.2069 -0.6231 -1.1394
  132CHL1  H19B15996   4.116   6.782  13.476  0.1037  1.2869 -0.4098
  132CHL1  H19C15997   4.205   6.797  13.620  0.0553 -1.8955 -1.2081
  132CHL1    C115998   3.878   6.914  13.628  0.0053 -0.0766 -0.6711
  132CHL1   H1A15999   3.839   6.849  13.710 -2.1068  0.8965 -0.8278
  132CHL1   H1B16000   3.839   7.010  13.668  1.2107 -0.2130  0.9384
  132CHL1    C216001   3.817   6.884  13.494 -0.3429  0.0530  0.4394
  132CHL1   H2A16002   3.707   6.868  13.496 -0.2327 -0.9395 -0.7466
  132CHL1   H2B16003   3.851   6.782  13.467  1.6861  0.3144  1.8008
  132CHL1   C2016004   4.365   6.952  14.259  0.3238 -0.2421 -0.1006
  132CHL1   H2016005   4.452   6.899  14.215 -1.1246 -2.1336 -0.8156
  132CHL1   C2116006   4.267   6.842  14.310  0.5188 -0.1467  0.2533
  132CHL1  H21A16007   4.250   6.765  14.231  1.8956 -0.5343  0.2990
  132CHL1  H21B16008   4.169   6.892  14.325  0.5389 -0.7120  2.6260
  132CHL1  H21C16009   4.297   6.798  14.408 -1.1769 -2.6680 -0.2742
  132CHL1   C2216010   4.395   7.041  14.382 -0.3715  0.2641  0.1230
  132CHL1  H22A16011   4.426   6.968  14.459 -0.6373 -0.6020 -0.5714
  132CHL1  H22B16012   4.482   7.111  14.369  1.4577 -1.7719  0.8202
  132CHL1   C2316013   4.281   7.117  14.457 -0.4277  0.1296  0.0399
  132CHL1  H23A16014   4.261   7.212  14.403 -0.6181  1.0263  1.6261
  132CHL1  H23B16015   4.189   7.057  14.445 -0.7887 -0.1643  3.5226
  132CHL1   C2416016   4.308   7.130  14.610 -0.2904 -0.0520 -0.0804
  132CHL1  H24A16017   4.316   7.029  14.656 -0.5594 -0.5596 -1.1283
  132CHL1  H24B16018   4.409   7.175  14.624  0.9853 -3.2572  2.2415
  132CHL1   C2516019   4.207   7.220  14.685  0.1756  0.0395 -0.0924
  132CHL1   H2516020   4.102   7.194  14.661  0.2272 -0.0927 -0.1760
  132CHL1   C2616021   4.214   7.190  14.834  0.3599  0.2740  0.1906
  132CHL1  H26A16022   4.156   7.273  14.880 -0.2968  0.3787 -0.7826
  132CHL1  H26B16023   4.169   7.091  14.858 -0.7799  0.6052 -0.5028
  132CHL1  H26C16024   4.316   7.193  14.878 -0.3531 -0.6423  2.0636
  132CHL1   C2716025   4.246   7.369  14.656  0.1371 -0.5320 -0.1493
  132CHL1  H27A16026   4.232   7.382  14.547  1.6497 -0.3724 -0.3461
  132CHL1  H27B16027   4.180   7.438  14.714  0.7679 -0.9456  1.1091
  132CHL1  H27C16028   4.352   7.381  14.686 -0.0539 -2.0451  1.2895
  133CHL1    C316029   0.622   2.456  13.204  0.6279 -1.2070  0.1254
  133CHL1    H316030   0.630   2.353  13.161 -0.6802 -1.7892  1.2393
  133CHL1    O316031   0.644   2.527  13.083  0.3654 -0.4280  0.1441
  133CHL1   H3'16032   0.675   2.615  13.107  1.7789 -0.1663 -2.2967
  133CHL1    C416033   0.477   2.476  13.258 -0.2782 -0.0394  0.1589
  133CHL1   H4A16034   0.453   2.584  13.263  3.2617  0.9978 -1.4009
  133CHL1   H4B16035   0.419   2.421  13.181 -0.1930  0.7217 -0.4539
  133CHL1    C516036   0.466   2.425  13.405  0.0359  0.3151 -0.1649
  133CHL1    C616037   0.362   2.344  13.429  0.6159 -0.4832 -0.1783
  133CHL1    H616038   0.293   2.323  13.345 -0.3336 -0.6477  0.6273
  133CHL1    C716039   0.335   2.290  13.565  0.2492 -0.4247 -0.2848
  133CHL1   H7A16040   0.227   2.300  13.584  0.3105  1.2938 -0.6389
  133CHL1   H7B16041   0.360   2.183  13.555 -1.9768 -1.0251  0.0940
  133CHL1    C816042   0.414   2.362  13.671 -0.2593  0.6751  0.7408
  133CHL1    H816043   0.364   2.461  13.678  1.0282  1.6783 -2.4348
  133CHL1   C1416044   0.401   2.284  13.798  0.0370  0.1492 -0.6608
  133CHL1   H1416045   0.455   2.187  13.793 -0.8479 -0.2969 -2.2829
  133CHL1   C1516046   0.260   2.256  13.849 -1.0391 -0.1464  1.2194
  133CHL1  H15A16047   0.200   2.339  13.805  0.0684 -1.1403 -2.4623
  133CHL1  H15B16048   0.226   2.167  13.792  1.9509  0.2449 -1.4527
  133CHL1   C1616049   0.276   2.238  14.001  0.1487 -0.1797 -0.8996
  133CHL1  H16A16050   0.199   2.304  14.046 -0.5136 -1.2285 -0.4562
  133CHL1  H16B16051   0.258   2.135  14.039  1.8510  0.3257  1.4767
  133CHL1   C1716052   0.424   2.272  14.032 -1.8594  0.1462  0.0720
  133CHL1   H1716053   0.474   2.176  14.009  1.0013  2.0851 -2.6607
  133CHL1   C1316054   0.473   2.359  13.915 -0.1549  0.1143  0.1618
  133CHL1   C1816055   0.415   2.503  13.931  0.2969  0.0846 -0.6919
  133CHL1  H18A16056   0.463   2.553  14.017 -0.4433 -0.6097  0.1485
  133CHL1  H18B16057   0.436   2.559  13.838 -1.2964  3.6513  0.9331
  133CHL1  H18C16058   0.304   2.505  13.941  0.2039  1.1070 -1.7651
  133CHL1   C1216059   0.622   2.372  13.880  0.4540  0.1494  0.8943
  133CHL1  H12A16060   0.677   2.438  13.950  1.4707  1.0221 -0.6853
  133CHL1  H12B16061   0.664   2.270  13.871 -0.7454 -0.2199 -1.1354
  133CHL1   C1116062   0.652   2.438  13.742  0.0017 -0.0607  0.3253
  133CHL1  H11A16063   0.639   2.547  13.763  2.0536  0.3769 -0.4210
  133CHL1  H11B16064   0.756   2.419  13.710 -0.4383  0.8474 -1.8427
  133CHL1    C916065   0.563   2.379  13.630  0.5531  0.4936  0.5024
  133CHL1    H916066   0.603   2.277  13.611 -0.9052 -0.1404  0.6339
  133CHL1   C1016067   0.577   2.462  13.502  0.3524  0.1325 -0.2628
  133CHL1   C1916068   0.549   2.619  13.521  0.4334  0.3534  0.5523
  133CHL1  H19A16069   0.559   2.685  13.432 -0.2397 -1.1771 -0.6932
  133CHL1  H19B16070   0.452   2.635  13.573  1.2403  0.6902  2.0136
  133CHL1  H19C16071   0.621   2.677  13.583  0.3579  0.3188  0.6724
  133CHL1    C116072   0.717   2.437  13.448 -0.7381  1.0912  0.8336
  133CHL1   H1A16073   0.804   2.480  13.502  0.8346  1.6729 -1.9518
  133CHL1   H1B16074   0.730   2.327  13.448 -1.7806  0.9538  0.2893
  133CHL1    C216075   0.732   2.495  13.304 -0.4932  0.3094  0.9280
  133CHL1   H2A16076   0.831   2.466  13.261 -0.5937  1.2953 -0.0295
  133CHL1   H2B16077   0.733   2.606  13.307 -1.4673  0.4408 -1.3658
  133CHL1   C2016078   0.455   2.308  14.176  0.5959  0.4067 -0.1653
  133CHL1   H2016079   0.412   2.410  14.182 -1.7386 -0.3596 -2.0533
  133CHL1   C2116080   0.607   2.318  14.198 -0.3860 -0.2774 -0.3405
  133CHL1  H21A16081   0.650   2.229  14.145 -1.1428  0.1477 -1.7133
  133CHL1  H21B16082   0.634   2.317  14.306 -0.4072  2.2525 -0.2686
  133CHL1  H21C16083   0.642   2.412  14.152 -3.0506  1.1772  0.4124
  133CHL1   C2216084   0.384   2.214  14.283 -0.0940 -0.1071  0.7118
  133CHL1  H22A16085   0.273   2.221  14.270 -0.1179 -1.7354 -0.2221
  133CHL1  H22B16086   0.399   2.104  14.276 -0.2531 -0.0401 -3.2629
  133CHL1   C2316087   0.403   2.251  14.425 -0.0720 -0.4196 -0.2413
  133CHL1  H23A16088   0.339   2.185  14.487 -0.4781  2.3205  2.5144
  133CHL1  H23B16089   0.507   2.235  14.462 -0.3166 -0.7158  0.3368
  133CHL1   C2416090   0.350   2.398  14.458  0.1977  0.6926  0.3095
  133CHL1  H24A16091   0.436   2.464  14.434  0.8263 -0.1736  0.1033
  133CHL1  H24B16092   0.261   2.418  14.396 -1.2990 -2.2161  1.3013
  133CHL1   C2516093   0.320   2.420  14.603 -0.0907  0.0580  0.6875
  133CHL1   H2516094   0.413   2.401  14.662 -0.3878 -1.7889  0.6006
  133CHL1   C2616095   0.278   2.566  14.628 -0.0775  0.4102 -0.2061
  133CHL1  H26A16096   0.249   2.586  14.733 -0.9630  1.5357 -0.6401
  133CHL1  H26B16097   0.360   2.637  14.605  1.5607 -0.2901  2.8909
  133CHL1  H26C16098   0.185   2.583  14.570  0.5061  0.7172 -1.0695
  133CHL1   C2716099   0.210   2.325  14.663  0.0635  0.0050  0.3575
  133CHL1  H27A16100   0.114   2.331  14.608 -0.9505 -3.4111  1.5143
  133CHL1  H27B16101   0.241   2.219  14.665 -0.1808 -0.0776  2.7993
  133CHL1  H27C16102   0.194   2.358  14.768 -0.5746  2.1778 -0.3588
  134CHL1    C316103   6.095   2.878  13.254  0.6816  0.5035  0.2525
  134CHL1    H316104   6.025   2.962  13.271 -0.9499 -0.8829  0.7295
  134CHL1    O316105   6.052   2.803  13.143 -0.3009  0.0184  0.2424
  134CHL1   H3'16106   5.956   2.810  13.154 -0.2250  1.3033  0.3230
  134CHL1    C416107   6.242   2.917  13.223  0.5319 -0.0557  0.0188
  134CHL1   H4A16108   6.294   2.821  13.201 -2.1639 -1.9374  1.3026
  134CHL1   H4B16109   6.247   2.977  13.129  2.6168 -0.3650 -0.0985
  134CHL1    C516110   6.312   2.985  13.340 -0.3871  0.5940  0.7564
  134CHL1    C616111   6.360   3.110  13.336 -0.8173 -0.5428  0.2099
  134CHL1    H616112   6.353   3.168  13.243 -2.0526 -1.9040 -0.5951
  134CHL1    C716113   6.430   3.178  13.452 -0.2948  0.0908 -0.3572
  134CHL1   H7A16114   6.513   3.242  13.415 -0.3969  1.2345  1.2879
  134CHL1   H7B16115   6.359   3.251  13.495  1.7177  1.3829  0.9808
  134CHL1    C816116   6.478   3.080  13.559  0.0805  0.4846 -0.4149
  134CHL1    H816117   6.561   3.013  13.528  0.0002  0.8138 -1.3708
  134CHL1   C1416118   6.519   3.151  13.685 -0.3310 -0.1775 -0.2360
  134CHL1   H1416119   6.430   3.213  13.708  0.3950 -0.2061  3.0951
  134CHL1   C1516120   6.629   3.257  13.671  0.1942 -0.0049  0.4872
  134CHL1  H15A16121   6.713   3.229  13.604 -0.2991  1.0965 -0.6510
  134CHL1  H15B16122   6.597   3.352  13.622 -2.7638 -0.9452  0.4197
  134CHL1   C1616123   6.677   3.280  13.813 -0.2079  0.5035  0.1280
  134CHL1  H16A16124   6.786   3.258  13.810  0.1362  1.4143  2.9877
  134CHL1  H16B16125   6.665   3.387  13.839  0.7964  0.8338 -0.6677
  134CHL1   C1716126   6.589   3.187  13.902 -0.2478  0.4465 -0.7885
  134CHL1   H1716127   6.502   3.253  13.924 -0.3612  0.2504 -0.6556
  134CHL1   C1316128   6.548   3.074  13.813 -0.9374  0.5206  0.4063
  134CHL1   C1816129   6.666   2.979  13.781  0.4210 -0.5354  0.0253
  134CHL1  H18A16130   6.643   2.921  13.690  0.4188 -0.6262  0.0844
  134CHL1  H18B16131   6.757   3.041  13.763 -1.2978  1.5291 -2.1262
  134CHL1  H18C16132   6.676   2.902  13.860  2.1956 -0.8681 -0.4698
  134CHL1   C1216133   6.427   2.993  13.846  0.1810 -0.2938 -0.6592
  134CHL1  H12A16134   6.431   2.940  13.944 -1.0861  0.8330  0.0414
  134CHL1  H12B16135   6.341   3.062  13.859  0.2462 -0.3980  0.3755
  134CHL1   C1116136   6.379   2.909  13.725  0.1205 -0.6999 -0.0404
  134CHL1  H11A16137   6.465   2.838  13.718 -0.3473 -1.4561  1.5128
  134CHL1  H11B16138   6.302   2.834  13.755  0.7444 -0.8743  1.1904
  134CHL1    C916139   6.352   2.988  13.595 -0.2752 -0.0724 -0.4859
  134CHL1    H916140   6.265   3.054  13.617 -0.6014  0.0046 -1.8639
  134CHL1   C1016141   6.306   2.904  13.471  0.3624 -0.0479  0.2271
  134CHL1   C1916142   6.396   2.780  13.466 -0.0410  0.5649  0.1212
  134CHL1  H19A16143   6.386   2.717  13.375 -2.1563  0.8482  0.0934
  134CHL1  H19B16144   6.502   2.813  13.470  0.6382 -1.3859 -0.6982
  134CHL1  H19C16145   6.377   2.708  13.548  0.2042 -2.0680 -1.9924
  134CHL1    C116146   6.155   2.862  13.501  0.3166  0.4406  0.6167
  134CHL1   H1A16147   6.141   2.795  13.588 -2.6926  0.1289 -0.0149
  134CHL1   H1B16148   6.098   2.954  13.525 -2.7336 -0.9091 -0.9387
  134CHL1    C216149   6.078   2.796  13.382 -0.7815 -0.3028 -0.3291
  134CHL1   H2A16150   5.971   2.770  13.398 -1.0735  0.3108 -1.2312
  134CHL1   H2B16151   6.124   2.695  13.373  3.4731  1.5790 -2.8676
  134CHL1   C2016152   6.660   3.130  14.030  0.0945  0.3791  0.6684
  134CHL1   H2016153   6.668   3.019  14.029  1.7475  0.4614  1.4602
  134CHL1   C2116154   6.549   3.161  14.147 -0.4876 -0.6212 -0.2012
  134CHL1  H21A16155   6.558   3.093  14.234  1.3830 -1.0436 -0.6757
  134CHL1  H21B16156   6.445   3.159  14.108 -1.2792  1.3895  1.6104
  134CHL1  H21C16157   6.572   3.264  14.181 -0.3005 -1.1746  1.3971
  134CHL1   C2216158   6.798   3.198  14.075  0.0603 -0.1205 -0.3640
  134CHL1  H22A16159   6.868   3.193  13.989  3.8029 -2.4060  2.4915
  134CHL1  H22B16160   6.770   3.301  14.107 -1.7854 -0.5118 -0.6221
  134CHL1   C2316161   6.864   3.122  14.199 -1.1344  0.2165  0.8821
  134CHL1  H23A16162   6.791   3.122  14.283  0.5282 -1.3083  2.4152
  134CHL1  H23B16163   6.883   3.016  14.172 -2.4566  0.6149 -2.0359
  134CHL1   C2416164   6.998   3.191  14.255  0.6480 -0.3775  0.0796
  134CHL1  H24A16165   7.075   3.194  14.175  0.0807 -2.0483 -0.5634
  134CHL1  H24B16166   6.976   3.296  14.283 -0.0862 -0.6840  0.6660
  134CHL1   C2516167   7.061   3.116  14.383  0.1489  0.1254  0.3973
  134CHL1   H2516168   7.099   3.017  14.350  2.3651  0.8041  0.7324
  134CHL1   C2616169   7.180   3.195  14.437  0.3053  0.4700 -0.1692
  134CHL1  H26A16170   7.270   3.202  14.372  0.4285  0.8287  0.0351
  134CHL1  H26B16171   7.147   3.299  14.459  1.9632  1.0725 -0.3627
  134CHL1  H26C16172   7.203   3.147  14.534 -1.8304 -1.0351 -0.3579
  134CHL1   C2716173   6.952   3.098  14.492  0.5315 -0.0262  0.1289
  134CHL1  H27A16174   6.993   3.068  14.591 -0.7467  1.0635  1.0421
  134CHL1  H27B16175   6.907   3.196  14.520 -1.9045 -2.1305  4.7006
  134CHL1  H27C16176   6.882   3.020  14.456  0.6019  1.2243 -3.0831
  135CHL1    C316177   6.337   3.527  13.158 -0.5096 -0.5305  0.3502
  135CHL1    H316178   6.396   3.433  13.169 -0.8897 -1.2960 -2.9546
  135CHL1    O316179   6.368   3.588  13.037 -0.0233  0.1780 -0.1341
  135CHL1   H3'16180   6.301   3.557  12.976 -1.2014 -1.1200  1.7119
  135CHL1    C416181   6.188   3.498  13.177  0.0086 -0.7132  0.0961
  135CHL1   H4A16182   6.134   3.593  13.156  2.2358  0.7309  0.4630
  135CHL1   H4B16183   6.152   3.435  13.094 -0.3461  0.7757 -0.9277
  135CHL1    C516184   6.149   3.446  13.317  0.0132  0.5115 -0.4379
  135CHL1    C616185   6.088   3.332  13.328  0.5282  0.3225 -0.4535
  135CHL1    H616186   6.059   3.275  13.238 -2.1290  1.8886 -0.7213
  135CHL1    C716187   6.048   3.270  13.461  0.7109 -0.2388  0.1500
  135CHL1   H7A16188   5.949   3.224  13.442  0.7316  0.5932 -2.4250
  135CHL1   H7B16189   6.113   3.182  13.479 -2.5040 -3.0035 -0.8643
  135CHL1    C816190   6.050   3.374  13.579 -0.4246  0.3521  0.1351
  135CHL1    H816191   5.957   3.434  13.565 -0.5853 -0.2638 -1.6099
  135CHL1   C1416192   6.044   3.307  13.712 -0.0723  0.3524  0.6944
  135CHL1   H1416193   6.144   3.260  13.722 -0.4340 -0.2450  1.6488
  135CHL1   C1516194   5.948   3.187  13.734 -0.0470  0.6547 -0.6700
  135CHL1  H15A16195   5.841   3.207  13.708 -0.7409  2.2923  2.8130
  135CHL1  H15B16196   5.986   3.100  13.677 -0.9403 -1.3960  1.6425
  135CHL1   C1616197   5.944   3.170  13.892  0.3663  0.3179  0.1826
  135CHL1  H16A16198   5.840   3.176  13.930 -0.4251 -1.4695 -1.5385
  135CHL1  H16B16199   5.979   3.073  13.934  0.2450  0.1789 -0.0335
  135CHL1   C1716200   6.028   3.287  13.948 -0.2941 -0.2083  0.7401
  135CHL1   H1716201   6.130   3.247  13.962 -0.2464 -0.0773  0.7721
  135CHL1   C1316202   6.038   3.399  13.832 -0.1497 -0.0085 -1.4201
  135CHL1   C1816203   5.908   3.484  13.838 -0.2732  0.0312  0.6782
  135CHL1  H18A16204   5.899   3.549  13.748 -1.0602  0.4808  1.0656
  135CHL1  H18B16205   5.823   3.415  13.816 -0.0704  0.2502 -0.9345
  135CHL1  H18C16206   5.878   3.537  13.931 -2.4695  0.5243 -0.2385
  135CHL1   C1216207   6.164   3.486  13.829  0.3366 -0.4922  0.4664
  135CHL1  H12A16208   6.150   3.561  13.910  0.0382  0.2674 -0.2692
  135CHL1  H12B16209   6.259   3.430  13.843  0.3017 -1.0664 -1.4233
  135CHL1   C1116210   6.166   3.570  13.702  0.0801  0.0473  0.0664
  135CHL1  H11A16211   6.079   3.638  13.694  0.3132  0.1721 -1.6833
  135CHL1  H11B16212   6.266   3.619  13.712  0.3793  0.0117 -2.3113
  135CHL1    C916213   6.168   3.473  13.576 -0.1076  0.6336  0.7937
  135CHL1    H916214   6.255   3.406  13.594 -0.7897 -0.0231  1.7622
  135CHL1   C1016215   6.185   3.534  13.434 -0.1472  0.3219 -0.0284
  135CHL1   C1916216   6.094   3.666  13.424 -0.2688  0.4681 -0.2193
  135CHL1  H19A16217   6.134   3.751  13.483  1.2614  0.6301 -1.4232
  135CHL1  H19B16218   6.096   3.703  13.319 -0.9727  0.5407 -0.2072
  135CHL1  H19C16219   5.990   3.642  13.452 -0.3110 -1.0788 -1.5446
  135CHL1    C116220   6.338   3.560  13.405 -0.2500  0.1127 -0.2285
  135CHL1   H1A16221   6.371   3.623  13.490  0.4383  1.6802 -1.6028
  135CHL1   H1B16222   6.396   3.466  13.417 -0.1998  0.1573 -0.1189
  135CHL1    C216223   6.373   3.627  13.272  0.4957 -0.8542  0.0442
  135CHL1   H2A16224   6.482   3.644  13.258 -0.0315  1.4849 -1.7602
  135CHL1   H2B16225   6.324   3.726  13.264 -0.9179 -1.5528 -0.4959
  135CHL1   C2016226   6.000   3.328  14.092  0.1653  0.5947 -0.1753
  135CHL1   H2016227   5.912   3.395  14.100  0.9613  1.6734 -0.2446
  135CHL1   C2116228   6.123   3.405  14.156  0.8889 -0.2775  0.4857
  135CHL1  H21A16229   6.217   3.359  14.120  1.3052  2.1066 -1.6905
  135CHL1  H21B16230   6.124   3.398  14.267 -0.0075 -0.9072  0.4734
  135CHL1  H21C16231   6.124   3.509  14.119 -0.9126 -0.8705 -1.4942
  135CHL1   C2216232   5.956   3.204  14.183 -0.0620 -0.5917  0.4037
  135CHL1  H22A16233   5.873   3.144  14.139 -1.5992  1.9340 -0.3903
  135CHL1  H22B16234   6.048   3.147  14.208  0.1325 -0.7616 -0.6573
  135CHL1   C2316235   5.914   3.246  14.323 -0.4685  0.2024 -0.2533
  135CHL1  H23A16236   5.878   3.151  14.369  1.5407 -0.8919 -0.8352
  135CHL1  H23B16237   5.997   3.283  14.387 -1.6765  3.3111 -0.2668
  135CHL1   C2416238   5.784   3.339  14.342 -0.0626  0.2110 -0.0715
  135CHL1  H24A16239   5.795   3.433  14.284  1.7820  0.7106  1.0066
  135CHL1  H24B16240   5.697   3.288  14.296  0.3763 -1.0936  0.4894
  135CHL1   C2516241   5.763   3.369  14.491 -0.1300  0.0665  0.5387
  135CHL1   H2516242   5.737   3.281  14.555 -0.4056 -1.2324 -1.2845
  135CHL1   C2616243   5.884   3.445  14.548 -0.0141  0.4589  0.2769
  135CHL1  H26A16244   5.946   3.369  14.599  0.5426 -1.2840 -2.7850
  135CHL1  H26B16245   5.943   3.495  14.469  0.7522 -0.5699  0.1886
  135CHL1  H26C16246   5.856   3.509  14.635 -0.7175 -0.6678  0.9052
  135CHL1   C2716247   5.645   3.463  14.505  0.5074  0.5519 -0.3923
  135CHL1  H27A16248   5.624   3.487  14.611  0.6963 -2.6214  0.4773
  135CHL1  H27B16249   5.655   3.553  14.440 -0.3079  1.3314  0.5435
  135CHL1  H27C16250   5.558   3.403  14.467  0.9797 -1.4858  1.5445
  136CHL1    C316251   5.563   0.617  13.276  0.2201 -0.7282  0.2308
  136CHL1    H316252   5.581   0.508  13.269 -0.2568 -0.6986 -3.2982
  136CHL1    O316253   5.499   0.662  13.156  0.3992  0.5117  0.0154
  136CHL1   H3'16254   5.573   0.702  13.109 -0.8709  1.3293 -1.3724
  136CHL1    C416255   5.481   0.653  13.397  0.1260  0.2980 -0.0026
  136CHL1   H4A16256   5.472   0.764  13.391 -1.0641  0.1850 -0.7436
  136CHL1   H4B16257   5.378   0.612  13.388  0.6192 -0.5618 -2.7018
  136CHL1    C516258   5.544   0.613  13.533 -0.9579 -0.1080  0.5392
  136CHL1    C616259   5.492   0.530  13.619 -0.3649 -0.0419  0.1238
  136CHL1    H616260   5.388   0.499  13.599 -0.5047 -0.1001  0.9011
  136CHL1    C716261   5.551   0.484  13.745  1.1429 -0.3073  0.4939
  136CHL1   H7A16262   5.478   0.476  13.828 -1.2321  0.5388 -1.4139
  136CHL1   H7B16263   5.580   0.381  13.718  0.6514 -0.4558  0.5265
  136CHL1    C816264   5.679   0.563  13.792  0.1869 -0.0185  0.1336
  136CHL1    H816265   5.641   0.661  13.828 -1.7306 -1.4150  2.2319
  136CHL1   C1416266   5.757   0.490  13.896  1.3876 -0.1038 -0.0151
  136CHL1   H1416267   5.779   0.391  13.850  0.0198 -0.5665  0.2982
  136CHL1   C1516268   5.667   0.449  14.016  0.3645  0.1921 -0.0736
  136CHL1  H15A16269   5.611   0.537  14.055  0.4523  0.2521 -0.0820
  136CHL1  H15B16270   5.587   0.374  14.001 -1.3430  1.9256 -0.0658
  136CHL1   C1616271   5.775   0.411  14.114 -0.0860  0.4430 -0.4674
  136CHL1  H16A16272   5.757   0.461  14.212 -1.6758 -2.5871  0.9310
  136CHL1  H16B16273   5.786   0.302  14.131  0.6929  0.6265  0.2975
  136CHL1   C1716274   5.916   0.455  14.052  0.0201 -0.4084 -1.1303
  136CHL1   H1716275   5.941   0.361  13.998 -1.7569 -2.0360  0.6948
  136CHL1   C1316276   5.875   0.561  13.950  0.1926 -0.2419 -0.2550
  136CHL1   C1816277   5.851   0.700  14.009  0.2334  0.4200  0.0313
  136CHL1  H18A16278   5.765   0.701  14.080 -0.3694 -1.3326 -0.6249
  136CHL1  H18B16279   5.943   0.736  14.059 -0.5138  1.4074  0.7329
  136CHL1  H18C16280   5.813   0.776  13.936 -0.8405 -0.3278 -0.2184
  136CHL1   C1216281   5.972   0.572  13.825 -0.3928 -0.0172  0.2409
  136CHL1  H12A16282   6.065   0.623  13.859  0.7097 -0.2879 -2.1831
  136CHL1  H12B16283   6.001   0.470  13.794 -0.9853 -0.4090  0.9424
  136CHL1   C1116284   5.905   0.648  13.705 -0.5089  0.3342 -0.0213
  136CHL1  H11A16285   5.901   0.756  13.731 -1.3661 -0.2425  2.5788
  136CHL1  H11B16286   5.972   0.647  13.617 -1.1704 -2.1250 -0.5815
  136CHL1    C916287   5.766   0.595  13.666  0.1737  0.3109  0.0108
  136CHL1    H916288   5.786   0.491  13.634  0.3395  1.1373 -2.8521
  136CHL1   C1016289   5.685   0.665  13.550  0.4761  0.9141 -0.9557
  136CHL1   C1916290   5.676   0.815  13.590  0.4302 -0.7839  0.0526
  136CHL1  H19A16291   5.602   0.820  13.673 -2.1091 -1.0105 -2.0892
  136CHL1  H19B16292   5.767   0.871  13.621 -1.6438  1.9108  1.7740
  136CHL1  H19C16293   5.636   0.872  13.504  0.9726 -0.4984 -0.0180
  136CHL1    C116294   5.760   0.642  13.413 -1.1333  0.0284  0.4038
  136CHL1   H1A16295   5.860   0.688  13.428 -2.7518  3.3396  2.0515
  136CHL1   H1B16296   5.766   0.531  13.402 -2.0094  0.0222 -0.0855
  136CHL1    C216297   5.690   0.693  13.287 -0.0589  0.1982 -0.0082
  136CHL1   H2A16298   5.759   0.680  13.201  1.7705  0.2474  1.3849
  136CHL1   H2B16299   5.674   0.802  13.300  2.7430  0.7408 -0.3688
  136CHL1   C2016300   6.019   0.479  14.161 -0.0586 -0.3046  0.1658
  136CHL1   H2016301   5.980   0.548  14.238  2.0903 -0.6448  1.6641
  136CHL1   C2116302   6.155   0.533  14.097  0.7989  0.5267  0.0070
  136CHL1  H21A16303   6.183   0.463  14.016  2.1731  0.0474  0.8673
  136CHL1  H21B16304   6.232   0.534  14.177  1.3366 -2.4315 -0.3724
  136CHL1  H21C16305   6.150   0.635  14.054  1.8637 -0.5918 -3.0299
  136CHL1   C2216306   6.042   0.345  14.245 -0.6324  0.1568  1.1241
  136CHL1  H22A16307   5.949   0.293  14.275 -1.5432  1.9176  1.4876
  136CHL1  H22B16308   6.103   0.279  14.181  0.4558  0.9045  1.3524
  136CHL1   C2316309   6.125   0.348  14.378 -0.0175 -0.2783  0.5137
  136CHL1  H23A16310   6.220   0.402  14.365 -0.7965  1.0012 -0.0263
  136CHL1  H23B16311   6.070   0.418  14.444 -1.0510 -0.9690  0.4217
  136CHL1   C2416312   6.161   0.215  14.437  0.7431 -0.7632  1.2037
  136CHL1  H24A16313   6.066   0.172  14.475 -0.5314  0.5414 -0.4105
  136CHL1  H24B16314   6.214   0.164  14.354  1.3771  0.1866  1.0138
  136CHL1   C2516315   6.270   0.223  14.545 -0.1502 -1.1375 -0.1633
  136CHL1   H2516316   6.365   0.262  14.503 -0.2026 -0.2420  0.5221
  136CHL1   C2616317   6.241   0.325  14.662  0.0342  0.1581  0.8563
  136CHL1  H26A16318   6.140   0.305  14.705  0.7437 -1.0562  2.0222
  136CHL1  H26B16319   6.314   0.314  14.744  0.5468 -1.1247  0.2583
  136CHL1  H26C16320   6.246   0.431  14.630  0.9611 -0.4549 -1.1868
  136CHL1   C2716321   6.302   0.081  14.601 -0.6438 -0.0356  0.0426
  136CHL1  H27A16322   6.318   0.023  14.508 -0.2922  1.4927 -0.8978
  136CHL1  H27B16323   6.393   0.071  14.665  0.9079 -4.6564 -2.4183
  136CHL1  H27C16324   6.208   0.044  14.648 -0.3397 -0.1449  0.5747
  137CHL1    C316325   0.717   2.075  13.238 -0.7655 -0.4191  0.1254
  137CHL1    H316326   0.753   2.178  13.255  0.6771 -0.8332 -0.2656
  137CHL1    O316327   0.730   2.057  13.099 -0.2619  0.0791  0.5897
  137CHL1   H3'16328   0.807   2.001  13.084  0.2840  0.2924  2.3140
  137CHL1    C416329   0.822   1.982  13.312  0.4205  0.2719  0.7045
  137CHL1   H4A16330   0.815   1.886  13.257  2.2636  1.3980 -1.7241
  137CHL1   H4B16331   0.928   2.011  13.296  0.1140  0.2427 -1.7942
  137CHL1    C516332   0.780   1.961  13.460 -0.3571 -0.4820  0.1741
  137CHL1    C616333   0.871   1.989  13.555  0.5201 -0.2148 -0.0420
  137CHL1    H616334   0.968   2.029  13.523 -0.0079  0.7961 -0.3997
  137CHL1    C716335   0.849   1.990  13.701  0.4515 -0.0293  0.4976
  137CHL1   H7A16336   0.943   1.946  13.741  1.4547  1.7545  0.1900
  137CHL1   H7B16337   0.842   2.093  13.740 -1.8103  0.9267 -2.0891
  137CHL1    C816338   0.728   1.904  13.738  0.0108 -0.2168  0.5926
  137CHL1    H816339   0.742   1.796  13.715 -1.4875 -0.5777  1.2266
  137CHL1   C1416340   0.689   1.923  13.884 -0.7888  0.1865 -0.0046
  137CHL1   H1416341   0.661   2.028  13.904  3.6095  1.2983  1.6039
  137CHL1   C1516342   0.794   1.887  13.989  0.0282  0.6304 -0.3712
  137CHL1  H15A16343   0.843   1.792  13.961  0.6506  0.5135  1.0223
  137CHL1  H15B16344   0.872   1.966  13.985  0.0129  0.6690  0.0278
  137CHL1   C1616345   0.721   1.872  14.123  0.9510  0.2157 -0.3924
  137CHL1  H16A16346   0.736   1.773  14.171 -4.1750  0.4402  2.3720
  137CHL1  H16B16347   0.745   1.949  14.199  2.9274  0.1176 -0.8663
  137CHL1   C1716348   0.569   1.876  14.079 -0.3839  0.2580 -0.0774
  137CHL1   H1716349   0.536   1.980  14.097 -1.4442 -0.1949  0.7268
  137CHL1   C1316350   0.570   1.842  13.931 -0.1259  0.2478 -0.8230
  137CHL1   C1816351   0.588   1.689  13.913 -0.6115  0.3443 -0.3721
  137CHL1  H18A16352   0.487   1.648  13.933 -0.7002  0.4118 -0.6754
  137CHL1  H18B16353   0.622   1.652  13.814  3.0102  1.0531  0.4411
  137CHL1  H18C16354   0.643   1.644  13.998  0.1418 -1.4379 -1.7347
  137CHL1   C1216355   0.450   1.890  13.850  0.6645  0.5761 -0.2691
  137CHL1  H12A16356   0.351   1.851  13.884  1.5700 -0.8239  0.8764
  137CHL1  H12B16357   0.443   2.001  13.860 -1.7404  0.4778 -0.1279
  137CHL1   C1116358   0.471   1.869  13.701 -0.5910 -0.2704 -0.0563
  137CHL1  H11A16359   0.474   1.760  13.678  0.8348 -0.7989  2.2688
  137CHL1  H11B16360   0.385   1.919  13.651 -1.0711 -0.7893  0.2360
  137CHL1    C916361   0.602   1.940  13.654  0.5919  0.1369  0.6704
  137CHL1    H916362   0.574   2.047  13.661 -2.4504 -0.5153 -0.0394
  137CHL1   C1016363   0.632   1.936  13.494  0.0219  0.6293  0.1874
  137CHL1   C1916364   0.600   1.795  13.448  0.4095  0.1880  0.0882
  137CHL1  H19A16365   0.625   1.766  13.344  0.3143 -0.7179  0.3092
  137CHL1  H19B16366   0.659   1.726  13.513 -1.1909  0.2887  1.7397
  137CHL1  H19C16367   0.493   1.768  13.453  0.8941 -1.8972  0.1910
  137CHL1    C116368   0.543   2.043  13.424 -0.7239  0.8951  0.3169
  137CHL1   H1A16369   0.436   2.021  13.441 -0.8089 -0.0120 -1.1919
  137CHL1   H1B16370   0.566   2.146  13.458  0.4431  0.7517  0.0099
  137CHL1    C216371   0.570   2.043  13.275  0.2154 -0.1932  0.3752
  137CHL1   H2A16372   0.502   2.115  13.226  1.2209  0.2769 -0.3623
  137CHL1   H2B16373   0.551   1.944  13.228 -2.6677  0.2967  0.3833
  137CHL1   C2016374   0.482   1.796  14.185  0.2844  0.6207 -0.0177
  137CHL1   H2016375   0.511   1.688  14.186  1.0115  0.6880  4.1811
  137CHL1   C2116376   0.334   1.801  14.155  0.4107  0.2532 -0.2202
  137CHL1  H21A16377   0.308   1.747  14.061  0.5388 -0.4571  0.1533
  137CHL1  H21B16378   0.303   1.907  14.137  2.6059  1.2610  1.5032
  137CHL1  H21C16379   0.277   1.762  14.242  0.5849  1.6672  0.5641
  137CHL1   C2216380   0.503   1.834  14.333  0.4151 -0.1654 -0.6081
  137CHL1  H22A16381   0.585   1.909  14.334  0.0705  0.2104  0.0694
  137CHL1  H22B16382   0.421   1.903  14.359  0.5106 -0.4330  0.4321
  137CHL1   C2316383   0.515   1.714  14.427  0.4792 -0.3752 -0.5793
  137CHL1  H23A16384   0.438   1.635  14.412  1.3433 -1.9058  2.3226
  137CHL1  H23B16385   0.613   1.670  14.399 -0.6520 -1.9649 -2.2584
  137CHL1   C2416386   0.512   1.751  14.577  0.3491  0.1512  0.2763
  137CHL1  H24A16387   0.575   1.840  14.599 -1.3081  1.0554  1.7078
  137CHL1  H24B16388   0.412   1.801  14.583  0.4012  0.3941 -0.6990
  137CHL1   C2516389   0.540   1.637  14.677  0.8493  0.3337  0.7671
  137CHL1   H2516390   0.637   1.591  14.649 -0.2730 -0.2884 -2.5456
  137CHL1   C2616391   0.547   1.696  14.820 -0.2280 -0.0221 -0.5253
  137CHL1  H26A16392   0.640   1.753  14.838 -0.5541  0.2889  0.2499
  137CHL1  H26B16393   0.458   1.763  14.828  0.2761  0.5648  0.2670
  137CHL1  H26C16394   0.552   1.626  14.906 -0.2843  1.0563  0.3828
  137CHL1   C2716395   0.430   1.530  14.667 -0.2251 -0.1541 -0.1084
  137CHL1  H27A16396   0.467   1.462  14.746 -2.7024  0.7923  2.0333
  137CHL1  H27B16397   0.330   1.572  14.693 -1.0012  0.1553 -3.2137
  137CHL1  H27C16398   0.428   1.479  14.568  0.9126  0.3670 -0.4197
  138CHL1    C316399   6.941   0.663  13.210  0.2599 -0.2002  0.1450
  138CHL1    H316400   6.995   0.758  13.191  0.8839 -0.4901  0.4422
  138CHL1    O316401   6.921   0.621  13.077  0.4392 -0.3090  0.7328
  138CHL1   H3'16402   6.886   0.694  13.026  1.1762 -0.9183 -0.7057
  138CHL1    C416403   7.021   0.557  13.285  0.0919 -0.3198  0.4533
  138CHL1   H4A16404   6.961   0.464  13.281  0.1020 -0.3170  0.2034
  138CHL1   H4B16405   7.116   0.544  13.229  0.0078 -0.5091  0.3548
  138CHL1    C516406   7.047   0.585  13.424  0.6158  0.3089 -1.4235
  138CHL1    C616407   7.172   0.575  13.477  0.3329  0.8091  0.0879
  138CHL1    H616408   7.249   0.535  13.409 -0.1220 -1.6951  0.9413
  138CHL1    C716409   7.200   0.610  13.625  0.1152 -0.4133 -0.0054
  138CHL1   H7A16410   7.271   0.537  13.669  0.2715 -0.0261  0.3968
  138CHL1   H7B16411   7.256   0.706  13.622  2.4951 -1.7270 -1.7861
  138CHL1    C816412   7.075   0.617  13.716 -0.0574  0.3323 -0.4609
  138CHL1    H816413   7.042   0.511  13.721  1.9633 -0.3501 -0.5340
  138CHL1   C1416414   7.102   0.680  13.852  0.3044 -0.4322  0.5244
  138CHL1   H1416415   7.131   0.784  13.827 -3.2245  1.2578  2.6980
  138CHL1   C1516416   7.223   0.625  13.929 -0.4253  0.5352 -0.1873
  138CHL1  H15A16417   7.225   0.514  13.933 -0.1272  0.5396 -0.1532
  138CHL1  H15B16418   7.320   0.656  13.883 -1.2125  2.3264 -0.7161
  138CHL1   C1616419   7.202   0.692  14.061 -0.2945  0.1979  0.1537
  138CHL1  H16A16420   7.230   0.611  14.132  3.0181  0.1510 -1.0528
  138CHL1  H16B16421   7.268   0.780  14.073  1.1054 -0.8282  0.1762
  138CHL1   C1716422   7.053   0.745  14.074  0.0068 -0.3988  0.4603
  138CHL1   H1716423   7.059   0.856  14.062 -2.9977 -0.4216 -2.7710
  138CHL1   C1316424   6.987   0.690  13.950  0.1164 -0.3860  0.8558
  138CHL1   C1816425   6.939   0.550  13.980  0.2189  0.7227  0.0044
  138CHL1  H18A16426   6.857   0.554  14.056  0.3689  0.2741  0.1962
  138CHL1  H18B16427   6.910   0.494  13.889 -0.6394  0.0802  0.6524
  138CHL1  H18C16428   7.012   0.481  14.026  1.1478  0.1677 -2.1909
  138CHL1   C1216429   6.880   0.777  13.887 -0.3195 -0.5592  0.0841
  138CHL1  H12A16430   6.791   0.781  13.953 -2.4054  1.7739 -2.6154
  138CHL1  H12B16431   6.916   0.882  13.892 -1.5403 -0.0653 -1.0274
  138CHL1   C1116432   6.841   0.740  13.742 -0.8875 -0.2518 -0.5624
  138CHL1  H11A16433   6.778   0.650  13.759 -1.1940 -0.1460 -1.1334
  138CHL1  H11B16434   6.786   0.818  13.684 -1.2891 -1.7093 -2.2143
  138CHL1    C916435   6.960   0.695  13.653  0.7064  0.2833 -0.3709
  138CHL1    H916436   7.011   0.791  13.632 -0.4492  0.8661 -0.5877
  138CHL1   C1016437   6.922   0.640  13.511 -0.2862  0.6481  0.8894
  138CHL1   C1916438   6.828   0.511  13.542  0.8374  0.0026  0.5143
  138CHL1  H19A16439   6.882   0.432  13.598 -0.8850 -1.0757  0.7394
  138CHL1  H19B16440   6.739   0.543  13.601  1.9299  0.4925  1.9534
  138CHL1  H19C16441   6.785   0.481  13.444 -0.4835  1.7491  0.5197
  138CHL1    C116442   6.834   0.745  13.433 -0.2809  0.0708 -0.2542
  138CHL1   H1A16443   6.737   0.765  13.485  0.9190  1.8903  1.4307
  138CHL1   H1B16444   6.888   0.842  13.431  0.0070 -0.0161  1.5049
  138CHL1    C216445   6.810   0.710  13.281 -0.2443 -0.0966  0.6030
  138CHL1   H2A16446   6.761   0.797  13.231  0.3348 -0.4269 -0.5688
  138CHL1   H2B16447   6.736   0.630  13.261 -1.0070  0.4211  1.2900
  138CHL1   C2016448   6.988   0.735  14.209 -0.3234 -0.3353 -0.1526
  138CHL1   H2016449   6.972   0.627  14.232  1.0396 -0.1380  1.9842
  138CHL1   C2116450   6.854   0.802  14.217 -0.1422  0.2681  0.4401
  138CHL1  H21A16451   6.849   0.902  14.169 -2.2078  0.7572  1.5125
  138CHL1  H21B16452   6.822   0.815  14.322 -0.6179 -0.6821  0.4205
  138CHL1  H21C16453   6.774   0.734  14.179  0.8100 -1.1487  0.9192
  138CHL1   C2216454   7.073   0.782  14.329 -0.1441 -0.3656  0.6858
  138CHL1  H22A16455   7.172   0.732  14.325  0.3487  0.5890 -2.5143
  138CHL1  H22B16456   7.098   0.890  14.322  0.1395 -0.4511  0.3376
  138CHL1   C2316457   7.018   0.760  14.469 -0.2806  0.8528  1.2491
  138CHL1  H23A16458   6.943   0.840  14.486 -0.2211  1.2930 -0.3890
  138CHL1  H23B16459   6.977   0.656  14.472  0.4452  0.5487  0.7525
  138CHL1   C2416460   7.129   0.769  14.571  0.2588 -0.6276 -0.0533
  138CHL1  H24A16461   7.201   0.686  14.553 -1.0080 -1.6310 -0.5772
  138CHL1  H24B16462   7.196   0.854  14.545  1.0570 -1.7615 -1.9278
  138CHL1   C2516463   7.078   0.762  14.715  0.3939  0.3399  0.1313
  138CHL1   H2516464   6.997   0.838  14.719 -0.4744 -0.4487 -1.6248
  138CHL1   C2616465   7.031   0.620  14.739  0.4560 -0.0525 -0.4972
  138CHL1  H26A16466   6.952   0.593  14.665  0.3578  0.9005 -0.7524
  138CHL1  H26B16467   7.117   0.553  14.715  0.7016 -1.0100  2.6246
  138CHL1  H26C16468   6.990   0.592  14.838  0.4078 -0.6498 -0.6760
  138CHL1   C2716469   7.188   0.797  14.811 -0.1511 -0.1968 -0.1294
  138CHL1  H27A16470   7.250   0.876  14.765 -2.4079  1.2826 -0.8320
  138CHL1  H27B16471   7.147   0.837  14.906 -2.1661 -0.1690 -0.9570
  138CHL1  H27C16472   7.256   0.712  14.833  0.5288  0.0149 -1.3534
  139CHL1    C316473   0.274   6.541  13.282  0.1635  0.5039  0.3369
  139CHL1    H316474   0.166   6.552  13.310 -0.0640  0.2670 -0.4230
  139CHL1    O316475   0.283   6.551  13.139 -0.2320 -0.8198  0.0712
  139CHL1   H3'16476   0.320   6.638  13.120  0.3213 -1.2486 -0.8802
  139CHL1    C416477   0.365   6.646  13.347  0.7828 -0.2280  0.0677
  139CHL1   H4A16478   0.459   6.667  13.291  0.8942  1.0247  0.7019
  139CHL1   H4B16479   0.310   6.741  13.335 -0.1605 -0.7040  0.5421
  139CHL1    C516480   0.389   6.625  13.490  0.1285  0.2795 -0.3470
  139CHL1    C616481   0.367   6.722  13.580  0.2030  0.2390 -0.0041
  139CHL1    H616482   0.325   6.815  13.538  1.1029  0.6369 -0.0493
  139CHL1    C716483   0.395   6.717  13.733  0.0810  0.0846 -0.2148
  139CHL1   H7A16484   0.453   6.800  13.777  0.7561 -0.9252  0.8574
  139CHL1   H7B16485   0.303   6.710  13.795 -0.3216  0.2223 -0.7815
  139CHL1    C816486   0.481   6.600  13.763 -0.8759 -0.1182  0.3006
  139CHL1    H816487   0.585   6.633  13.742 -1.1391  1.5445  1.4520
  139CHL1   C1416488   0.478   6.575  13.916  0.0607  0.0055  0.0780
  139CHL1   H1416489   0.377   6.531  13.936  0.2729  0.0988  1.4172
  139CHL1   C1516490   0.477   6.686  14.019  0.6144 -0.5137 -0.6085
  139CHL1  H15A16491   0.550   6.766  13.995 -0.6917  0.1046 -2.8433
  139CHL1  H15B16492   0.381   6.742  14.022  1.1234  0.3533  1.4946
  139CHL1   C1616493   0.510   6.613  14.151 -0.3288  0.4387 -0.8086
  139CHL1  H16A16494   0.604   6.655  14.191 -0.8500  2.5080 -1.6571
  139CHL1  H16B16495   0.426   6.613  14.224  0.3476  0.0891 -0.0145
  139CHL1   C1716496   0.540   6.465  14.120  0.2793 -0.2617  0.3002
  139CHL1   H1716497   0.444   6.411  14.133 -0.1651  0.4662  0.1194
  139CHL1   C1316498   0.572   6.470  13.968  0.4834 -0.0518 -0.1328
  139CHL1   C1816499   0.720   6.508  13.950 -0.7166  1.2006  0.6294
  139CHL1  H18A16500   0.754   6.537  13.848 -3.6917  3.0479  0.0218
  139CHL1  H18B16501   0.749   6.586  14.024 -2.4537  0.9420  1.6310
  139CHL1  H18C16502   0.785   6.426  13.986 -0.6324  1.9063  2.1687
  139CHL1   C1216503   0.524   6.330  13.893 -0.7894 -0.1217 -0.0309
  139CHL1  H12A16504   0.601   6.254  13.917 -1.7368 -0.6566  1.4608
  139CHL1  H12B16505   0.424   6.297  13.927 -0.0065 -1.9420  0.6128
  139CHL1   C1116506   0.523   6.349  13.741 -0.6319 -0.8656 -0.3657
  139CHL1  H11A16507   0.628   6.377  13.719 -1.5930  2.3867 -1.2579
  139CHL1  H11B16508   0.488   6.256  13.691  0.1745 -1.0229 -0.6509
  139CHL1    C916509   0.450   6.473  13.691  0.1523 -0.5423 -0.2887
  139CHL1    H916510   0.345   6.451  13.718 -0.4452 -3.2898 -4.0056
  139CHL1   C1016511   0.445   6.489  13.533  0.2880  0.3880  0.1276
  139CHL1   C1916512   0.583   6.462  13.468 -0.1145  0.0593  0.1685
  139CHL1  H19A16513   0.665   6.529  13.502  0.9944 -0.8774 -0.5599
  139CHL1  H19B16514   0.618   6.357  13.467 -1.6487 -0.4747  0.3638
  139CHL1  H19C16515   0.580   6.480  13.358  0.0948 -1.5795 -0.1282
  139CHL1    C116516   0.345   6.381  13.473 -0.1060 -0.5001  0.3763
  139CHL1   H1A16517   0.400   6.285  13.474 -0.4067 -0.6826  1.6366
  139CHL1   H1B16518   0.249   6.378  13.530 -0.4983  1.6095 -0.0956
  139CHL1    C216519   0.314   6.394  13.324  0.1374  0.3226  0.6997
  139CHL1   H2A16520   0.240   6.321  13.288 -1.0981  1.7166  0.3187
  139CHL1   H2B16521   0.406   6.371  13.265 -2.1235 -1.1505 -2.5331
  139CHL1   C2016522   0.635   6.403  14.218 -0.6012 -0.4177 -0.1836
  139CHL1   H2016523   0.742   6.426  14.198 -0.5287 -1.5735 -1.2371
  139CHL1   C2116524   0.623   6.245  14.196  0.2391 -0.7321  0.2744
  139CHL1  H21A16525   0.679   6.192  14.275  0.1081  0.4731  1.2086
  139CHL1  H21B16526   0.658   6.205  14.098  0.4461 -0.3239  0.1803
  139CHL1  H21C16527   0.517   6.211  14.194 -0.5764  1.5668  0.6529
  139CHL1   C2216528   0.603   6.436  14.364 -0.5654 -0.5986  0.2569
  139CHL1  H22A16529   0.588   6.546  14.375 -1.6763 -0.6837 -0.1897
  139CHL1  H22B16530   0.510   6.380  14.390 -0.1425 -1.8665 -0.8752
  139CHL1   C2316531   0.722   6.384  14.453  0.3854  0.7307 -0.5252
  139CHL1  H23A16532   0.747   6.276  14.442 -1.7176 -0.2735  3.0445
  139CHL1  H23B16533   0.815   6.433  14.417  0.8302 -0.8011 -1.5716
  139CHL1   C2416534   0.715   6.427  14.596 -0.4173  0.6428 -0.1492
  139CHL1  H24A16535   0.721   6.538  14.595 -0.6343  0.6562 -0.0440
  139CHL1  H24B16536   0.613   6.420  14.639 -1.0284  1.6742 -1.3616
  139CHL1   C2516537   0.823   6.374  14.696 -1.2208 -0.7148 -0.0507
  139CHL1   H2516538   0.794   6.401  14.799  1.8562 -0.9944  0.9982
  139CHL1   C2616539   0.820   6.223  14.708  0.0835 -0.2762  0.8028
  139CHL1  H26A16540   0.857   6.175  14.615  2.8603  2.2238  0.4805
  139CHL1  H26B16541   0.870   6.188  14.801  1.7079 -0.0195  0.0529
  139CHL1  H26C16542   0.714   6.189  14.716 -0.3384 -0.5191 -3.5126
  139CHL1   C2716543   0.964   6.432  14.684  0.2254  0.6358 -0.4947
  139CHL1  H27A16544   0.958   6.540  14.709  2.0182  0.4493  0.9362
  139CHL1  H27B16545   1.032   6.380  14.755  1.0107  1.3436 -0.6979
  139CHL1  H27C16546   1.008   6.420  14.582  3.0699 -1.2926  0.8138
  140CHL1    C316547   7.171   0.144  13.219 -0.2125  0.5782  0.1882
  140CHL1    H316548   7.207   0.248  13.236  1.1796  0.5302 -2.0201
  140CHL1    O316549   7.159   0.123  13.081 -0.4096 -0.4739 -0.3055
  140CHL1   H3'16550   7.096   0.192  13.060 -1.8163 -1.7697 -0.4985
  140CHL1    C416551   7.264   0.038  13.279 -0.0622 -0.0149  0.0214
  140CHL1   H4A16552   7.215  -0.060  13.262 -0.0503  0.0552 -0.4421
  140CHL1   H4B16553   7.363   0.037  13.228 -1.1757  0.4883 -2.2709
  140CHL1    C516554   7.279   0.064  13.426  0.3644  0.5035 -0.6660
  140CHL1    C616555   7.392   0.094  13.485 -0.1584 -0.4446 -0.4856
  140CHL1    H616556   7.486   0.093  13.428 -0.6799 -3.0180 -1.3885
  140CHL1    C716557   7.407   0.140  13.630 -0.3250 -0.5890 -0.5857
  140CHL1   H7A16558   7.504   0.098  13.664  0.5633  1.9770  0.2413
  140CHL1   H7B16559   7.419   0.249  13.641  1.2368 -0.9123  1.5425
  140CHL1    C816560   7.291   0.091  13.725 -0.6711 -0.4343 -0.5256
  140CHL1    H816561   7.297  -0.018  13.745 -0.0617 -0.0291  1.7642
  140CHL1   C1416562   7.291   0.164  13.862  0.3078  0.4626 -0.1220
  140CHL1   H1416563   7.267   0.271  13.846 -1.3805  0.1977  0.4755
  140CHL1   C1516564   7.415   0.156  13.946  0.8494 -0.2463 -0.1058
  140CHL1  H15A16565   7.456   0.053  13.960  2.8240  0.6888  1.5863
  140CHL1  H15B16566   7.492   0.222  13.900 -0.7331  0.9262 -1.1964
  140CHL1   C1616567   7.368   0.207  14.086  0.1503 -0.3919  0.7298
  140CHL1  H16A16568   7.397   0.138  14.168  2.9297 -0.5673 -0.2943
  140CHL1  H16B16569   7.407   0.310  14.100 -0.1078 -0.2195  0.2017
  140CHL1   C1716570   7.213   0.218  14.079  0.7342  0.8826 -0.0455
  140CHL1   H1716571   7.178   0.321  14.054 -0.9968  0.4042  0.2867
  140CHL1   C1316572   7.168   0.131  13.956 -0.1503  0.3963  0.5992
  140CHL1   C1816573   7.152  -0.017  13.980  0.4541 -0.2089 -0.3917
  140CHL1  H18A16574   7.239  -0.059  14.035 -1.2925 -2.5064  0.8135
  140CHL1  H18B16575   7.068  -0.044  14.048  0.4560 -0.8468 -0.6357
  140CHL1  H18C16576   7.119  -0.071  13.888  0.9247  0.8571 -1.2102
  140CHL1   C1216577   7.044   0.191  13.882  0.1543  0.2254 -0.1922
  140CHL1  H12A16578   6.950   0.162  13.934  0.4869  0.8388  0.7923
  140CHL1  H12B16579   7.044   0.302  13.883  0.7239  0.2288  0.5279
  140CHL1   C1116580   7.028   0.136  13.736  0.2320  0.7594 -0.2887
  140CHL1  H11A16581   6.988   0.032  13.740 -1.5648  1.3764 -1.1943
  140CHL1  H11B16582   6.954   0.197  13.680 -1.0716 -0.1303  0.4081
  140CHL1    C916583   7.161   0.133  13.648  0.2003 -0.1810  0.0104
  140CHL1    H916584   7.173   0.239  13.618 -0.1210 -0.6211 -1.8233
  140CHL1   C1016585   7.145   0.068  13.508  0.3428 -0.2485 -0.2762
  140CHL1   C1916586   7.099  -0.078  13.524  0.1868  0.0964 -0.1289
  140CHL1  H19A16587   7.159  -0.117  13.609 -1.7010 -0.3618  1.0398
  140CHL1  H19B16588   6.997  -0.087  13.567  1.2408 -0.4180  2.4957
  140CHL1  H19C16589   7.102  -0.139  13.432  4.8545 -3.1488  1.8250
  140CHL1    C116590   7.043   0.147  13.433 -0.0153  0.1078 -0.2550
  140CHL1   H1A16591   6.952   0.121  13.492 -0.3358  0.9468 -0.3716
  140CHL1   H1B16592   7.073   0.253  13.441 -0.2004  0.0906  0.8498
  140CHL1    C216593   7.034   0.123  13.287  0.3149 -0.0682  0.8177
  140CHL1   H2A16594   6.958   0.189  13.241  0.6730 -0.3250 -0.1511
  140CHL1   H2B16595   6.987   0.026  13.262 -0.2093  0.9735 -2.6902
  140CHL1   C2016596   7.137   0.199  14.221 -0.9295  0.1505 -0.4772
  140CHL1   H2016597   7.162   0.094  14.245 -0.5381 -0.0457 -1.6450
  140CHL1   C2116598   6.985   0.214  14.214  0.4481  0.0930 -0.7349
  140CHL1  H21A16599   6.956   0.212  14.321  2.3184  0.9784 -0.1716
  140CHL1  H21B16600   6.946   0.123  14.163 -0.9096  0.7997 -0.9852
  140CHL1  H21C16601   6.964   0.310  14.163  0.5280 -0.3026 -1.5278
  140CHL1   C2216602   7.203   0.288  14.328 -0.6703 -0.6722  0.8732
  140CHL1  H22A16603   7.314   0.281  14.327 -0.2483  2.8025  3.6193
  140CHL1  H22B16604   7.182   0.393  14.297  1.7783 -0.1845  0.6418
  140CHL1   C2316605   7.162   0.268  14.477 -0.2308 -0.0984  0.2225
  140CHL1  H23A16606   7.057   0.304  14.489 -0.4594  0.8303 -3.3616
  140CHL1  H23B16607   7.157   0.158  14.484  2.9501 -0.2695  1.1318
  140CHL1   C2416608   7.260   0.324  14.574 -0.0229  0.0736 -0.3175
  140CHL1  H24A16609   7.361   0.285  14.546  0.0994  0.8704 -1.0451
  140CHL1  H24B16610   7.274   0.433  14.555  1.2890  0.0654  0.4622
  140CHL1   C2516611   7.205   0.294  14.720  0.1291 -0.6713 -0.3124
  140CHL1   H2516612   7.103   0.337  14.721 -0.3826 -1.6946  2.6549
  140CHL1   C2616613   7.290   0.358  14.834  0.0639 -0.3437 -0.3124
  140CHL1  H26A16614   7.391   0.311  14.824 -0.7983 -2.4512  0.3313
  140CHL1  H26B16615   7.296   0.468  14.822 -1.4788 -0.3115 -1.0376
  140CHL1  H26C16616   7.251   0.332  14.935  1.4723 -0.2102  0.2892
  140CHL1   C2716617   7.184   0.143  14.754 -0.6641  0.2461 -0.3634
  140CHL1  H27A16618   7.190   0.123  14.863  4.1596  1.3350 -0.2243
  140CHL1  H27B16619   7.093   0.107  14.702 -0.6075  0.1234 -0.3773
  140CHL1  H27C16620   7.270   0.085  14.714  1.1103  1.7335  1.1049
  141DOPC     N16621   4.005   3.189  17.068  0.2824  0.1643 -0.1558
  141DOPC   C1216622   3.960   3.219  16.919 -0.9214  0.7455  0.1689
  141DOPC  H12A16623   4.053   3.262  16.884  0.2732 -0.0387  2.1862
  141DOPC  H12B16624   3.882   3.294  16.920 -1.0079  0.6909 -1.0343
  141DOPC   C1316625   4.065   3.323  17.122 -0.9305  0.4281 -0.2736
  141DOPC  H13A16626   4.101   3.321  17.224  0.4987  0.3527 -0.7528
  141DOPC  H13B16627   4.154   3.345  17.064  1.4685 -3.2346  1.6425
  141DOPC  H13C16628   3.987   3.398  17.122 -1.4397 -0.0909 -0.1601
  141DOPC   C1416629   4.108   3.081  17.092  0.1903 -0.3100  0.8395
  141DOPC  H14A16630   4.151   3.080  17.191  0.8857  0.5703  0.5504
  141DOPC  H14B16631   4.064   2.984  17.074 -0.7013  0.4905 -1.6562
  141DOPC  H14C16632   4.191   3.086  17.023  0.7121 -3.4334  1.0880
  141DOPC   C1516633   3.889   3.159  17.147  0.6372  0.2214  0.1508
  141DOPC  H15A16634   3.912   3.149  17.252  0.8171 -1.9792 -0.0633
  141DOPC  H15B16635   3.824   3.080  17.115 -2.5293  2.1720  1.3513
  141DOPC  H15C16636   3.823   3.242  17.124  2.1504  1.3040 -0.5014
  141DOPC   C1116637   3.904   3.102  16.833  0.3332 -0.6409  0.2150
  141DOPC  H11A16638   3.869   3.144  16.736 -2.7814 -1.4567  0.8707
  141DOPC  H11B16639   3.984   3.027  16.814 -0.4815 -1.0595 -1.8747
  141DOPC     P16640   3.643   3.085  16.864 -0.2432 -0.0056 -0.0957
  141DOPC   O1316641   3.629   3.221  16.918  0.2519 -0.3489 -0.3006
  141DOPC   O1416642   3.549   2.985  16.910  0.3078  0.2628 -0.1477
  141DOPC   O1216643   3.789   3.040  16.894 -0.2239 -0.4122  0.0090
  141DOPC   O1116644   3.644   3.112  16.714  0.7995  0.7158 -0.1693
  141DOPC    C116645   3.603   3.031  16.612 -0.0560 -0.9493 -0.5760
  141DOPC    HA16646   3.561   3.091  16.529  1.4273 -1.0593 -1.4430
  141DOPC    HB16647   3.526   2.957  16.642  0.3655 -1.6245 -1.1254
  141DOPC    C216648   3.717   2.949  16.554 -0.2588  0.1920  0.3095
  141DOPC    HS16649   3.762   2.886  16.633  0.6698  0.3429 -0.0857
  141DOPC   O2116650   3.803   3.042  16.487  0.1624 -0.4210  0.1831
  141DOPC   C2116651   3.924   3.011  16.453 -0.1024 -0.3030  0.2563
  141DOPC   O2216652   3.991   2.919  16.496 -0.4112 -0.2990 -0.3832
  141DOPC   C2216653   3.968   3.118  16.351 -0.2783  1.2224 -0.0890
  141DOPC   H2R16654   4.070   3.086  16.321 -0.2672  0.3798  0.8085
  141DOPC   H2S16655   3.981   3.204  16.420  0.5285 -0.7814  2.4130
  141DOPC    C316656   3.659   2.842  16.449  0.3309 -0.3878 -0.1891
  141DOPC    HX16657   3.741   2.785  16.399  1.4190  1.2679 -0.3940
  141DOPC    HY16658   3.593   2.894  16.376 -0.3760  1.6314  1.7861
  141DOPC   O3116659   3.573   2.755  16.519  0.0815 -0.1982 -0.1093
  141DOPC   C3116660   3.624   2.644  16.586  0.6785  0.5164  0.4567
  141DOPC   O3216661   3.735   2.598  16.570  0.0221 -0.0449  0.0981
  141DOPC   C3216662   3.520   2.577  16.675  0.2046 -0.8812 -0.1853
  141DOPC   H2X16663   3.577   2.506  16.738  0.6010 -2.4173 -2.1885
  141DOPC   H2Y16664   3.479   2.656  16.742  0.2979 -0.2268 -0.8887
  141DOPC   C2316665   3.881   3.122  16.224 -0.3452 -0.1203  0.1544
  141DOPC   H3R16666   3.786   3.168  16.257  0.7051  1.5357  0.9570
  141DOPC   H3S16667   3.869   3.015  16.195 -1.1098  0.4715 -1.8873
  141DOPC   C2416668   3.953   3.203  16.110 -0.3471 -0.1832  0.0828
  141DOPC   H4R16669   4.055   3.171  16.079 -0.2606  1.2172 -1.2294
  141DOPC   H4S16670   3.968   3.307  16.148  2.7876  0.4581 -2.4946
  141DOPC   C2516671   3.875   3.238  15.984  0.5850 -0.3023  0.6436
  141DOPC   H5R16672   3.935   3.313  15.928 -2.1578  1.7062  0.1742
  141DOPC   H5S16673   3.783   3.296  16.006  0.1289 -0.3759 -0.9429
  141DOPC   C2616674   3.850   3.123  15.878 -0.0046  0.2373 -0.1760
  141DOPC   H6R16675   3.774   3.057  15.925  0.4899 -0.9576 -1.0120
  141DOPC   H6S16676   3.942   3.066  15.854  0.2568  0.3476  0.5560
  141DOPC   C2716677   3.785   3.162  15.745  0.0388  0.1590 -0.3240
  141DOPC   H7R16678   3.842   3.239  15.688  0.6252  0.4903  0.6784
  141DOPC   H7S16679   3.693   3.217  15.774  1.6090  3.2559 -0.7682
  141DOPC   C2816680   3.743   3.045  15.657 -0.4828 -0.0273  0.2131
  141DOPC   H8R16681   3.674   3.096  15.586  1.2312 -0.2256 -1.6863
  141DOPC   H8S16682   3.682   2.974  15.718 -2.1594  0.2689 -1.0310
  141DOPC   C2916683   3.842   2.951  15.589  0.0453  0.0257  0.4281
  141DOPC   H9R16684   3.905   2.891  15.655 -1.0452 -0.6508  0.8885
  141DOPC  C21016685   3.851   2.908  15.463  0.0193 -0.6867  0.4456
  141DOPC  H10R16686   3.935   2.843  15.434  1.3892  0.3158  2.0174
  141DOPC  C21116687   3.761   2.947  15.351  0.4839  0.0890  0.6982
  141DOPC  H11R16688   3.809   2.895  15.266 -0.0517 -1.3606  1.2521
  141DOPC  H11S16689   3.753   3.056  15.330 -1.6264  0.2140  1.8793
  141DOPC  C21216690   3.617   2.893  15.362 -0.5398  0.9157 -0.1043
  141DOPC  H12R16691   3.568   2.942  15.449 -2.8534 -0.7577 -0.3687
  141DOPC  H12S16692   3.624   2.789  15.401  1.2164  0.6254 -1.0906
  141DOPC  C21316693   3.532   2.903  15.233  0.4520 -0.0228  0.4862
  141DOPC  H13R16694   3.576   2.837  15.155  0.8419 -0.2810  0.9198
  141DOPC  H13S16695   3.546   3.004  15.189  1.2385 -0.3159  0.0358
  141DOPC  C21416696   3.381   2.881  15.242  0.0044  0.7971 -0.6132
  141DOPC  H14R16697   3.341   2.950  15.319 -0.9182 -0.7892  0.3962
  141DOPC  H14S16698   3.349   2.786  15.290 -0.2232  0.0634 -2.1599
  141DOPC  C21516699   3.291   2.897  15.121  0.3627 -0.4478 -0.0024
  141DOPC  H15R16700   3.343   2.971  15.058  0.1202 -1.3963 -1.3639
  141DOPC  H15S16701   3.188   2.919  15.156 -0.2156 -1.4311 -0.9937
  141DOPC  C21616702   3.288   2.769  15.039 -0.3879  0.4158  0.0707
  141DOPC  H16R16703   3.254   2.693  15.113 -0.5804  2.2337  1.9634
  141DOPC  H16S16704   3.393   2.741  15.015  1.3214  4.2533  2.1719
  141DOPC  C21716705   3.213   2.779  14.906  0.0616 -0.4120  0.1165
  141DOPC  H17R16706   3.257   2.867  14.853  1.0687 -1.3851 -0.7181
  141DOPC  H17S16707   3.106   2.805  14.918 -0.9510 -1.4195 -4.7330
  141DOPC  C21816708   3.216   2.650  14.821 -0.1564 -0.2728  0.0079
  141DOPC  H18R16709   3.163   2.652  14.723  0.7613 -0.1653 -0.5017
  141DOPC  H18S16710   3.176   2.563  14.877 -1.1042  0.1185 -0.0460
  141DOPC  H18T16711   3.323   2.634  14.796 -0.0005  0.3627  0.2404
  141DOPC   C3316712   3.408   2.515  16.591 -0.3991 -0.2876  0.3647
  141DOPC   H3X16713   3.373   2.591  16.517 -0.1925  0.7413  1.2842
  141DOPC   H3Y16714   3.325   2.499  16.663 -2.1230 -0.6900 -1.5954
  141DOPC   C3416715   3.439   2.395  16.513  0.2895  0.6140  0.1988
  141DOPC   H4X16716   3.501   2.329  16.579  1.9310  1.6114 -0.2950
  141DOPC   H4Y16717   3.490   2.407  16.415 -1.1570  0.1667 -0.6296
  141DOPC   C3516718   3.311   2.303  16.488 -0.9401 -0.9068  0.4250
  141DOPC   H5X16719   3.242   2.364  16.426 -0.3674  0.8476  1.4235
  141DOPC   H5Y16720   3.257   2.286  16.584 -1.2951 -1.5699  0.1134
  141DOPC   C3616721   3.357   2.173  16.419  0.2174  0.0671 -0.1183
  141DOPC   H6X16722   3.410   2.217  16.331  1.2034  0.3388  0.5902
  141DOPC   H6Y16723   3.428   2.112  16.478 -1.7646 -1.3635  0.8974
  141DOPC   C3716724   3.250   2.085  16.358  0.3815  0.2002 -0.1623
  141DOPC   H7X16725   3.236   1.992  16.418  0.6487  1.0758  1.2942
  141DOPC   H7Y16726   3.151   2.135  16.355 -0.0607 -0.6227  0.2512
  141DOPC   C3816727   3.308   2.043  16.222 -0.1626  0.5663  0.3680
  141DOPC   H8X16728   3.407   1.993  16.223 -0.7754 -0.7032 -0.4326
  141DOPC   H8Y16729   3.314   2.145  16.177 -0.0798  1.0126  1.3599
  141DOPC   C3916730   3.209   1.957  16.149  0.5075 -0.8638  0.7188
  141DOPC   H9X16731   3.174   1.873  16.211 -0.6496 -1.5944 -0.8690
  141DOPC  C31016732   3.153   1.978  16.030 -0.5999 -0.5102  0.3193
  141DOPC  H10X16733   3.094   1.893  15.993  0.0944 -1.5953  1.5712
  141DOPC  C31116734   3.178   2.092  15.936  0.2386  0.2180 -0.4101
  141DOPC  H11X16735   3.166   2.181  16.001 -0.0603  0.7776 -1.2215
  141DOPC  H11Y16736   3.099   2.092  15.858 -0.2486  1.6081  0.0617
  141DOPC  C31216737   3.321   2.104  15.886 -0.5998 -0.0156  0.0693
  141DOPC  H12X16738   3.360   2.013  15.835 -2.0882 -1.3269  1.1871
  141DOPC  H12Y16739   3.389   2.125  15.971  0.9641 -2.5471 -0.4522
  141DOPC  C31316740   3.337   2.198  15.769 -0.1313  0.5156  0.3387
  141DOPC  H13X16741   3.272   2.147  15.694  2.3054 -1.4746 -0.5783
  141DOPC  H13Y16742   3.289   2.297  15.784  0.1073  0.7315 -0.2799
  141DOPC  C31416743   3.475   2.222  15.718 -0.4991 -0.2076 -0.2993
  141DOPC  H14X16744   3.550   2.244  15.797 -1.2167  0.3130  0.2462
  141DOPC  H14Y16745   3.519   2.133  15.666  1.1291  0.2112  0.2840
  141DOPC  C31516746   3.468   2.335  15.610  0.5468  0.6065  0.0144
  141DOPC  H15X16747   3.453   2.434  15.659 -0.9919  1.0516 -1.2552
  141DOPC  H15Y16748   3.373   2.312  15.557  0.7753 -0.5579  0.0997
  141DOPC  C31616749   3.594   2.352  15.513 -0.6104  0.6718  0.3843
  141DOPC  H16X16750   3.641   2.255  15.486  0.8934  1.7460 -1.0447
  141DOPC  H16Y16751   3.557   2.414  15.428  1.8371 -2.5242 -3.3906
  141DOPC  C31716752   3.698   2.431  15.582 -0.2870  0.0627 -0.4541
  141DOPC  H17X16753   3.648   2.518  15.630 -0.9873 -0.2082 -0.6707
  141DOPC  H17Y16754   3.733   2.376  15.671 -2.4263  0.9222  1.0144
  141DOPC  C31816755   3.815   2.485  15.491 -0.1892 -0.3732  0.7601
  141DOPC  H18X16756   3.765   2.563  15.428 -0.8102 -0.3299  1.3034
  141DOPC  H18Y16757   3.898   2.531  15.550  0.2185  0.6327 -0.5394
  141DOPC  H18Z16758   3.858   2.412  15.419  0.6282  0.9231 -0.1374
  142DOPC     N16759   4.766   3.624  17.184  0.3467 -0.2189 -0.0887
  142DOPC   C1216760   4.696   3.623  17.048 -0.0969 -0.1166  0.3563
  142DOPC  H12A16761   4.592   3.650  17.043  0.5423  2.4188 -0.8557
  142DOPC  H12B16762   4.683   3.519  17.021 -2.4981  0.2493 -0.1211
  142DOPC   C1316763   4.815   3.758  17.237 -0.6730  0.3204  0.5185
  142DOPC  H13A16764   4.730   3.823  17.249 -1.2918 -0.2615 -0.5586
  142DOPC  H13B16765   4.866   3.740  17.331 -1.5525 -0.1562  0.9112
  142DOPC  H13C16766   4.885   3.804  17.169 -1.6538 -0.4026 -1.0328
  142DOPC   C1416767   4.879   3.531  17.189  0.2443 -0.0113  0.1629
  142DOPC  H14A16768   4.842   3.430  17.192 -1.7526  0.7194  2.2316
  142DOPC  H14B16769   4.938   3.547  17.099 -1.4043  1.8808 -0.6604
  142DOPC  H14C16770   4.948   3.541  17.271 -0.9619  1.6168  1.0268
  142DOPC   C1516771   4.666   3.574  17.282 -0.0419  0.6173  0.8616
  142DOPC  H15A16772   4.642   3.470  17.265  0.7544  0.5871 -0.2705
  142DOPC  H15B16773   4.580   3.639  17.280  0.3376  1.1325  1.0194
  142DOPC  H15C16774   4.701   3.587  17.383  0.8989  2.5223  0.3378
  142DOPC   C1116775   4.773   3.683  16.924 -0.3764  0.3523  0.3098
  142DOPC  H11A16776   4.702   3.687  16.838  1.7439 -0.2710 -1.5675
  142DOPC  H11B16777   4.798   3.788  16.951 -0.0331  0.4980 -0.5571
  142DOPC     P16778   4.882   3.474  16.823  0.2068 -0.0595 -0.1711
  142DOPC   O1316779   4.775   3.393  16.888 -0.2095 -0.5239  0.5982
  142DOPC   O1416780   5.015   3.404  16.827  0.2094  0.1355 -0.3465
  142DOPC   O1216781   4.893   3.610  16.896  0.6389  0.1236  0.6502
  142DOPC   O1116782   4.851   3.510  16.670 -0.0066  0.7774  0.2260
  142DOPC    C116783   4.712   3.506  16.636  0.0144  0.4011  0.5232
  142DOPC    HA16784   4.695   3.591  16.567 -0.3241  0.7598  1.0368
  142DOPC    HB16785   4.639   3.534  16.715 -0.0875  1.4543  0.0749
  142DOPC    C216786   4.661   3.371  16.580  0.4637  0.1497  0.5734
  142DOPC    HS16787   4.682   3.302  16.665 -1.1795 -1.7835 -0.5207
  142DOPC   O2116788   4.730   3.341  16.464 -0.0715 -0.1834 -0.1737
  142DOPC   C2116789   4.763   3.213  16.449 -0.0080 -0.3345  1.0404
  142DOPC   O2216790   4.742   3.122  16.532 -0.3552 -0.0936  0.1002
  142DOPC   C2216791   4.828   3.191  16.304 -0.4135  0.1877 -0.5572
  142DOPC   H2R16792   4.765   3.120  16.247 -1.4881  0.5262  0.1744
  142DOPC   H2S16793   4.925   3.139  16.321 -1.6575 -3.1488 -2.7072
  142DOPC    C316794   4.513   3.354  16.556  0.6225  0.5940 -0.2856
  142DOPC    HX16795   4.456   3.382  16.647  2.3932  1.0629  0.7186
  142DOPC    HY16796   4.490   3.249  16.528 -1.5239  1.0174 -0.2901
  142DOPC   O3116797   4.478   3.444  16.453  0.0788 -0.0309 -0.0585
  142DOPC   C3116798   4.373   3.420  16.379 -0.2073  0.1969  0.4833
  142DOPC   O3216799   4.296   3.325  16.395 -0.1301  0.2776  0.0912
  142DOPC   C3216800   4.363   3.521  16.262 -0.1443  0.1245 -0.2745
  142DOPC   H2X16801   4.318   3.616  16.297 -0.4496  0.1299 -0.6769
  142DOPC   H2Y16802   4.469   3.543  16.236 -0.1244 -1.1825 -1.3949
  142DOPC   C2316803   4.851   3.321  16.218  0.2385  0.9381 -0.0725
  142DOPC   H3R16804   4.925   3.378  16.278  1.5821  1.0629 -1.7662
  142DOPC   H3S16805   4.755   3.372  16.202 -0.3048 -0.2734 -0.8439
  142DOPC   C2416806   4.913   3.289  16.077  0.2354 -0.4702 -0.6374
  142DOPC   H4R16807   5.012   3.239  16.085  1.6529  2.0746 -1.4274
  142DOPC   H4S16808   4.929   3.384  16.023 -1.4544 -0.5377 -1.3403
  142DOPC   C2516809   4.827   3.210  15.979  0.5258  0.4486 -0.6216
  142DOPC   H5R16810   4.722   3.247  15.986  1.2523  2.6309 -0.3720
  142DOPC   H5S16811   4.835   3.103  16.009 -1.9552 -0.2515 -2.1619
  142DOPC   C2616812   4.864   3.219  15.830 -0.8870  0.4690 -0.3446
  142DOPC   H6R16813   4.964   3.171  15.834 -1.4667 -0.6924  0.8368
  142DOPC   H6S16814   4.874   3.329  15.818 -1.4773  0.5812  0.1554
  142DOPC   C2716815   4.763   3.153  15.737 -0.8286 -1.0110  1.0926
  142DOPC   H7R16816   4.664   3.199  15.761 -1.0090 -1.0039  0.3404
  142DOPC   H7S16817   4.747   3.046  15.764 -1.0966 -1.9761 -2.4392
  142DOPC   C2816818   4.794   3.175  15.590  0.4325  0.6193 -0.2188
  142DOPC   H8R16819   4.886   3.116  15.569 -0.7379 -1.3424 -0.0901
  142DOPC   H8S16820   4.802   3.283  15.565  0.6171  0.6354 -0.0908
  142DOPC   C2916821   4.680   3.127  15.506 -0.6865  0.1716 -0.6369
  142DOPC   H9R16822   4.589   3.188  15.499 -0.2405  0.8932 -0.2941
  142DOPC  C21016823   4.675   3.010  15.450  0.5689  0.3712  0.0548
  142DOPC  H10R16824   4.586   2.999  15.387 -1.0327 -0.2774  2.2782
  142DOPC  C21116825   4.768   2.888  15.450  0.2876 -0.1226  0.5615
  142DOPC  H11R16826   4.857   2.897  15.515  2.4861 -3.7109 -1.6044
  142DOPC  H11S16827   4.817   2.861  15.353 -0.7998 -1.2745  0.3049
  142DOPC  C21216828   4.698   2.763  15.508  0.2428  0.7324 -0.4240
  142DOPC  H12R16829   4.669   2.798  15.610  1.1002  0.6814 -0.1608
  142DOPC  H12S16830   4.763   2.674  15.521 -1.0730  0.0067  2.0959
  142DOPC  C21316831   4.559   2.723  15.442  0.1574  0.1703 -0.6218
  142DOPC  H13R16832   4.475   2.791  15.471 -0.8552 -1.1978 -0.2537
  142DOPC  H13S16833   4.537   2.622  15.482  2.8656 -0.3014 -0.1698
  142DOPC  C21416834   4.573   2.707  15.291  0.3039  0.2549  0.0219
  142DOPC  H14R16835   4.664   2.650  15.262 -1.3544 -2.8167  0.4015
  142DOPC  H14S16836   4.572   2.807  15.242  2.5180  0.4513  0.2465
  142DOPC  C21516837   4.459   2.631  15.226  0.1666  0.6229  0.4512
  142DOPC  H15R16838   4.462   2.529  15.269  1.7332  0.2546 -0.4578
  142DOPC  H15S16839   4.490   2.619  15.120  0.9401 -0.3604  0.7737
  142DOPC  C21616840   4.311   2.683  15.226  0.8595 -0.1214 -0.2695
  142DOPC  H16R16841   4.316   2.789  15.193 -3.2173 -0.4439 -2.5894
  142DOPC  H16S16842   4.269   2.677  15.329 -1.3214  1.5204 -0.9900
  142DOPC  C21716843   4.223   2.604  15.133  0.4055  0.2842  0.3504
  142DOPC  H17R16844   4.262   2.501  15.123  1.4649  0.7243 -0.3146
  142DOPC  H17S16845   4.236   2.645  15.030  0.4573  0.2892  0.3589
  142DOPC  C21816846   4.073   2.609  15.152  0.3728 -0.2528 -0.2697
  142DOPC  H18R16847   4.011   2.565  15.071  0.2188 -0.9762  0.2332
  142DOPC  H18S16848   4.035   2.713  15.163 -0.9681 -0.7856  0.4722
  142DOPC  H18T16849   4.049   2.560  15.249 -0.2380  0.1103 -0.2291
  142DOPC   C3316850   4.297   3.473  16.136  0.4765 -0.1155  0.2077
  142DOPC   H3X16851   4.186   3.470  16.146  0.2585  2.7051 -0.4850
  142DOPC   H3Y16852   4.347   3.376  16.114  2.6408  0.7358  1.1989
  142DOPC   C3416853   4.321   3.573  16.022  0.0043  0.3807  0.0339
  142DOPC   H4X16854   4.284   3.673  16.052  0.2900  0.0964  1.3850
  142DOPC   H4Y16855   4.249   3.536  15.945 -0.0080  0.3186  0.0755
  142DOPC   C3516856   4.463   3.568  15.976  0.0259 -0.1136  0.1984
  142DOPC   H5X16857   4.509   3.469  16.001  4.0767  1.4247 -0.4366
  142DOPC   H5Y16858   4.533   3.641  16.021 -2.1793  2.3467 -0.1870
  142DOPC   C3616859   4.476   3.586  15.827  0.1127 -0.1429  0.2196
  142DOPC   H6X16860   4.429   3.503  15.771 -2.1799  1.4132 -0.2917
  142DOPC   H6Y16861   4.446   3.687  15.793 -0.4533 -1.1042 -2.3214
  142DOPC   C3716862   4.622   3.579  15.781 -0.4693 -0.0822  0.1530
  142DOPC   H7X16863   4.679   3.672  15.805  1.6511 -0.8509 -1.5927
  142DOPC   H7Y16864   4.665   3.495  15.840  2.3112  1.0150 -0.1664
  142DOPC   C3816865   4.642   3.554  15.634  0.2553 -0.0545 -0.1212
  142DOPC   H8X16866   4.588   3.465  15.594 -0.7941  0.2612  0.5604
  142DOPC   H8Y16867   4.748   3.530  15.612  0.6684  1.6039 -0.0618
  142DOPC   C3916868   4.599   3.679  15.564 -0.3356 -0.3990 -0.3728
  142DOPC   H9X16869   4.583   3.765  15.630  1.0807  0.0577 -0.5983
  142DOPC  C31016870   4.565   3.691  15.432 -0.5918 -0.1755 -0.5686
  142DOPC  H10X16871   4.538   3.789  15.390 -1.7611 -1.0956 -2.0599
  142DOPC  C31116872   4.560   3.572  15.334 -0.3576 -0.2443  0.6694
  142DOPC  H11X16873   4.470   3.572  15.270 -0.4117  0.0836  0.7437
  142DOPC  H11Y16874   4.556   3.481  15.398 -0.2956 -1.1525 -0.5777
  142DOPC  C31216875   4.674   3.557  15.232  0.8012 -0.0227 -0.8967
  142DOPC  H12X16876   4.673   3.653  15.175 -0.4210  0.6533  0.1949
  142DOPC  H12Y16877   4.650   3.475  15.162 -0.2592  0.8441 -1.5883
  142DOPC  C31316878   4.809   3.538  15.296  0.7324  0.9434  1.0065
  142DOPC  H13X16879   4.838   3.597  15.385  0.9651  1.6234  0.4959
  142DOPC  H13Y16880   4.812   3.438  15.343  0.5375  1.3426  1.8919
  142DOPC  C31416881   4.926   3.540  15.200 -0.1042 -0.7138 -0.2073
  142DOPC  H14X16882   5.018   3.497  15.245  0.2880 -0.4238 -0.7253
  142DOPC  H14Y16883   4.910   3.484  15.105 -0.2248  1.5773 -1.6127
  142DOPC  C31516884   4.965   3.685  15.158 -0.4933  0.4141 -0.7786
  142DOPC  H15X16885   4.937   3.742  15.249  1.8730  0.1478  0.1934
  142DOPC  H15Y16886   4.905   3.712  15.068 -0.4735 -1.3186 -1.3613
  142DOPC  C31616887   5.120   3.697  15.136  0.2089 -0.8407 -0.4096
  142DOPC  H16X16888   5.142   3.804  15.113 -0.5968 -0.6078 -0.1528
  142DOPC  H16Y16889   5.179   3.671  15.225 -0.2153  0.1481  0.1836
  142DOPC  C31716890   5.178   3.605  15.019  0.7673  0.1069  0.4192
  142DOPC  H17X16891   5.166   3.497  15.039 -1.7130  0.5640  1.8890
  142DOPC  H17Y16892   5.117   3.616  14.927  0.2221 -0.7762  0.6624
  142DOPC  C31816893   5.321   3.635  14.981 -0.1181  0.2653 -0.5198
  142DOPC  H18X16894   5.383   3.643  15.073 -2.2574  3.1133  0.8367
  142DOPC  H18Y16895   5.374   3.563  14.915  1.1309 -0.5015  1.2335
  142DOPC  H18Z16896   5.325   3.735  14.931  2.3029 -0.4359 -1.8891
  143DOPC     N16897   2.619   3.915  16.977 -0.4964 -0.3008 -0.4521
  143DOPC   C1216898   2.598   3.865  16.839  0.2758  0.1395 -0.1027
  143DOPC  H12A16899   2.512   3.920  16.803 -1.3125 -2.7847 -1.1018
  143DOPC  H12B16900   2.573   3.760  16.846 -0.1345  0.3132  1.1811
  143DOPC   C1316901   2.733   3.848  17.044  0.0426  0.2815 -0.7310
  143DOPC  H13A16902   2.740   3.743  17.020  1.4432 -0.2331  1.6320
  143DOPC  H13B16903   2.831   3.888  17.021  0.3705  2.1645  3.1670
  143DOPC  H13C16904   2.730   3.846  17.152 -0.8023  0.1179 -0.7451
  143DOPC   C1416905   2.496   3.895  17.062 -0.2229 -0.2355 -0.5078
  143DOPC  H14A16906   2.413   3.949  17.020 -0.6837 -1.2493 -0.9279
  143DOPC  H14B16907   2.469   3.791  17.064 -2.0108  0.2005 -0.3169
  143DOPC  H14C16908   2.509   3.934  17.162 -1.0711  1.2430 -0.9446
  143DOPC   C1516909   2.646   4.062  16.973 -0.8249  0.5618 -0.2491
  143DOPC  H15A16910   2.729   4.087  16.908 -0.4571 -0.4055 -0.1596
  143DOPC  H15B16911   2.677   4.100  17.069  0.3598 -0.6968 -0.0946
  143DOPC  H15C16912   2.558   4.114  16.939  0.2893  1.1454 -2.5061
  143DOPC   C1116913   2.709   3.883  16.744 -0.6853 -0.6827 -0.5330
  143DOPC  H11A16914   2.669   3.851  16.646  2.3818 -1.4041 -1.6786
  143DOPC  H11B16915   2.738   3.988  16.723 -0.1710 -0.1214  2.5127
  143DOPC     P16916   2.818   3.643  16.755  0.0769  0.4297  0.0847
  143DOPC   O1316917   2.684   3.598  16.803 -0.4261  0.1059  0.1859
  143DOPC   O1416918   2.939   3.586  16.817 -0.3377  0.0406  0.3124
  143DOPC   O1216919   2.819   3.799  16.781  0.2262  0.3117  0.4711
  143DOPC   O1116920   2.829   3.633  16.599 -0.6037 -0.1009  0.0451
  143DOPC    C116921   2.959   3.647  16.529 -0.4185 -0.3185  0.3589
  143DOPC    HA16922   3.024   3.556  16.534 -0.2787 -0.4907 -2.7823
  143DOPC    HB16923   3.017   3.725  16.583 -2.0482  0.5496  0.9138
  143DOPC    C216924   2.949   3.687  16.377  0.1491  0.5502  0.0185
  143DOPC    HS16925   3.044   3.739  16.349  0.7493 -1.0578 -1.0941
  143DOPC   O2116926   2.838   3.770  16.344 -0.2147  0.1304  0.7109
  143DOPC   C2116927   2.837   3.890  16.402  0.4285  0.2460 -0.5212
  143DOPC   O2216928   2.928   3.938  16.464 -0.0885  0.2295  0.1491
  143DOPC   C2216929   2.699   3.955  16.363 -0.3702 -0.4554 -0.2083
  143DOPC   H2R16930   2.713   4.065  16.356 -0.7103 -0.4772 -1.3325
  143DOPC   H2S16931   2.627   3.932  16.445  0.0939  1.9324  0.9696
  143DOPC    C316932   2.949   3.561  16.288  0.4656  0.0020 -0.2939
  143DOPC    HX16933   2.880   3.479  16.320  1.5679 -0.5455  0.7602
  143DOPC    HY16934   3.044   3.504  16.292  1.0448  0.8630 -1.2686
  143DOPC   O3116935   2.926   3.592  16.148  0.4401  0.2676 -0.4228
  143DOPC   C3116936   2.802   3.578  16.116  0.2972 -0.5563 -0.0944
  143DOPC   O3216937   2.711   3.555  16.197  0.3150 -0.2795 -0.3826
  143DOPC   C3216938   2.783   3.602  15.975  0.1809  0.9632  0.7646
  143DOPC   H2X16939   2.712   3.687  15.965  0.1117  0.7659 -0.6308
  143DOPC   H2Y16940   2.875   3.634  15.923  0.9084 -0.4136  1.1714
  143DOPC   C2316941   2.634   3.910  16.230  0.0280 -0.0465  0.0868
  143DOPC   H3R16942   2.528   3.942  16.231 -0.0188 -0.2177  1.4486
  143DOPC   H3S16943   2.627   3.799  16.225  0.8283 -0.1137  0.3299
  143DOPC   C2416944   2.715   3.959  16.107  0.0904 -0.0864  0.4091
  143DOPC   H4R16945   2.796   3.885  16.089 -0.8394 -1.3395  1.2263
  143DOPC   H4S16946   2.773   4.044  16.147  0.3440 -0.8090  1.6046
  143DOPC   C2516947   2.629   3.989  15.982  0.7016 -0.2992  0.2044
  143DOPC   H5R16948   2.541   4.056  16.001  0.1921 -0.8683 -0.1150
  143DOPC   H5S16949   2.591   3.893  15.942 -2.5841  1.5991 -1.7333
  143DOPC   C2616950   2.720   4.046  15.874 -0.0680 -0.6106 -0.0322
  143DOPC   H6R16951   2.809   3.980  15.862 -0.6346 -1.4148  0.0887
  143DOPC   H6S16952   2.773   4.139  15.902 -0.4333 -0.7797  1.3080
  143DOPC   C2716953   2.645   4.071  15.747 -0.0919  0.0953  0.0262
  143DOPC   H7R16954   2.580   4.156  15.775  1.1512  1.0142  0.1723
  143DOPC   H7S16955   2.570   3.992  15.723 -0.9352  0.6217  0.8589
  143DOPC   C2816956   2.733   4.113  15.619 -0.0268 -0.0885 -0.2750
  143DOPC   H8R16957   2.829   4.140  15.669  1.1330 -1.5247 -1.6216
  143DOPC   H8S16958   2.678   4.201  15.579 -2.2026 -0.0617  2.4723
  143DOPC   C2916959   2.747   4.003  15.521 -0.0716 -0.0916 -0.7112
  143DOPC   H9R16960   2.662   3.933  15.520 -0.8909  0.5662  3.5307
  143DOPC  C21016961   2.864   3.972  15.457 -0.3382 -0.4218  0.7279
  143DOPC  H10R16962   2.863   3.888  15.386 -0.0605 -1.8389  2.3277
  143DOPC  C21116963   2.993   4.051  15.458 -0.5528 -0.2203 -0.0176
  143DOPC  H11R16964   3.067   3.985  15.509 -0.4274  0.2720  0.4491
  143DOPC  H11S16965   2.978   4.145  15.515  0.2066 -0.5300  0.7038
  143DOPC  C21216966   3.043   4.077  15.317  0.1063  0.1010  0.3110
  143DOPC  H12R16967   3.101   4.171  15.328 -0.5076  0.7013 -1.3268
  143DOPC  H12S16968   2.961   4.095  15.245 -0.6764  0.7504  1.3308
  143DOPC  C21316969   3.132   3.966  15.260  0.0946  0.7968 -0.2779
  143DOPC  H13R16970   3.078   3.873  15.234  1.2066  0.9476 -3.4539
  143DOPC  H13S16971   3.227   3.945  15.314 -0.8365 -1.0082  0.7323
  143DOPC  C21416972   3.190   4.015  15.123  0.1349 -0.3133 -0.2202
  143DOPC  H14R16973   3.206   4.125  15.122 -0.3809 -0.2302  0.0252
  143DOPC  H14S16974   3.106   4.008  15.050  1.3129  0.2010 -1.6527
  143DOPC  C21516975   3.316   3.939  15.081  0.1529  0.5087 -0.5255
  143DOPC  H15R16976   3.302   3.832  15.109 -1.5493  0.9198  0.3397
  143DOPC  H15S16977   3.396   3.988  15.141 -1.9694  1.3316  1.8196
  143DOPC  C21616978   3.359   3.958  14.937 -0.2929  0.5922 -0.0438
  143DOPC  H16R16979   3.340   4.059  14.894 -0.2433  0.2907 -0.7881
  143DOPC  H16S16980   3.299   3.887  14.875 -0.3130 -1.8266  2.5589
  143DOPC  C21716981   3.505   3.933  14.912  0.0189  0.1308 -0.4947
  143DOPC  H17R16982   3.580   4.004  14.953  0.1332  0.5026 -1.3151
  143DOPC  H17S16983   3.520   3.936  14.802  0.6992  3.7803 -0.4380
  143DOPC  C21816984   3.562   3.803  14.969  0.7366 -0.0430  0.3325
  143DOPC  H18R16985   3.664   3.785  14.929  1.0573 -0.4855  1.3227
  143DOPC  H18S16986   3.491   3.719  14.953  0.8159 -0.2339  0.9315
  143DOPC  H18T16987   3.584   3.806  15.078  2.3030 -0.3337  0.0512
  143DOPC   C3316988   2.720   3.474  15.917 -0.0056 -0.4437  0.0187
  143DOPC   H3X16989   2.623   3.450  15.966 -1.4097  2.0127 -1.3553
  143DOPC   H3Y16990   2.783   3.383  15.923 -0.1991 -0.5529  0.3880
  143DOPC   C3416991   2.667   3.492  15.776  0.1681 -0.6631  0.5799
  143DOPC   H4X16992   2.748   3.549  15.726  0.4258 -1.6640 -0.1871
  143DOPC   H4Y16993   2.583   3.565  15.777  0.6684  0.0089 -1.3164
  143DOPC   C3516994   2.623   3.373  15.697 -0.0526  0.0397  0.1775
  143DOPC   H5X16995   2.545   3.325  15.759  0.8131 -0.2936  1.0312
  143DOPC   H5Y16996   2.706   3.301  15.678 -1.4513 -1.4975 -0.3477
  143DOPC   C3616997   2.569   3.400  15.559 -0.5109  0.6841 -0.6373
  143DOPC   H6X16998   2.493   3.480  15.566 -1.2224  0.3491 -3.3362
  143DOPC   H6Y16999   2.656   3.445  15.505  0.6086 -2.2681 -1.5073
  143DOPC   C3717000   2.531   3.278  15.480 -0.1221 -0.0272 -0.0177
  143DOPC   H7X17001   2.518   3.313  15.375 -0.5111 -1.0931 -0.3463
  143DOPC   H7Y17002   2.611   3.201  15.474  1.4948  1.5338  0.7080
  143DOPC   C3817003   2.397   3.202  15.534  0.0504  0.6082 -0.7735
  143DOPC   H8X17004   2.408   3.179  15.642  0.9152 -0.6213 -1.1031
  143DOPC   H8Y17005   2.399   3.100  15.490  3.1963 -0.9104  2.4404
  143DOPC   C3917006   2.271   3.277  15.493 -1.1383 -0.6091  0.3229
  143DOPC   H9X17007   2.262   3.279  15.383 -1.0496  1.6408  0.3102
  143DOPC  C31017008   2.171   3.327  15.560  0.2727  0.5573  0.8553
  143DOPC  H10X17009   2.081   3.363  15.507  0.1669 -2.3823 -1.2383
  143DOPC  C31117010   2.163   3.317  15.703  0.0514 -0.3508 -0.7366
  143DOPC  H11X17011   2.235   3.243  15.742  2.7997  1.6103 -1.7960
  143DOPC  H11Y17012   2.060   3.294  15.739  0.6330 -0.1247  1.1536
  143DOPC  C31217013   2.210   3.454  15.757  0.0619 -0.4595 -0.5856
  143DOPC  H12X17014   2.138   3.531  15.722  0.9689  0.2139 -1.0036
  143DOPC  H12Y17015   2.315   3.480  15.733 -0.0034  0.7081  0.2742
  143DOPC  C31317016   2.200   3.448  15.908 -0.0775  0.5366 -0.9060
  143DOPC  H13X17017   2.093   3.429  15.934  0.2599 -0.5550 -0.2568
  143DOPC  H13Y17018   2.276   3.375  15.942 -0.2615  1.0050  0.5543
  143DOPC  C31417019   2.234   3.576  15.982 -0.2382 -0.1745  0.0013
  143DOPC  H14X17020   2.320   3.621  15.928 -0.1618  0.0564  0.3072
  143DOPC  H14Y17021   2.147   3.645  15.977 -0.2966 -0.2413  0.0965
  143DOPC  C31517022   2.273   3.556  16.129 -0.3670 -0.5036  0.2163
  143DOPC  H15X17023   2.361   3.489  16.132  2.3606  2.6588 -1.4936
  143DOPC  H15Y17024   2.188   3.516  16.188 -0.6233  0.8631  0.8245
  143DOPC  C31617025   2.302   3.690  16.207 -0.3704  0.1775  0.1258
  143DOPC  H16X17026   2.346   3.666  16.306 -0.6806  1.5959  0.6348
  143DOPC  H16Y17027   2.375   3.755  16.155 -1.1166  1.5499  0.7209
  143DOPC  C31717028   2.183   3.773  16.245  0.1003 -0.1654 -0.0222
  143DOPC  H17X17029   2.127   3.795  16.151  0.7017 -0.0368 -0.3575
  143DOPC  H17Y17030   2.132   3.714  16.324 -1.7125  0.6344 -0.5404
  143DOPC  C31817031   2.232   3.908  16.304  0.6691 -0.2499 -0.4312
  143DOPC  H18X17032   2.143   3.968  16.331  2.1301  0.8568  2.2592
  143DOPC  H18Y17033   2.300   3.890  16.390  0.1127  0.4848  0.1806
  143DOPC  H18Z17034   2.291   3.975  16.238 -0.8430  2.5353  0.8653
  144DOPC     N17035   3.626   2.354  17.225  0.3860 -0.1757 -0.7171
  144DOPC   C1217036   3.584   2.334  17.081  0.2182  0.2736 -0.4912
  144DOPC  H12A17037   3.548   2.233  17.068 -0.3769  0.5791 -1.2425
  144DOPC  H12B17038   3.670   2.339  17.017  0.6318 -0.7655 -0.0446
  144DOPC   C1317039   3.513   2.324  17.322 -0.2840  0.0970 -0.3522
  144DOPC  H13A17040   3.527   2.384  17.410  3.0632  0.5091 -1.0451
  144DOPC  H13B17041   3.420   2.356  17.277  0.5290  2.1503 -0.6845
  144DOPC  H13C17042   3.502   2.218  17.342  0.0680 -0.4617 -2.7463
  144DOPC   C1417043   3.672   2.496  17.252  0.6696 -0.2058 -0.4240
  144DOPC  H14A17044   3.744   2.532  17.180 -0.1221  2.6677  0.1037
  144DOPC  H14B17045   3.594   2.569  17.239  1.3959  0.6074 -0.2410
  144DOPC  H14C17046   3.713   2.505  17.351  3.1483  0.0627 -1.4035
  144DOPC   C1517047   3.739   2.259  17.252 -0.0120  0.5442  0.1087
  144DOPC  H15A17048   3.815   2.265  17.176  0.2825 -0.2484  0.3279
  144DOPC  H15B17049   3.706   2.156  17.244  1.3346  0.2045 -1.8499
  144DOPC  H15C17050   3.792   2.284  17.343 -0.3854  0.3173  0.3921
  144DOPC   C1117051   3.466   2.418  17.022  0.4361  0.0660 -0.3329
  144DOPC  H11A17052   3.480   2.528  17.032 -0.8991  0.2600 -0.3503
  144DOPC  H11B17053   3.473   2.386  16.916  2.3994 -2.8843  0.5843
  144DOPC     P17054   3.263   2.248  17.065 -0.2872 -0.0330 -0.0091
  144DOPC   O1317055   3.171   2.244  17.181  0.4377  0.5808  0.2065
  144DOPC   O1417056   3.368   2.141  17.053 -0.3023 -0.2996  0.1616
  144DOPC   O1217057   3.339   2.383  17.082 -0.0568 -0.3520 -0.0036
  144DOPC   O1117058   3.182   2.269  16.929  0.3455  0.3172  0.2810
  144DOPC    C117059   3.107   2.399  16.916 -0.9365  0.4623  0.1202
  144DOPC    HA17060   3.160   2.460  16.840 -0.1117 -0.8497 -0.4037
  144DOPC    HB17061   3.095   2.459  17.008 -0.1929  0.7712  0.0191
  144DOPC    C217062   2.967   2.382  16.850  0.4033  0.3396  0.3937
  144DOPC    HS17063   2.907   2.326  16.925 -0.1578  0.7150  0.2267
  144DOPC   O2117064   2.984   2.293  16.737 -0.3642 -0.0414 -0.4683
  144DOPC   C2117065   2.864   2.256  16.688 -0.5578 -0.0781 -0.8079
  144DOPC   O2217066   2.757   2.279  16.743 -0.4378 -0.0641  0.2238
  144DOPC   C2217067   2.880   2.203  16.550  0.5395 -0.1098  0.5993
  144DOPC   H2R17068   2.951   2.118  16.545  0.3770 -0.1745 -1.6385
  144DOPC   H2S17069   2.912   2.277  16.473  0.8063 -1.0426 -0.2036
  144DOPC    C317070   2.906   2.523  16.823  0.4913 -0.5345 -0.3788
  144DOPC    HX17071   2.905   2.567  16.924  1.7859 -1.9067  0.2732
  144DOPC    HY17072   2.806   2.509  16.775  0.3807 -1.9759  0.2213
  144DOPC   O3117073   3.000   2.597  16.735 -0.0299  0.2957  0.0163
  144DOPC   C3117074   2.971   2.724  16.722 -0.8951 -0.1968 -0.1112
  144DOPC   O3217075   2.881   2.790  16.771  0.5768  0.1628  0.0834
  144DOPC   C3217076   3.092   2.789  16.655  0.0716  0.0072  0.9220
  144DOPC   H2X17077   3.131   2.874  16.714  1.0786 -0.1814  0.5440
  144DOPC   H2Y17078   3.167   2.711  16.632  1.2808  1.8314 -1.7993
  144DOPC   C2317079   2.742   2.143  16.492 -0.6877 -0.0116  0.4059
  144DOPC   H3R17080   2.650   2.205  16.502 -1.0261 -0.2416 -1.0304
  144DOPC   H3S17081   2.730   2.046  16.545  0.6271 -1.7047 -2.1937
  144DOPC   C2417082   2.758   2.111  16.341 -0.6874  0.0037  0.6292
  144DOPC   H4R17083   2.867   2.114  16.316 -0.9576 -0.6190 -0.6682
  144DOPC   H4S17084   2.709   2.198  16.293 -0.8303 -0.2610  0.2964
  144DOPC   C2517085   2.698   1.981  16.296 -0.4419 -0.3856 -0.5453
  144DOPC   H5R17086   2.681   1.981  16.186  0.1935  3.4474 -0.7932
  144DOPC   H5S17087   2.601   1.958  16.344  0.1818 -0.9456  0.4935
  144DOPC   C2617088   2.789   1.859  16.339 -0.6918 -0.6185  0.6881
  144DOPC   H6R17089   2.780   1.847  16.449  1.0852  2.3331  1.2805
  144DOPC   H6S17090   2.893   1.892  16.316 -0.6836  0.0776  1.6749
  144DOPC   C2717091   2.746   1.730  16.257  0.8828 -0.3036  0.0590
  144DOPC   H7R17092   2.750   1.745  16.147  1.3828 -2.6051 -0.3039
  144DOPC   H7S17093   2.642   1.711  16.290 -0.6977  4.5510 -1.2861
  144DOPC   C2817094   2.842   1.615  16.289 -0.3901 -0.1175  0.8436
  144DOPC   H8R17095   2.806   1.531  16.225  2.4666  1.4594 -3.3174
  144DOPC   H8S17096   2.819   1.589  16.394 -1.7964 -1.2762  0.2887
  144DOPC   C2917097   2.990   1.642  16.286  0.0368  0.5999  0.5652
  144DOPC   H9R17098   3.029   1.705  16.368  0.9553  0.3516  0.3305
  144DOPC  C21017099   3.064   1.601  16.177  0.4798 -0.3496  0.0250
  144DOPC  H10R17100   3.168   1.636  16.175 -0.4875  2.8608  0.3608
  144DOPC  C21117101   3.001   1.529  16.061 -0.2916  1.1263  0.0571
  144DOPC  H11R17102   2.901   1.569  16.032 -0.0128  1.8514  0.0789
  144DOPC  H11S17103   2.991   1.425  16.100 -0.9703  1.5874  1.1791
  144DOPC  C21217104   3.084   1.510  15.931  0.6026 -0.1448  1.0209
  144DOPC  H12R17105   3.018   1.454  15.861 -1.2754  2.1203  0.8489
  144DOPC  H12S17106   3.181   1.460  15.949  1.0050  0.1236 -0.2464
  144DOPC  C21317107   3.121   1.640  15.872  0.7735  0.4563  0.4505
  144DOPC  H13R17108   3.165   1.713  15.944 -0.3975  2.6894 -0.9840
  144DOPC  H13S17109   3.024   1.685  15.843 -0.1535 -0.6475  1.7000
  144DOPC  C21417110   3.208   1.625  15.743 -0.4271 -0.2884  0.2954
  144DOPC  H14R17111   3.160   1.554  15.671  0.5517  1.8720 -2.6998
  144DOPC  H14S17112   3.306   1.586  15.776  1.2266  3.3479  0.1401
  144DOPC  C21517113   3.215   1.757  15.663  0.4917  0.1940 -0.3115
  144DOPC  H15R17114   3.300   1.743  15.592 -2.2853 -0.6069 -3.7353
  144DOPC  H15S17115   3.232   1.851  15.720  0.8164 -0.4725  0.7258
  144DOPC  C21617116   3.082   1.775  15.590 -0.8093 -0.8189 -0.2916
  144DOPC  H16R17117   2.994   1.765  15.658  0.0976  0.5967  1.1663
  144DOPC  H16S17118   3.069   1.691  15.518  0.5696 -1.9725  0.7596
  144DOPC  C21717119   3.063   1.915  15.525  0.0641  0.3247  0.6663
  144DOPC  H17R17120   3.152   1.946  15.465 -0.0005 -0.5175  0.1192
  144DOPC  H17S17121   3.051   1.985  15.611  1.6253  0.7618  0.5605
  144DOPC  C21817122   2.930   1.940  15.449  0.2289  0.5562  0.1397
  144DOPC  H18R17123   2.939   1.899  15.347 -0.3534 -1.4388  0.8449
  144DOPC  H18S17124   2.912   2.048  15.432  0.7886  1.0462  2.3044
  144DOPC  H18T17125   2.845   1.894  15.503  0.2062  1.5361  0.9786
  144DOPC   C3317126   3.032   2.856  16.525 -0.3502  0.1023 -0.3453
  144DOPC   H3X17127   3.120   2.915  16.491  0.1141  0.5048  1.4481
  144DOPC   H3Y17128   2.956   2.932  16.555 -2.1216 -2.4550  2.2550
  144DOPC   C3417129   2.988   2.762  16.414  0.8788 -0.3405 -0.1855
  144DOPC   H4X17130   2.956   2.831  16.333  1.3210  0.2408  0.1253
  144DOPC   H4Y17131   2.892   2.713  16.440  0.1296  1.2967  0.2679
  144DOPC   C3517132   3.098   2.665  16.363  0.8655 -0.1238  0.3448
  144DOPC   H5X17133   3.105   2.569  16.419  1.4445  0.4656  1.3070
  144DOPC   H5Y17134   3.197   2.713  16.372  1.8170 -2.2385  2.0597
  144DOPC   C3617135   3.084   2.635  16.212  0.7856 -0.2190  0.2682
  144DOPC   H6X17136   2.980   2.613  16.182 -0.3691  2.2259  2.1552
  144DOPC   H6Y17137   3.114   2.724  16.151  0.0494  0.0709  0.3250
  144DOPC   C3717138   3.182   2.518  16.182 -0.8778  0.0168 -0.1878
  144DOPC   H7X17139   3.215   2.482  16.282  0.0437 -1.7734 -1.0942
  144DOPC   H7Y17140   3.128   2.427  16.149  1.7337 -1.2275 -1.3208
  144DOPC   C3817141   3.307   2.548  16.096  0.2902 -0.5380  0.2216
  144DOPC   H8X17142   3.360   2.635  16.143  0.7969 -0.8553  0.2508
  144DOPC   H8Y17143   3.263   2.576  15.998  0.4481 -0.6593  0.1139
  144DOPC   C3917144   3.400   2.431  16.082 -0.2182 -0.1187 -0.6530
  144DOPC   H9X17145   3.357   2.344  16.029  1.6361 -0.9719 -0.8312
  144DOPC  C31017146   3.530   2.422  16.123  0.5700 -0.1065  0.7528
  144DOPC  H10X17147   3.587   2.328  16.133  1.4674  0.2342 -0.8792
  144DOPC  C31117148   3.616   2.523  16.184 -0.1147 -0.4418 -0.2799
  144DOPC  H11X17149   3.654   2.484  16.281 -0.7694 -0.3017  0.0384
  144DOPC  H11Y17150   3.560   2.616  16.210  1.0001  0.7907 -2.1212
  144DOPC  C31217151   3.740   2.558  16.100 -0.4605 -0.0979 -0.0209
  144DOPC  H12X17152   3.711   2.599  16.001 -1.3166 -0.2010  0.1831
  144DOPC  H12Y17153   3.783   2.458  16.079 -0.0603 -0.0204  0.4184
  144DOPC  C31317154   3.839   2.656  16.172 -0.1694 -0.0969  0.1839
  144DOPC  H13X17155   3.816   2.764  16.162  0.4645  0.4053  3.1021
  144DOPC  H13Y17156   3.834   2.624  16.279 -1.7716  1.2933  0.5634
  144DOPC  C31417157   3.972   2.630  16.101  0.4145  0.0388  0.3052
  144DOPC  H14X17158   4.047   2.693  16.154 -2.3656  1.0881  3.3120
  144DOPC  H14Y17159   4.003   2.525  16.120 -0.7558 -0.7464 -1.8567
  144DOPC  C31517160   3.971   2.668  15.957 -0.2583 -0.1550 -0.0378
  144DOPC  H15X17161   3.919   2.765  15.942 -0.8855 -0.4522  0.1651
  144DOPC  H15Y17162   3.896   2.601  15.909 -0.1205 -0.4437  0.1482
  144DOPC  C31617163   4.112   2.674  15.896 -0.1147 -0.0556 -0.1706
  144DOPC  H16X17164   4.170   2.745  15.960 -1.6159  1.5501 -0.5152
  144DOPC  H16Y17165   4.164   2.576  15.898 -1.4296 -0.7933 -1.2452
  144DOPC  C31717166   4.119   2.733  15.751 -0.4314  0.0082 -1.1246
  144DOPC  H17X17167   4.040   2.676  15.697 -2.1297 -0.6100  1.8168
  144DOPC  H17Y17168   4.088   2.839  15.744  1.5411  0.7767  0.7474
  144DOPC  C31817169   4.256   2.709  15.683 -0.1273 -0.4387  0.4780
  144DOPC  H18X17170   4.312   2.621  15.721 -0.4377 -1.8211 -2.0705
  144DOPC  H18Y17171   4.238   2.697  15.574  1.1114  1.3860  0.0352
  144DOPC  H18Z17172   4.318   2.800  15.695 -1.2182  0.5684 -1.1681
  145DOPC     N17173   4.325   6.120  17.111  0.4391 -0.4460 -0.4057
  145DOPC   C1217174   4.371   6.173  16.971  0.0478  0.1255 -0.0118
  145DOPC  H12A17175   4.472   6.206  16.990 -0.3350  2.0869 -1.1311
  145DOPC  H12B17176   4.321   6.261  16.934 -2.2558 -0.7991  0.7663
  145DOPC   C1317177   4.183   6.080  17.108  0.2707  0.5872 -0.1720
  145DOPC  H13A17178   4.147   6.056  17.207 -1.0394  3.4468  0.1416
  145DOPC  H13B17179   4.116   6.161  17.085  0.7303  1.1788  0.5433
  145DOPC  H13C17180   4.162   5.994  17.046  0.4957  0.2383  0.2252
  145DOPC   C1417181   4.341   6.229  17.216 -0.2268 -0.1569  0.0948
  145DOPC  H14A17182   4.296   6.324  17.192 -1.2526 -0.4621  0.7671
  145DOPC  H14B17183   4.311   6.198  17.315 -0.8326 -0.7763 -0.2808
  145DOPC  H14C17184   4.446   6.250  17.236 -0.6419 -0.9280  3.8865
  145DOPC   C1517185   4.408   6.005  17.138  0.0113  0.3693 -0.6899
  145DOPC  H15A17186   4.417   5.933  17.058 -0.7420 -2.1355  1.3473
  145DOPC  H15B17187   4.361   5.952  17.220 -0.7512 -3.3301 -3.2926
  145DOPC  H15C17188   4.513   6.021  17.160 -0.5444 -1.2381  4.4704
  145DOPC   C1117189   4.373   6.077  16.854  0.7961  0.2044  0.1240
  145DOPC  H11A17190   4.282   6.014  16.863 -0.4594  1.6388 -1.8334
  145DOPC  H11B17191   4.376   6.140  16.762 -1.6483 -2.6372 -2.0622
  145DOPC     P17192   4.523   5.897  16.738 -0.1713 -0.0101 -0.2582
  145DOPC   O1317193   4.500   5.755  16.769  0.7274 -0.4587 -0.1165
  145DOPC   O1417194   4.665   5.936  16.707  0.6578  0.2920 -0.4540
  145DOPC   O1217195   4.479   5.987  16.859  0.4672  1.1205  0.0449
  145DOPC   O1117196   4.433   5.937  16.619  0.4560  0.1816  0.0692
  145DOPC    C117197   4.453   5.901  16.489  0.2342  0.1865  0.1533
  145DOPC    HA17198   4.550   5.855  16.461  0.5409 -0.7943  2.6128
  145DOPC    HB17199   4.460   5.997  16.434 -1.2285  0.1221 -0.1946
  145DOPC    C217200   4.333   5.813  16.446  1.0314 -0.2641 -0.1193
  145DOPC    HS17201   4.357   5.711  16.482  0.0577 -0.1277  0.9998
  145DOPC   O2117202   4.322   5.824  16.305  0.8792  0.2266 -0.6506
  145DOPC   C2117203   4.317   5.723  16.238  0.0643  0.2369  1.1351
  145DOPC   O2217204   4.324   5.604  16.272 -0.3803  0.1968 -0.2112
  145DOPC   C2217205   4.272   5.756  16.093 -0.3568 -0.7650 -0.3517
  145DOPC   H2R17206   4.310   5.852  16.052  0.8793 -1.2573 -0.4063
  145DOPC   H2S17207   4.162   5.753  16.107 -0.1996 -0.1441  1.2701
  145DOPC    C317208   4.203   5.861  16.518  0.0224 -0.3114 -0.2806
  145DOPC    HX17209   4.202   5.972  16.520  1.7259 -0.2618 -0.2160
  145DOPC    HY17210   4.195   5.839  16.626  0.8921  1.3592  0.1660
  145DOPC   O3117211   4.090   5.798  16.449 -0.2549 -0.3056  0.5005
  145DOPC   C3117212   4.067   5.669  16.487 -0.0150  0.2961  0.5192
  145DOPC   O3217213   4.135   5.606  16.566  0.7666 -0.2182  0.2221
  145DOPC   C3217214   3.941   5.621  16.417  0.0739  0.8302 -0.4503
  145DOPC   H2X17215   3.883   5.702  16.368 -0.4148  0.3260 -0.7180
  145DOPC   H2Y17216   3.980   5.548  16.342  0.2648  0.4674 -0.0083
  145DOPC   C2317217   4.310   5.652  16.000 -0.5777 -0.0862  0.2306
  145DOPC   H3R17218   4.278   5.550  16.029  1.5654 -1.5737 -2.2725
  145DOPC   H3S17219   4.419   5.635  16.012 -0.3083  1.0657 -0.3439
  145DOPC   C2417220   4.273   5.679  15.853  1.0620 -0.2545  0.2004
  145DOPC   H4R17221   4.307   5.781  15.824 -1.0030  0.0607 -1.3618
  145DOPC   H4S17222   4.164   5.673  15.836  0.6757  5.2293 -1.1789
  145DOPC   C2517223   4.332   5.567  15.768  0.0919  0.2253 -0.3924
  145DOPC   H5R17224   4.272   5.489  15.819 -1.3471  0.7641 -1.1881
  145DOPC   H5S17225   4.440   5.569  15.792  0.2705 -1.1103 -1.0509
  145DOPC   C2617226   4.313   5.571  15.613 -0.2222  0.4932 -0.6497
  145DOPC   H6R17227   4.208   5.594  15.583 -0.7188  2.7401  2.3957
  145DOPC   H6S17228   4.333   5.468  15.577 -0.1493  1.2351 -2.8865
  145DOPC   C2717229   4.400   5.677  15.546 -0.4257  0.0630  0.8745
  145DOPC   H7R17230   4.503   5.665  15.583 -0.2473 -1.9294 -0.1467
  145DOPC   H7S17231   4.348   5.773  15.570 -1.7502 -0.6991  1.1916
  145DOPC   C2817232   4.429   5.653  15.395 -0.7201  0.1455 -0.6233
  145DOPC   H8R17233   4.499   5.732  15.360  0.2586 -0.5006 -0.1624
  145DOPC   H8S17234   4.335   5.673  15.338 -1.8946 -1.8798  0.5060
  145DOPC   C2917235   4.493   5.516  15.356 -0.1000 -0.3525  0.5049
  145DOPC   H9R17236   4.538   5.460  15.439 -0.8896 -0.9014  0.5760
  145DOPC  C21017237   4.494   5.451  15.232 -0.9092  0.4652 -0.1771
  145DOPC  H10R17238   4.554   5.359  15.226 -1.4975  0.1663 -2.1218
  145DOPC  C21117239   4.434   5.507  15.103  0.3575 -0.2193  0.1880
  145DOPC  H11R17240   4.508   5.493  15.021  0.9018 -0.6150  0.7357
  145DOPC  H11S17241   4.399   5.612  15.098 -1.5149 -0.8712 -1.6450
  145DOPC  C21217242   4.308   5.425  15.057  0.3704  0.2459 -0.0148
  145DOPC  H12R17243   4.264   5.470  14.966 -0.1271 -0.0710  0.0703
  145DOPC  H12S17244   4.230   5.422  15.136  0.3667  0.0186 -0.0263
  145DOPC  C21317245   4.355   5.277  15.025  0.6855 -0.7611 -0.8681
  145DOPC  H13R17246   4.396   5.222  15.112  1.2344  0.8931 -0.0542
  145DOPC  H13S17247   4.427   5.278  14.940  2.0389  0.7980  0.2294
  145DOPC  C21417248   4.236   5.198  14.978 -0.1079 -0.0677 -0.2328
  145DOPC  H14R17249   4.270   5.094  14.959  1.3960  0.3388  0.1025
  145DOPC  H14S17250   4.205   5.248  14.883 -1.8356  0.1864  0.4353
  145DOPC  C21517251   4.118   5.208  15.081 -0.0433 -0.5496  0.9706
  145DOPC  H15R17252   4.054   5.290  15.041  3.6113  2.6361  1.0477
  145DOPC  H15S17253   4.157   5.230  15.183  2.1176 -0.8325  0.2710
  145DOPC  C21617254   4.042   5.074  15.088 -0.0560 -0.3472  0.2348
  145DOPC  H16R17255   4.101   5.002  15.149 -0.8275 -0.7866  0.4718
  145DOPC  H16S17256   4.035   5.036  14.984  0.7467  0.7077 -0.2250
  145DOPC  C21717257   3.902   5.098  15.151  0.3470 -0.0325 -0.1024
  145DOPC  H17R17258   3.929   5.152  15.244  1.4409  1.8330 -1.4306
  145DOPC  H17S17259   3.847   5.004  15.172  1.1529 -0.6890 -0.8702
  145DOPC  C21817260   3.810   5.183  15.068  0.2052 -0.3904  0.1497
  145DOPC  H18R17261   3.706   5.181  15.106  0.4358 -1.7714  0.7765
  145DOPC  H18S17262   3.796   5.147  14.964  0.3400  0.3445 -0.1280
  145DOPC  H18T17263   3.828   5.292  15.055 -1.4773 -0.3595 -2.6841
  145DOPC   C3317264   3.852   5.544  16.519  0.2953  0.5078 -0.1780
  145DOPC   H3X17265   3.817   5.600  16.608  1.4034  1.3187 -0.2428
  145DOPC   H3Y17266   3.893   5.444  16.547 -2.7505 -0.1831  2.4082
  145DOPC   C3417267   3.721   5.509  16.446  0.3355 -0.1236 -0.5128
  145DOPC   H4X17268   3.663   5.602  16.425 -2.3860 -1.7692 -0.7191
  145DOPC   H4Y17269   3.653   5.451  16.512 -1.0922  1.0152 -0.9354
  145DOPC   C3517270   3.739   5.426  16.314 -0.4289 -0.1907  0.2447
  145DOPC   H5X17271   3.760   5.321  16.344  0.4214 -0.2991 -0.6660
  145DOPC   H5Y17272   3.825   5.469  16.260  1.6817 -0.5110  3.1329
  145DOPC   C3617273   3.617   5.423  16.214 -0.4841  0.4720 -0.0439
  145DOPC   H6X17274   3.521   5.412  16.270 -0.8495 -0.3131 -0.7978
  145DOPC   H6Y17275   3.608   5.523  16.165 -0.0178  1.2275  1.3632
  145DOPC   C3717276   3.631   5.315  16.101 -0.0191 -0.1060 -0.0879
  145DOPC   H7X17277   3.741   5.304  16.091 -0.0028 -0.6629  0.6846
  145DOPC   H7Y17278   3.596   5.220  16.145  0.3555 -0.0508  0.3407
  145DOPC   C3817279   3.539   5.340  15.981  0.3536  0.6933  1.1273
  145DOPC   H8X17280   3.579   5.433  15.935  1.0790  0.6685  1.6849
  145DOPC   H8Y17281   3.436   5.358  16.018 -0.8114 -0.3951 -1.3474
  145DOPC   C3917282   3.541   5.215  15.884  0.0509  0.4981  0.8120
  145DOPC   H9X17283   3.520   5.121  15.936  0.8644  0.7774  1.6575
  145DOPC  C31017284   3.558   5.211  15.752  0.1178 -0.1359  0.0232
  145DOPC  H10X17285   3.551   5.120  15.690 -0.4898 -1.0922  1.4268
  145DOPC  C31117286   3.583   5.327  15.656  0.0158  0.2956  0.1627
  145DOPC  H11X17287   3.599   5.415  15.722 -0.2522  0.7489 -0.3796
  145DOPC  H11Y17288   3.499   5.359  15.592 -0.5943 -2.3590 -0.5103
  145DOPC  C31217289   3.714   5.315  15.571 -0.1129 -0.4095  0.7485
  145DOPC  H12X17290   3.713   5.408  15.510 -1.1589  0.3445  1.8737
  145DOPC  H12Y17291   3.710   5.230  15.499 -0.7454  0.2211  0.0170
  145DOPC  C31317292   3.849   5.298  15.640  1.0316 -0.7636  0.3969
  145DOPC  H13X17293   3.875   5.384  15.706 -1.2275  0.1206  0.2215
  145DOPC  H13Y17294   3.836   5.212  15.709 -3.1801 -0.6861 -0.0120
  145DOPC  C31417295   3.967   5.265  15.552  0.4988  0.4436 -0.5473
  145DOPC  H14X17296   3.938   5.183  15.484 -0.9557  0.2693  0.2416
  145DOPC  H14Y17297   4.003   5.351  15.491  0.9536  0.1368 -0.7215
  145DOPC  C31517298   4.086   5.213  15.633 -0.3031  0.0540  0.2754
  145DOPC  H15X17299   4.038   5.129  15.688 -2.0570  2.2570  2.3782
  145DOPC  H15Y17300   4.109   5.301  15.697  0.5744  0.2181 -0.2543
  145DOPC  C31617301   4.205   5.173  15.542 -0.5585  0.2920 -0.3163
  145DOPC  H16X17302   4.267   5.258  15.504  0.1086  1.0907  2.3263
  145DOPC  H16Y17303   4.282   5.123  15.605 -1.3653  1.1852  1.4312
  145DOPC  C31717304   4.176   5.059  15.444 -0.4886  0.6908  0.2690
  145DOPC  H17X17305   4.101   5.085  15.367  1.3258  2.6900 -0.9432
  145DOPC  H17Y17306   4.271   5.050  15.386 -0.4545  0.8724  0.2970
  145DOPC  C31817307   4.139   4.926  15.518  0.6612  0.2962 -0.1683
  145DOPC  H18X17308   4.201   4.920  15.610  0.5713 -0.2471 -0.1422
  145DOPC  H18Y17309   4.033   4.929  15.551  1.0771 -2.2850  1.7377
  145DOPC  H18Z17310   4.166   4.834  15.461 -1.4647  0.6281 -1.8242
  146DOPC     N17311   5.620   2.947  17.153 -0.1352  0.2973  0.4877
  146DOPC   C1217312   5.501   2.905  17.065 -0.0941 -0.1836  0.8073
  146DOPC  H12A17313   5.406   2.891  17.114 -1.8544 -0.2070 -2.3308
  146DOPC  H12B17314   5.527   2.812  17.016 -2.0343  0.2541 -1.2188
  146DOPC   C1317315   5.624   2.841  17.263  0.2793  1.0252 -0.3586
  146DOPC  H13A17316   5.722   2.836  17.308  0.0723  1.9621  0.2105
  146DOPC  H13B17317   5.558   2.861  17.347  0.1563  0.0877 -0.2220
  146DOPC  H13C17318   5.605   2.744  17.220  1.5806  1.3179 -1.6677
  146DOPC   C1417319   5.594   3.078  17.221 -0.5959 -0.2654  0.0622
  146DOPC  H14A17320   5.641   3.088  17.318  0.0012 -0.6616 -0.1787
  146DOPC  H14B17321   5.612   3.164  17.159  2.2008 -0.9647 -0.2494
  146DOPC  H14C17322   5.490   3.090  17.245 -0.4525  2.5836 -0.4109
  146DOPC   C1517323   5.749   2.942  17.079 -0.1003 -0.2516  0.4255
  146DOPC  H15A17324   5.756   3.035  17.025 -2.2268 -1.3692 -1.9815
  146DOPC  H15B17325   5.761   2.860  17.010  0.9681 -0.6889  1.1053
  146DOPC  H15C17326   5.834   2.931  17.146  1.2380  0.5239 -1.0716
  146DOPC   C1117327   5.462   2.999  16.941  0.1402  0.3372 -1.3587
  146DOPC  H11A17328   5.379   2.945  16.889  0.7705 -0.0365 -1.9871
  146DOPC  H11B17329   5.427   3.092  16.991 -0.1616 -0.7166  0.4724
  146DOPC     P17330   5.590   3.161  16.785 -0.4091  0.0508 -0.1158
  146DOPC   O1317331   5.699   3.232  16.865  0.6040  0.3063 -0.1178
  146DOPC   O1417332   5.460   3.230  16.763  0.5071 -0.0201 -0.4965
  146DOPC   O1217333   5.563   3.022  16.844  0.1998 -0.2902  0.2669
  146DOPC   O1117334   5.652   3.143  16.636  0.4309 -0.3106 -0.2306
  146DOPC    C117335   5.697   3.015  16.598  0.7467 -0.4466  0.2223
  146DOPC    HA17336   5.665   2.927  16.658  4.5469 -2.9604 -1.0719
  146DOPC    HB17337   5.808   3.020  16.596  0.6891  1.4793 -1.9450
  146DOPC    C217338   5.645   2.976  16.455  0.0883 -0.7936 -0.8760
  146DOPC    HS17339   5.538   3.008  16.457  0.3923  0.2633 -1.0565
  146DOPC   O2117340   5.664   2.832  16.439 -0.5924  0.0199 -0.5903
  146DOPC   C2117341   5.561   2.771  16.380  0.1255 -0.0494 -0.1448
  146DOPC   O2217342   5.461   2.831  16.336  0.1484  0.8266 -0.1956
  146DOPC   C2217343   5.591   2.617  16.358 -0.2645  0.2183  0.4608
  146DOPC   H2R17344   5.513   2.574  16.423 -0.7434  0.8484  0.3154
  146DOPC   H2S17345   5.698   2.599  16.383  0.5225  2.7190 -0.6650
  146DOPC    C317346   5.717   3.061  16.338 -0.3015  0.5119  0.7123
  146DOPC    HX17347   5.821   3.020  16.337 -0.8919 -1.0542 -0.4782
  146DOPC    HY17348   5.715   3.171  16.354  0.2667  1.3250 -3.6945
  146DOPC   O3117349   5.659   3.024  16.211  0.2158 -0.2611 -0.1273
  146DOPC   C3117350   5.582   3.124  16.155  0.7361 -0.1933 -0.0142
  146DOPC   O3217351   5.560   3.232  16.203 -0.1434 -0.1970  0.0596
  146DOPC   C3217352   5.532   3.078  16.019  0.4838  0.6457 -0.0747
  146DOPC   H2X17353   5.623   3.081  15.955 -0.7893  0.0192 -2.0172
  146DOPC   H2Y17354   5.486   2.978  16.033 -0.9255  1.4525  1.3620
  146DOPC   C2317355   5.549   2.579  16.216  0.3027 -0.2787 -0.3754
  146DOPC   H3R17356   5.440   2.595  16.201  0.1941 -0.7067 -0.0588
  146DOPC   H3S17357   5.561   2.470  16.201 -0.0053 -0.6468  1.8058
  146DOPC   C2417358   5.619   2.652  16.101  0.4909 -0.3373 -0.9776
  146DOPC   H4R17359   5.709   2.589  16.081  0.2927 -1.4523  1.2532
  146DOPC   H4S17360   5.669   2.745  16.136  1.3259 -1.9677  2.6212
  146DOPC   C2517361   5.526   2.680  15.985 -0.0928  0.4650 -0.2812
  146DOPC   H5R17362   5.446   2.750  16.017 -0.8873 -0.4500 -0.2150
  146DOPC   H5S17363   5.485   2.582  15.952  0.7415 -0.0805  0.2492
  146DOPC   C2617364   5.597   2.723  15.853  0.2497  0.5004 -0.5502
  146DOPC   H6R17365   5.682   2.652  15.841 -0.9935 -0.8229 -2.0271
  146DOPC   H6S17366   5.635   2.824  15.876 -0.0046  0.6269 -0.6757
  146DOPC   C2717367   5.520   2.737  15.725 -0.3946 -0.1365  0.2039
  146DOPC   H7R17368   5.458   2.829  15.731  1.7672  1.4099  0.1312
  146DOPC   H7S17369   5.457   2.646  15.714 -2.7765  1.6565 -2.4634
  146DOPC   C2817370   5.613   2.753  15.608 -0.7092  0.2042  0.3696
  146DOPC   H8R17371   5.548   2.739  15.518  1.7723 -1.6107 -1.2543
  146DOPC   H8S17372   5.692   2.676  15.605 -1.5293 -0.6255 -0.9081
  146DOPC   C2917373   5.691   2.883  15.594  0.1203  0.4895  0.1524
  146DOPC   H9R17374   5.749   2.912  15.683  0.1430  2.3795 -0.4342
  146DOPC  C21017375   5.675   2.972  15.493 -0.8431 -0.4349  0.0286
  146DOPC  H10R17376   5.737   3.062  15.498 -0.1093 -0.9291  0.0290
  146DOPC  C21117377   5.575   2.953  15.377 -0.5128 -0.4167 -1.1079
  146DOPC  H11R17378   5.563   3.050  15.324 -0.5833 -1.0064 -2.2066
  146DOPC  H11S17379   5.477   2.915  15.414 -0.2082 -1.3525 -1.2145
  146DOPC  C21217380   5.615   2.851  15.268  0.7439 -0.6430  0.0628
  146DOPC  H12R17381   5.618   2.757  15.327  1.8179 -0.9985 -0.5279
  146DOPC  H12S17382   5.715   2.873  15.224  0.5857  1.7954  0.7950
  146DOPC  C21317383   5.517   2.857  15.144 -0.4467  0.0514 -0.7850
  146DOPC  H13R17384   5.519   2.945  15.076 -1.5351 -1.2843 -2.6607
  146DOPC  H13S17385   5.414   2.842  15.184 -0.2694 -0.5196 -0.5398
  146DOPC  C21417386   5.524   2.725  15.056 -0.0699  0.7623  0.2472
  146DOPC  H14R17387   5.532   2.641  15.128  0.8438  1.0012  0.4520
  146DOPC  H14S17388   5.625   2.717  15.009  0.7461 -0.8442  2.1524
  146DOPC  C21517389   5.422   2.706  14.943  0.0053  0.8915  0.2437
  146DOPC  H15R17390   5.441   2.759  14.847 -1.6331 -2.4738 -2.1667
  146DOPC  H15S17391   5.318   2.732  14.973 -0.0691  2.2548 -1.0821
  146DOPC  C21617392   5.424   2.553  14.900 -0.1549  0.5544  0.1092
  146DOPC  H16R17393   5.388   2.495  14.988 -2.1959 -1.4202 -1.8758
  146DOPC  H16S17394   5.528   2.522  14.876 -0.0077  0.7171  0.5373
  146DOPC  C21717395   5.336   2.524  14.785  0.0903 -0.4828  0.8194
  146DOPC  H17R17396   5.363   2.587  14.697  0.0122  2.5852  2.8171
  146DOPC  H17S17397   5.241   2.575  14.811  0.7217  0.5868  1.1018
  146DOPC  C21817398   5.312   2.375  14.749  0.7001 -0.3638 -0.2519
  146DOPC  H18R17399   5.358   2.345  14.653  3.0358 -1.2869  1.0676
  146DOPC  H18S17400   5.206   2.343  14.759  0.7397 -0.9978 -1.6420
  146DOPC  H18T17401   5.366   2.315  14.825  2.9735 -0.2523 -1.6847
  146DOPC   C3317402   5.428   3.173  15.957 -0.0765 -0.2713  0.8042
  146DOPC   H3X17403   5.478   3.268  15.928  0.8468 -0.9682  0.0466
  146DOPC   H3Y17404   5.356   3.199  16.037 -0.1956  3.3863 -0.3123
  146DOPC   C3417405   5.355   3.119  15.836 -0.2885  0.2772 -0.2379
  146DOPC   H4X17406   5.283   3.041  15.871 -1.3120  1.8133  1.2084
  146DOPC   H4Y17407   5.427   3.066  15.770  2.8734  0.3531  2.8532
  146DOPC   C3517408   5.281   3.220  15.755  0.0307 -0.5650 -0.0090
  146DOPC   H5X17409   5.330   3.320  15.759  0.6908 -0.9230  1.5898
  146DOPC   H5Y17410   5.182   3.237  15.803  0.1037 -1.5765  0.5236
  146DOPC   C3617411   5.251   3.167  15.616  0.0535 -0.6441  0.1188
  146DOPC   H6X17412   5.348   3.162  15.561 -0.3251  1.1090 -0.7896
  146DOPC   H6Y17413   5.220   3.061  15.616  0.2669 -0.7522 -2.0668
  146DOPC   C3717414   5.140   3.256  15.551 -0.4279 -0.6648  0.5236
  146DOPC   H7X17415   5.053   3.247  15.620  0.4251  0.1372  1.7587
  146DOPC   H7Y17416   5.158   3.366  15.556 -2.5793 -0.2312 -0.0229
  146DOPC   C3817417   5.089   3.218  15.415 -0.1297  0.0883  0.4625
  146DOPC   H8X17418   4.999   3.280  15.390  0.1277  0.3680  0.2193
  146DOPC   H8Y17419   5.047   3.115  15.417  0.1283 -0.0267  0.0673
  146DOPC   C3917420   5.190   3.233  15.307 -0.1158 -0.0071  0.8762
  146DOPC   H9X17421   5.252   3.320  15.332  0.5124 -0.4801  0.9662
  146DOPC  C31017422   5.221   3.168  15.192 -0.4825  0.2529 -0.7340
  146DOPC  H10X17423   5.316   3.199  15.145  0.2355  0.3678  0.7567
  146DOPC  C31117424   5.151   3.052  15.125  0.1774 -0.2290 -0.7351
  146DOPC  H11X17425   5.087   3.000  15.199  0.3988  1.9717  1.1231
  146DOPC  H11Y17426   5.228   2.973  15.117  1.2090  0.7108 -0.2600
  146DOPC  C31217427   5.081   3.082  14.997 -0.6092 -0.1311  0.5635
  146DOPC  H12X17428   5.001   3.006  14.983 -1.6380  0.4523  2.8956
  146DOPC  H12Y17429   5.162   3.069  14.922 -0.9218 -0.7325  0.3248
  146DOPC  C31317430   5.023   3.225  14.971  0.2124  0.1580  0.3506
  146DOPC  H13X17431   4.956   3.242  15.058 -1.1529 -2.9540  0.0106
  146DOPC  H13Y17432   5.113   3.290  14.975  0.4459 -0.0685 -0.8891
  146DOPC  C31417433   4.936   3.241  14.845  0.4621  0.7490  0.4237
  146DOPC  H14X17434   4.996   3.211  14.756 -0.6156  1.1182 -0.4369
  146DOPC  H14Y17435   4.856   3.165  14.840 -1.0204  2.3126 -0.4014
  146DOPC  C31517436   4.872   3.375  14.817  0.7282 -0.3778 -0.2853
  146DOPC  H15X17437   4.953   3.451  14.824 -0.1635  0.6754 -0.9973
  146DOPC  H15Y17438   4.796   3.392  14.896  1.8561 -0.9511  0.9547
  146DOPC  C31617439   4.811   3.394  14.671 -0.4671  0.7312 -0.4748
  146DOPC  H16X17440   4.895   3.424  14.605  1.2618  1.3425  1.8699
  146DOPC  H16Y17441   4.751   3.310  14.630 -2.4825  2.3236 -0.8980
  146DOPC  C31717442   4.715   3.519  14.659 -0.1064  0.4932  0.1465
  146DOPC  H17X17443   4.636   3.505  14.737 -0.3718  0.4865 -0.1215
  146DOPC  H17Y17444   4.771   3.612  14.683  2.0487  0.2131 -3.1903
  146DOPC  C31817445   4.656   3.532  14.519  0.1546 -0.8820 -0.5419
  146DOPC  H18X17446   4.734   3.507  14.443 -1.0761 -1.3465 -1.7051
  146DOPC  H18Y17447   4.579   3.453  14.499 -2.3871  1.1288  0.7454
  146DOPC  H18Z17448   4.632   3.637  14.493  3.3347  0.4712  1.5142
  147DOPC     N17449   1.701   3.561  17.138 -0.2359  0.4819 -0.2439
  147DOPC   C1217450   1.673   3.530  16.990 -0.3536 -0.8915 -0.0852
  147DOPC  H12A17451   1.672   3.623  16.935  1.1331 -1.8684 -1.9153
  147DOPC  H12B17452   1.577   3.482  16.981 -0.2552 -1.1947  0.4628
  147DOPC   C1317453   1.583   3.637  17.206 -0.2997  0.4460 -0.2975
  147DOPC  H13A17454   1.488   3.595  17.179 -0.6209  0.8885  0.1270
  147DOPC  H13B17455   1.584   3.621  17.313  2.3309 -1.9307 -0.5614
  147DOPC  H13C17456   1.579   3.739  17.172  0.4992  0.2494 -1.0068
  147DOPC   C1417457   1.827   3.638  17.161 -0.2141  0.3391 -0.0838
  147DOPC  H14A17458   1.907   3.569  17.141 -0.0221  1.3264 -3.4008
  147DOPC  H14B17459   1.845   3.724  17.098  0.8513 -0.2314 -0.5809
  147DOPC  H14C17460   1.837   3.665  17.265 -2.0249  0.9063 -0.0298
  147DOPC   C1517461   1.709   3.428  17.211 -0.3552 -0.1908  0.4877
  147DOPC  H15A17462   1.799   3.373  17.186 -1.7424 -1.4787 -2.1167
  147DOPC  H15B17463   1.630   3.365  17.171 -1.8923  2.6568 -1.2640
  147DOPC  H15C17464   1.700   3.437  17.318 -0.3637  0.2061  0.4511
  147DOPC   C1117465   1.781   3.447  16.916  0.0149  0.9632  0.2996
  147DOPC  H11A17466   1.804   3.361  16.982  0.4443 -1.0290 -2.2641
  147DOPC  H11B17467   1.730   3.405  16.826  0.9468  1.6644 -0.5800
  147DOPC     P17468   2.036   3.467  16.860  0.3505  0.3630  0.2973
  147DOPC   O1317469   2.104   3.417  16.985 -0.1419 -0.4751  0.1231
  147DOPC   O1417470   2.104   3.563  16.774 -0.2128 -0.3634  0.0482
  147DOPC   O1217471   1.894   3.531  16.889  0.1325  0.2751 -0.1716
  147DOPC   O1117472   1.996   3.337  16.774 -0.0990 -1.1127 -0.0695
  147DOPC    C117473   1.946   3.348  16.639  0.8343  0.4215 -0.2514
  147DOPC    HA17474   2.028   3.349  16.563  1.3344  2.6428  0.2422
  147DOPC    HB17475   1.883   3.438  16.628  0.9317  0.4974 -0.1875
  147DOPC    C217476   1.843   3.232  16.615 -1.2472  1.3021  0.0537
  147DOPC    HS17477   1.771   3.236  16.700  0.0101 -0.3927  1.2757
  147DOPC   O2117478   1.925   3.109  16.618  0.2561  0.2814 -0.1070
  147DOPC   C2117479   1.848   3.004  16.642 -0.4397  0.4936 -0.3431
  147DOPC   O2217480   1.726   3.005  16.645  0.1575 -0.6120 -0.2799
  147DOPC   C2217481   1.931   2.877  16.661  0.0560 -0.5745  0.3015
  147DOPC   H2R17482   1.899   2.832  16.757 -0.7617  1.6693  1.1276
  147DOPC   H2S17483   2.037   2.904  16.681 -0.4211  0.9851  0.7859
  147DOPC    C317484   1.776   3.252  16.477 -0.6826 -0.0063 -0.3946
  147DOPC    HX17485   1.729   3.352  16.493  0.2783 -0.0281  3.9056
  147DOPC    HY17486   1.705   3.169  16.462  1.0162 -1.3840 -1.1766
  147DOPC   O3117487   1.868   3.269  16.364  0.0415  0.2383  0.7057
  147DOPC   C3117488   1.865   3.181  16.264  1.0205  0.3789  0.1516
  147DOPC   O3217489   1.774   3.094  16.262  0.2229 -0.0496  0.1352
  147DOPC   C3217490   1.982   3.184  16.161  0.0448 -0.4384 -0.7030
  147DOPC   H2X17491   1.993   3.291  16.135  0.1159 -0.2353  0.1279
  147DOPC   H2Y17492   2.071   3.134  16.206 -0.3772 -0.0647  0.5845
  147DOPC   C2317493   1.915   2.779  16.544  1.0868  0.0140 -0.1601
  147DOPC   H3R17494   1.811   2.762  16.508  0.9768 -1.4306  0.7541
  147DOPC   H3S17495   1.953   2.683  16.585 -0.3523 -0.4217  0.2338
  147DOPC   C2417496   2.005   2.812  16.417  0.7850 -0.5129 -0.0990
  147DOPC   H4R17497   2.108   2.774  16.436  1.1445  0.9307  0.9874
  147DOPC   H4S17498   2.007   2.922  16.408 -2.9125 -0.0529  2.3928
  147DOPC   C2517499   1.948   2.751  16.285  0.2552  0.0394  0.3613
  147DOPC   H5R17500   1.863   2.821  16.270 -0.9234 -1.5325 -0.5420
  147DOPC   H5S17501   1.923   2.644  16.295  1.7067 -0.5395 -1.4475
  147DOPC   C2617502   2.046   2.763  16.162 -0.3456 -0.2129  1.5580
  147DOPC   H6R17503   2.127   2.690  16.180  0.1770  0.0566  0.3908
  147DOPC   H6S17504   2.087   2.866  16.149 -0.0259 -0.2760  2.0556
  147DOPC   C2717505   1.972   2.734  16.030 -0.9665  0.3445  0.1013
  147DOPC   H7R17506   1.898   2.816  16.017  0.1752  1.4413  0.3389
  147DOPC   H7S17507   1.921   2.636  16.043  0.4600 -0.4154  0.1634
  147DOPC   C2817508   2.057   2.727  15.900  0.5060 -0.3294 -0.4797
  147DOPC   H8R17509   2.111   2.630  15.909 -0.6592 -0.9651 -0.1729
  147DOPC   H8S17510   2.135   2.805  15.907  1.5527 -1.3703 -0.1224
  147DOPC   C2917511   1.989   2.751  15.767 -0.2199  0.7460 -0.1941
  147DOPC   H9R17512   1.882   2.725  15.757  0.0510 -0.5062 -0.0397
  147DOPC  C21017513   2.049   2.800  15.658  0.1337  0.4628  0.0911
  147DOPC  H10R17514   1.984   2.838  15.578  0.4406 -1.3558 -1.0943
  147DOPC  C21117515   2.191   2.843  15.650 -0.9990  0.3184  0.3824
  147DOPC  H11R17516   2.253   2.806  15.734 -0.4499 -1.4998 -0.7490
  147DOPC  H11S17517   2.198   2.953  15.656 -0.3635  0.2392  1.4333
  147DOPC  C21217518   2.249   2.787  15.513 -0.3749 -0.2846 -0.2771
  147DOPC  H12R17519   2.350   2.829  15.493 -0.3332 -0.7819 -1.1894
  147DOPC  H12S17520   2.191   2.828  15.427  3.7112  2.1364 -2.1722
  147DOPC  C21317521   2.255   2.635  15.513  0.0753 -0.0826  0.5604
  147DOPC  H13R17522   2.304   2.596  15.421 -0.2953  1.3452 -0.2613
  147DOPC  H13S17523   2.147   2.611  15.507 -0.0083  0.6115 -1.8818
  147DOPC  C21417524   2.302   2.549  15.632 -0.2510 -0.0238  0.2963
  147DOPC  H14R17525   2.222   2.512  15.699  0.5218  0.0899  1.2895
  147DOPC  H14S17526   2.365   2.614  15.696 -0.0761  0.2953 -0.1951
  147DOPC  C21517527   2.384   2.425  15.600  0.3053  0.1435 -0.1881
  147DOPC  H15R17528   2.329   2.357  15.532 -0.2159 -0.4948  0.8411
  147DOPC  H15S17529   2.404   2.367  15.693  0.4413  0.4968  0.0053
  147DOPC  C21617530   2.513   2.458  15.524  0.0165 -0.6891 -0.8211
  147DOPC  H16R17531   2.575   2.525  15.589  0.2098  0.1079 -1.8034
  147DOPC  H16S17532   2.500   2.516  15.430  1.0966 -0.3545 -0.7850
  147DOPC  C21717533   2.605   2.340  15.490 -0.1135 -0.5666  0.6915
  147DOPC  H17R17534   2.631   2.280  15.580  0.4918 -0.4344  0.6042
  147DOPC  H17S17535   2.695   2.386  15.445 -0.9152  0.3534 -0.0014
  147DOPC  C21817536   2.537   2.254  15.373 -0.4930 -0.9675 -0.2820
  147DOPC  H18R17537   2.521   2.317  15.283  0.3637 -1.9664 -1.1804
  147DOPC  H18S17538   2.442   2.205  15.404 -2.4030  1.5903 -1.7075
  147DOPC  H18T17539   2.614   2.178  15.345 -1.6192 -2.7040  1.0991
  147DOPC   C3317540   1.944   3.094  16.039  0.1013 -0.5263  0.0452
  147DOPC   H3X17541   1.919   2.991  16.074 -2.2838  0.1469  0.5019
  147DOPC   H3Y17542   2.030   3.089  15.969  0.3337 -0.5618  0.3304
  147DOPC   C3417543   1.836   3.152  15.948 -0.0510 -0.6528  0.2172
  147DOPC   H4X17544   1.873   3.240  15.891 -0.2317 -0.0248  1.0601
  147DOPC   H4Y17545   1.746   3.179  16.007 -1.8415 -2.1058 -1.6798
  147DOPC   C3517546   1.797   3.054  15.841  0.7839 -0.2220  0.4467
  147DOPC   H5X17547   1.754   2.963  15.887  0.9317 -1.5191 -1.8795
  147DOPC   H5Y17548   1.883   3.029  15.776 -0.0769 -2.9033  0.2376
  147DOPC   C3617549   1.684   3.103  15.744 -0.5860 -0.7161 -0.6485
  147DOPC   H6X17550   1.596   3.131  15.805  0.0494 -0.7833  0.3234
  147DOPC   H6Y17551   1.734   3.193  15.703 -1.4295 -0.7764 -1.8633
  147DOPC   C3717552   1.643   3.002  15.635  0.0552 -0.4445 -0.4897
  147DOPC   H7X17553   1.731   2.978  15.571 -0.6603  0.9103 -2.0167
  147DOPC   H7Y17554   1.599   2.911  15.681 -1.5021  0.6192  0.1919
  147DOPC   C3817555   1.541   3.064  15.537  0.6864 -0.3414  0.0571
  147DOPC   H8X17556   1.545   3.011  15.440  1.2215 -2.3733  1.1426
  147DOPC   H8Y17557   1.580   3.167  15.522  1.1072 -0.2364  1.6666
  147DOPC   C3917558   1.394   3.068  15.586 -0.1257 -0.4168  0.4582
  147DOPC   H9X17559   1.383   3.108  15.688  0.0911  3.8209 -0.9815
  147DOPC  C31017560   1.285   3.015  15.525 -0.4116  0.0090 -0.0756
  147DOPC  H10X17561   1.182   3.022  15.563 -0.4009 -0.2638  0.0021
  147DOPC  C31117562   1.289   2.937  15.392 -0.6423 -0.1535 -0.0146
  147DOPC  H11X17563   1.380   2.873  15.391 -0.4277  0.1563 -0.6609
  147DOPC  H11Y17564   1.308   3.010  15.311  1.4167 -0.8994 -0.2794
  147DOPC  C31217565   1.180   2.837  15.343  0.3478 -0.9198 -0.7133
  147DOPC  H12X17566   1.093   2.894  15.305  0.2257 -0.3599  0.3713
  147DOPC  H12Y17567   1.139   2.776  15.427 -0.3508  0.0752 -0.3137
  147DOPC  C31317568   1.227   2.764  15.220  0.2820  0.1578 -0.1955
  147DOPC  H13X17569   1.244   2.831  15.133 -3.4876 -1.6733 -2.6061
  147DOPC  H13Y17570   1.322   2.709  15.241  0.6484  1.1320  0.7873
  147DOPC  C31417571   1.113   2.668  15.173  0.4401  0.2230  0.0514
  147DOPC  H14X17572   1.017   2.719  15.148  0.6851  0.6556 -0.0198
  147DOPC  H14Y17573   1.142   2.635  15.071 -0.9842 -1.0298  0.0077
  147DOPC  C31517574   1.073   2.541  15.263 -0.7390 -0.3574 -0.1597
  147DOPC  H15X17575   1.047   2.570  15.366  1.1278 -2.3531  0.9533
  147DOPC  H15Y17576   1.161   2.474  15.274 -0.1331  0.5674  0.7963
  147DOPC  C31617577   0.959   2.461  15.200  0.8889 -0.4334 -0.1308
  147DOPC  H16X17578   0.875   2.533  15.187  1.3615 -0.0529 -1.2060
  147DOPC  H16Y17579   0.978   2.429  15.095 -1.7010 -0.8354 -0.5394
  147DOPC  C31717580   0.914   2.350  15.300  0.5483  0.4777 -0.0233
  147DOPC  H17X17581   0.890   2.395  15.399  0.5567 -0.5852  0.4840
  147DOPC  H17Y17582   0.825   2.295  15.263  0.9584 -0.5499  0.4834
  147DOPC  C31817583   1.017   2.243  15.316  0.7110  1.2030  0.4507
  147DOPC  H18X17584   0.967   2.157  15.366 -0.3527  1.9503  0.7034
  147DOPC  H18Y17585   1.067   2.214  15.221 -2.5699 -0.2251 -0.9962
  147DOPC  H18Z17586   1.092   2.266  15.394  0.2139 -2.0640  2.0618
  148DOPC     N17587   3.041   5.157  17.193  0.7520  0.6731  0.0062
  148DOPC   C1217588   3.114   5.270  17.265 -0.6885  0.4505  0.0820
  148DOPC  H12A17589   3.215   5.277  17.228 -0.7633  0.5348 -0.1051
  148DOPC  H12B17590   3.116   5.232  17.366  1.7615 -2.1990 -0.8300
  148DOPC   C1317591   3.110   5.033  17.223 -0.5823  0.4478 -1.3135
  148DOPC  H13A17592   3.202   5.024  17.168  0.7847 -1.0956  1.0757
  148DOPC  H13B17593   3.125   5.026  17.330 -0.0561  0.3183 -1.3995
  148DOPC  H13C17594   3.044   4.951  17.197 -0.7337 -0.2539  1.0441
  148DOPC   C1417595   3.054   5.175  17.043 -0.2934 -0.4875 -0.0175
  148DOPC  H14A17596   3.033   5.279  17.024  0.7389 -0.0706  1.0367
  148DOPC  H14B17597   3.149   5.153  16.996 -1.1531 -1.7371 -1.2582
  148DOPC  H14C17598   2.976   5.128  16.984 -1.5456  2.7083 -1.1020
  148DOPC   C1517599   2.898   5.157  17.232  0.1607 -0.5458  0.3000
  148DOPC  H15A17600   2.851   5.079  17.174 -0.1279 -0.2313  0.1021
  148DOPC  H15B17601   2.853   5.253  17.212  3.6156  1.2238  0.3860
  148DOPC  H15C17602   2.885   5.131  17.336  0.5753  0.2597  0.5542
  148DOPC   C1117603   3.055   5.409  17.262 -0.7469 -0.9721  0.1290
  148DOPC  H11A17604   2.959   5.403  17.318 -0.0336  1.4313  1.7538
  148DOPC  H11B17605   3.115   5.479  17.323 -1.6360  1.1356 -1.3024
  148DOPC     P17606   2.975   5.603  17.120 -0.2753 -0.3249  0.1000
  148DOPC   O1317607   3.079   5.708  17.092  0.1278 -0.7173 -0.0046
  148DOPC   O1417608   2.884   5.636  17.232  0.1919 -0.3027  0.4558
  148DOPC   O1217609   3.032   5.463  17.133 -0.1986  0.9608 -0.1617
  148DOPC   O1117610   2.890   5.578  16.994 -0.4091  0.2767 -0.3383
  148DOPC    C117611   2.787   5.475  16.997  0.2107 -0.6199 -0.0604
  148DOPC    HA17612   2.714   5.483  17.080  0.8984 -1.5038  0.6476
  148DOPC    HB17613   2.833   5.374  17.008 -0.0640 -0.6158  1.2829
  148DOPC    C217614   2.706   5.492  16.873 -0.1222 -0.2697  0.3944
  148DOPC    HS17615   2.623   5.418  16.873  1.6752 -2.4985  3.5026
  148DOPC   O2117616   2.787   5.487  16.755 -0.1789 -0.0932  0.4592
  148DOPC   C2117617   2.826   5.360  16.729  0.3566  0.6703 -0.4673
  148DOPC   O2217618   2.784   5.263  16.793 -0.1116 -0.1126  0.5039
  148DOPC   C2217619   2.927   5.348  16.616 -0.2211  0.7827  0.0536
  148DOPC   H2R17620   3.024   5.372  16.665 -0.3812  0.1030  0.7163
  148DOPC   H2S17621   2.908   5.430  16.543  0.0436  1.0543  0.2905
  148DOPC    C317622   2.634   5.627  16.886 -0.4874  0.0756 -1.0935
  148DOPC    HX17623   2.700   5.699  16.938  0.6871 -0.8656 -1.2368
  148DOPC    HY17624   2.551   5.622  16.960  1.7003  0.9682  1.5723
  148DOPC   O3117625   2.587   5.679  16.763  0.1398 -0.0150  0.4007
  148DOPC   C3117626   2.674   5.762  16.703 -0.5620 -0.2222  0.3265
  148DOPC   O3217627   2.764   5.825  16.752 -0.7637 -0.1187  0.7505
  148DOPC   C3217628   2.653   5.735  16.551  0.9036  0.0381  0.1823
  148DOPC   H2X17629   2.632   5.627  16.539  0.2787  0.2554 -0.7925
  148DOPC   H2Y17630   2.561   5.792  16.527  1.6309  1.9283  1.5807
  148DOPC   C2317631   2.919   5.209  16.546 -0.2469  0.4048  0.5349
  148DOPC   H3R17632   2.824   5.212  16.488 -0.4610  0.6574  0.8954
  148DOPC   H3S17633   2.924   5.119  16.610  0.0397 -1.2042 -1.6348
  148DOPC   C2417634   3.026   5.197  16.442  0.5103 -0.2737  0.9398
  148DOPC   H4R17635   3.122   5.179  16.495  1.7476 -1.1293 -1.4001
  148DOPC   H4S17636   3.050   5.291  16.388  3.6987 -1.5802 -0.1884
  148DOPC   C2517637   3.007   5.100  16.320  0.2102 -0.2978 -0.3807
  148DOPC   H5R17638   2.903   5.109  16.281 -0.5267  2.0854  1.8254
  148DOPC   H5S17639   3.012   4.996  16.359  0.1799 -0.6368 -1.2518
  148DOPC   C2617640   3.116   5.118  16.218 -0.2869 -0.4258  0.8109
  148DOPC   H6R17641   3.210   5.111  16.277  0.0601 -0.0074  0.3088
  148DOPC   H6S17642   3.108   5.220  16.174 -1.2793 -0.7472  0.2151
  148DOPC   C2717643   3.123   5.017  16.108 -0.1164 -0.6555 -0.2092
  148DOPC   H7R17644   3.028   5.008  16.052 -0.0023  1.0742 -0.7451
  148DOPC   H7S17645   3.141   4.917  16.155 -1.0643 -0.3229  0.8999
  148DOPC   C2817646   3.245   5.040  16.009  0.2202  0.3907  0.3195
  148DOPC   H8R17647   3.345   5.032  16.056  0.3161 -3.5288 -0.2363
  148DOPC   H8S17648   3.222   5.142  15.970 -0.7886  0.2091  0.3972
  148DOPC   C2917649   3.238   4.939  15.902  0.1788  0.1658  0.4254
  148DOPC   H9R17650   3.263   4.841  15.945  3.7049  0.4906 -0.5470
  148DOPC  C21017651   3.220   4.953  15.764  0.5066  0.1319 -0.4967
  148DOPC  H10R17652   3.197   4.864  15.703 -1.2220  0.6624 -0.6795
  148DOPC  C21117653   3.202   5.082  15.692  0.1722 -0.0056  0.0519
  148DOPC  H11R17654   3.235   5.066  15.587 -1.3136 -0.8555 -0.3091
  148DOPC  H11S17655   3.257   5.160  15.748  0.7311 -0.6304  0.3893
  148DOPC  C21217656   3.055   5.119  15.668 -0.2060  0.3138  0.0215
  148DOPC  H12R17657   3.003   5.038  15.614  1.0541 -2.1180  2.2464
  148DOPC  H12S17658   3.056   5.207  15.600  1.2892 -1.2616 -2.0965
  148DOPC  C21317659   2.967   5.148  15.789 -0.5924 -0.8338  0.3551
  148DOPC  H13R17660   3.018   5.214  15.862  0.1523 -0.2684 -0.6662
  148DOPC  H13S17661   2.947   5.053  15.844 -1.6808 -0.8929 -0.1113
  148DOPC  C21417662   2.825   5.202  15.756  0.1280 -0.8221 -0.7798
  148DOPC  H14R17663   2.781   5.140  15.676  0.7682  0.0459 -1.8313
  148DOPC  H14S17664   2.825   5.306  15.715  1.2443 -0.1583  0.7754
  148DOPC  C21517665   2.741   5.196  15.887  0.2369 -0.0524 -0.0187
  148DOPC  H15R17666   2.801   5.177  15.979 -0.6761  0.6434  0.7422
  148DOPC  H15S17667   2.676   5.108  15.872  2.0630 -1.2391 -1.5285
  148DOPC  C21617668   2.650   5.320  15.915  0.7173  0.4631 -0.3692
  148DOPC  H16R17669   2.582   5.296  16.000 -2.1719  0.5657 -2.4911
  148DOPC  H16S17670   2.583   5.339  15.828 -0.9096 -1.8049  0.2907
  148DOPC  C21717671   2.725   5.454  15.953 -0.1223  0.4216  0.1780
  148DOPC  H17R17672   2.641   5.525  15.948 -0.6001  0.2363  3.3237
  148DOPC  H17S17673   2.799   5.476  15.873  1.9027 -4.4983  0.2726
  148DOPC  C21817674   2.780   5.466  16.095 -0.7764 -0.2286 -0.4777
  148DOPC  H18R17675   2.816   5.568  16.121  2.3725 -1.5599  0.8641
  148DOPC  H18S17676   2.865   5.397  16.112 -0.9306  0.0209  1.5631
  148DOPC  H18T17677   2.718   5.434  16.182 -0.3664 -1.4867 -0.6283
  148DOPC   C3317678   2.766   5.788  16.453  0.2953 -0.5662  0.1609
  148DOPC   H3X17679   2.868   5.754  16.479  0.5346 -0.7223 -0.9303
  148DOPC   H3Y17680   2.753   5.899  16.458  1.5265 -0.3211 -1.3895
  148DOPC   C3417681   2.741   5.749  16.307 -0.7606 -0.6167  0.3029
  148DOPC   H4X17682   2.730   5.640  16.292  0.9040 -0.6695 -0.8560
  148DOPC   H4Y17683   2.830   5.777  16.246 -0.3534 -1.7413  0.3734
  148DOPC   C3517684   2.634   5.834  16.235 -0.4464  0.0801  0.3729
  148DOPC   H5X17685   2.628   5.943  16.256 -3.3189  0.5081 -2.0773
  148DOPC   H5Y17686   2.538   5.802  16.281  0.3004 -0.2354  1.8021
  148DOPC   C3617687   2.623   5.816  16.082 -0.1203 -0.3958 -0.3148
  148DOPC   H6X17688   2.721   5.850  16.041 -1.3912  2.3055 -1.3444
  148DOPC   H6Y17689   2.595   5.710  16.061 -2.6138 -0.4894  2.7212
  148DOPC   C3717690   2.522   5.912  16.014  0.3491 -0.0560 -0.2794
  148DOPC   H7X17691   2.427   5.907  16.071  0.2173 -0.2718 -0.5183
  148DOPC   H7Y17692   2.574   6.010  16.018 -0.7469  0.5348  3.2003
  148DOPC   C3817693   2.493   5.883  15.871  0.2141 -0.8584 -0.0080
  148DOPC   H8X17694   2.585   5.905  15.813  0.2396 -1.4576 -0.2093
  148DOPC   H8Y17695   2.429   5.963  15.827  1.0382 -0.7539 -1.0774
  148DOPC   C3917696   2.425   5.754  15.837  1.0398 -0.7332 -0.0422
  148DOPC   H9X17697   2.327   5.746  15.886  1.0518  0.2346  0.1650
  148DOPC  C31017698   2.469   5.659  15.754 -0.0080  0.5885  0.2854
  148DOPC  H10X17699   2.389   5.590  15.723 -0.5193  1.8222 -1.2628
  148DOPC  C31117700   2.599   5.659  15.675 -0.4544 -0.4585  0.4047
  148DOPC  H11X17701   2.638   5.555  15.675 -0.8441 -0.6156 -0.3345
  148DOPC  H11Y17702   2.662   5.723  15.740 -0.9990  0.2358  0.2534
  148DOPC  C31217703   2.607   5.731  15.544 -0.3559  0.0654 -0.1023
  148DOPC  H12X17704   2.711   5.770  15.539 -0.0695 -0.7350 -0.6503
  148DOPC  H12Y17705   2.543   5.822  15.543 -0.1524  0.2357  0.9960
  148DOPC  C31317706   2.592   5.645  15.424  0.1421  0.0972  0.3293
  148DOPC  H13X17707   2.670   5.566  15.409  1.2031  1.2073 -0.1833
  148DOPC  H13Y17708   2.500   5.583  15.427  0.9168 -1.1900 -0.9962
  148DOPC  C31417709   2.593   5.724  15.297 -0.3749 -0.3951  0.0076
  148DOPC  H14X17710   2.591   5.644  15.220 -1.0855  0.9553 -1.4559
  148DOPC  H14Y17711   2.492   5.771  15.290 -1.1532 -2.1707 -2.1012
  148DOPC  C31517712   2.706   5.822  15.283  0.2199  0.5774 -1.0346
  148DOPC  H15X17713   2.797   5.761  15.298 -1.3521 -1.9598 -1.1860
  148DOPC  H15Y17714   2.689   5.899  15.361 -0.8341 -1.8242  1.2521
  148DOPC  C31617715   2.710   5.902  15.156  0.6675 -0.7281 -0.0134
  148DOPC  H16X17716   2.710   5.823  15.078  0.5167 -0.4267 -0.3186
  148DOPC  H16Y17717   2.614   5.957  15.148  0.3337 -1.3384 -0.2541
  148DOPC  C31717718   2.825   6.006  15.151 -0.0740 -0.1109  0.4539
  148DOPC  H17X17719   2.839   6.048  15.049 -3.0914  0.0703  0.0172
  148DOPC  H17Y17720   2.811   6.093  15.217  0.4571  0.1255  0.2610
  148DOPC  C31817721   2.959   5.942  15.194  0.0708  0.0037  0.0343
  148DOPC  H18X17722   2.961   5.843  15.143  2.9618 -0.3566  0.6668
  148DOPC  H18Y17723   3.043   6.010  15.168 -2.0554  2.2448 -1.4769
  148DOPC  H18Z17724   2.973   5.925  15.303  1.8961  0.9468 -0.0207
  149DOPC     N17725   1.955   2.491  17.490  0.0715 -0.0175 -0.0756
  149DOPC   C1217726   2.043   2.518  17.368  0.3390 -0.2900 -0.1963
  149DOPC  H12A17727   2.142   2.475  17.372  0.9767  1.1944  2.8454
  149DOPC  H12B17728   2.061   2.621  17.344 -0.4312 -0.2198 -0.5084
  149DOPC   C1317729   1.935   2.341  17.510  0.1722  0.1588  0.2084
  149DOPC  H13A17730   1.879   2.312  17.597 -0.7809 -0.4140 -0.5665
  149DOPC  H13B17731   1.877   2.305  17.426  0.0306 -1.4395  0.9587
  149DOPC  H13C17732   2.030   2.290  17.510 -0.4788 -1.0847  0.9810
  149DOPC   C1417733   1.824   2.554  17.472  0.0417  0.3161  0.0769
  149DOPC  H14A17734   1.835   2.662  17.469  1.1066  0.1967 -1.2190
  149DOPC  H14B17735   1.762   2.522  17.390  0.6985  1.4504 -0.9049
  149DOPC  H14C17736   1.765   2.541  17.562 -1.6330  0.3885 -0.9722
  149DOPC   C1517737   2.023   2.546  17.610  0.0115  0.1969  0.1042
  149DOPC  H15A17738   1.964   2.519  17.697 -1.2439 -0.0030 -0.7765
  149DOPC  H15B17739   2.041   2.652  17.610  2.6077 -0.1751 -0.1723
  149DOPC  H15C17740   2.119   2.496  17.612  1.9289  3.5318  3.1225
  149DOPC   C1117741   1.988   2.459  17.227  0.9334  0.1956  0.3066
  149DOPC  H11A17742   2.070   2.448  17.153  0.5599 -1.0035  0.0521
  149DOPC  H11B17743   1.953   2.357  17.252 -3.1690  1.4945  0.4678
  149DOPC     P17744   1.883   2.673  17.124 -0.0070  0.1784  0.2859
  149DOPC   O1317745   2.017   2.723  17.152  0.0837 -0.5197  0.4054
  149DOPC   O1417746   1.763   2.757  17.161  0.5044 -0.2211 -0.0391
  149DOPC   O1217747   1.868   2.525  17.183 -0.4690 -0.4673 -0.6062
  149DOPC   O1117748   1.868   2.656  16.964 -0.3537 -0.0835 -0.3509
  149DOPC    C117749   1.770   2.574  16.907  1.0081 -1.4427 -0.2537
  149DOPC    HA17750   1.737   2.640  16.824  0.6335  1.0417  1.7641
  149DOPC    HB17751   1.677   2.568  16.967 -0.3348  0.7917 -1.9342
  149DOPC    C217752   1.825   2.443  16.863 -0.6411  0.7636  0.4888
  149DOPC    HS17753   1.855   2.392  16.957 -2.6674  2.4342  2.1494
  149DOPC   O2117754   1.936   2.474  16.764 -0.1548  0.1224 -0.1892
  149DOPC   C2117755   2.028   2.379  16.753  0.5210 -0.0281 -0.3744
  149DOPC   O2217756   2.017   2.266  16.806 -0.1970 -0.3881  0.5587
  149DOPC   C2217757   2.140   2.433  16.662 -0.2072 -0.1743 -0.4003
  149DOPC   H2R17758   2.188   2.522  16.709 -0.8157 -0.2599  0.4077
  149DOPC   H2S17759   2.098   2.469  16.566 -2.8325 -0.1140  0.7041
  149DOPC    C317760   1.716   2.354  16.799 -0.4433  0.2091  0.5285
  149DOPC    HX17761   1.629   2.354  16.867 -1.5608  0.9826 -0.8348
  149DOPC    HY17762   1.755   2.250  16.803  0.3370  0.4628  0.0333
  149DOPC   O3117763   1.680   2.396  16.663  0.1216 -0.0372 -0.1686
  149DOPC   C3117764   1.734   2.322  16.566 -0.3708 -0.5189  0.2710
  149DOPC   O3217765   1.806   2.228  16.579 -0.0099  0.2317  0.3751
  149DOPC   C3217766   1.692   2.385  16.434  0.0676 -0.2051  0.1966
  149DOPC   H2X17767   1.582   2.381  16.419 -0.2842  1.7403  1.7835
  149DOPC   H2Y17768   1.723   2.492  16.442  0.7288 -0.3986  0.3084
  149DOPC   C2317769   2.248   2.326  16.633  0.0360 -0.1222 -0.4410
  149DOPC   H3R17770   2.280   2.278  16.728  0.4650  0.4863 -0.2737
  149DOPC   H3S17771   2.336   2.379  16.591  0.1453  1.6828  1.8648
  149DOPC   C2417772   2.191   2.213  16.543 -0.1796  0.4347 -0.1347
  149DOPC   H4R17773   2.120   2.254  16.468 -0.6951 -2.6921 -1.5299
  149DOPC   H4S17774   2.135   2.143  16.609  0.1258  1.5899  1.4243
  149DOPC   C2517775   2.288   2.128  16.461  0.5932  0.0623  0.2210
  149DOPC   H5R17776   2.221   2.049  16.422 -1.2870  1.8993 -0.4895
  149DOPC   H5S17777   2.359   2.084  16.534  0.1407 -0.3021  0.4466
  149DOPC   C2617778   2.371   2.200  16.352 -0.4287  0.5395 -0.0730
  149DOPC   H6R17779   2.446   2.128  16.312  2.8157  3.0583  0.9577
  149DOPC   H6S17780   2.436   2.277  16.400 -0.2226 -0.6946  1.7148
  149DOPC   C2717781   2.285   2.266  16.246  0.3047 -0.5668 -0.0588
  149DOPC   H7R17782   2.238   2.359  16.283  1.5776 -0.2395  0.7976
  149DOPC   H7S17783   2.200   2.196  16.231  1.8964 -2.6715  0.1291
  149DOPC   C2817784   2.370   2.292  16.118 -0.2744 -0.1804 -0.0799
  149DOPC   H8R17785   2.439   2.206  16.106 -0.3465 -0.1885 -0.4322
  149DOPC   H8S17786   2.436   2.379  16.139 -0.7094  1.2587 -3.8898
  149DOPC   C2917787   2.288   2.317  15.989 -0.7181 -1.5172 -0.1913
  149DOPC   H9R17788   2.281   2.425  15.973 -0.4229 -1.0528  2.3505
  149DOPC  C21017789   2.230   2.232  15.907  0.0944 -0.0222 -0.1385
  149DOPC  H10R17790   2.165   2.276  15.830  1.2101  1.6955 -0.1364
  149DOPC  C21117791   2.216   2.083  15.916 -0.2732  0.2108 -0.1434
  149DOPC  H11R17792   2.131   2.046  15.854 -0.9932  0.7829  0.4813
  149DOPC  H11S17793   2.195   2.058  16.022  1.5093 -0.8797 -0.0118
  149DOPC  C21217794   2.333   1.998  15.872  0.3797  0.5431  0.2577
  149DOPC  H12R17795   2.312   1.894  15.903  3.5007 -0.1985  0.2556
  149DOPC  H12S17796   2.423   2.022  15.933  1.7458 -0.4854 -1.2917
  149DOPC  C21317797   2.364   2.003  15.719  0.4541 -0.4786 -0.1798
  149DOPC  H13R17798   2.474   1.989  15.713  0.3979 -0.5378 -1.2492
  149DOPC  H13S17799   2.339   2.108  15.694 -1.3480 -0.6325  0.8199
  149DOPC  C21417800   2.284   1.906  15.635 -0.4701 -0.0197 -0.1962
  149DOPC  H14R17801   2.176   1.915  15.656 -0.7702 -1.4298 -0.9940
  149DOPC  H14S17802   2.315   1.802  15.660  0.3413  0.2461 -0.0749
  149DOPC  C21517803   2.308   1.935  15.482  0.4803  0.5843 -0.2711
  149DOPC  H15R17804   2.314   2.045  15.476 -1.2149  0.8164  1.4143
  149DOPC  H15S17805   2.224   1.888  15.426 -0.4356  0.2412  1.3543
  149DOPC  C21617806   2.437   1.865  15.438 -0.1864  0.7999  0.0079
  149DOPC  H16R17807   2.425   1.757  15.458  0.3960  1.0300  1.7701
  149DOPC  H16S17808   2.516   1.886  15.513  1.7046 -3.5357 -0.5216
  149DOPC  C21717809   2.489   1.893  15.298  1.5951  0.0519  0.1704
  149DOPC  H17R17810   2.504   1.998  15.267 -2.0379  0.5402 -0.3622
  149DOPC  H17S17811   2.400   1.872  15.235  0.8016 -1.6354  1.7355
  149DOPC  C21817812   2.607   1.803  15.257  0.0334  0.6990  0.9930
  149DOPC  H18R17813   2.583   1.696  15.279  0.4039  0.2560 -0.6335
  149DOPC  H18S17814   2.699   1.823  15.317  0.1669 -2.0117  1.8266
  149DOPC  H18T17815   2.632   1.803  15.149  0.4234 -0.8214  1.0520
  149DOPC   C3317816   1.759   2.309  16.318  0.7443 -0.1715  0.2737
  149DOPC   H3X17817   1.704   2.217  16.289 -1.4198  1.9085 -2.7970
  149DOPC   H3Y17818   1.864   2.285  16.348  0.0252 -0.5479  2.6377
  149DOPC   C3417819   1.744   2.384  16.183 -0.6389  0.6938 -0.3461
  149DOPC   H4X17820   1.810   2.473  16.178 -1.7124  1.5212 -0.2478
  149DOPC   H4Y17821   1.645   2.435  16.171 -0.6887  1.0067  1.2072
  149DOPC   C3517822   1.752   2.288  16.056  0.0361  0.2345 -0.2966
  149DOPC   H5X17823   1.686   2.201  16.074  0.9858 -0.3215  0.6307
  149DOPC   H5Y17824   1.858   2.256  16.059  0.7167  2.2365  3.3987
  149DOPC   C3617825   1.715   2.347  15.923  0.0063  0.3478  0.0232
  149DOPC   H6X17826   1.611   2.381  15.939  0.0063 -0.5817  2.4448
  149DOPC   H6Y17827   1.774   2.441  15.915  1.5290 -0.4597  1.1117
  149DOPC   C3717828   1.724   2.262  15.796  0.4454  0.0333 -0.2626
  149DOPC   H7X17829   1.662   2.171  15.812  0.0812  0.0366 -1.5726
  149DOPC   H7Y17830   1.670   2.320  15.718  1.0563  0.5239 -0.3258
  149DOPC   C3817831   1.867   2.227  15.756 -0.1981  0.0553 -0.0038
  149DOPC   H8X17832   1.842   2.151  15.678  0.4661  0.7624 -0.9420
  149DOPC   H8Y17833   1.930   2.168  15.826 -0.5787 -2.0061 -1.3108
  149DOPC   C3917834   1.936   2.344  15.693  0.1140 -0.2361 -0.0680
  149DOPC   H9X17835   1.913   2.444  15.731 -3.2404 -0.2261 -1.7509
  149DOPC  C31017836   1.992   2.345  15.573  0.0033 -0.0486 -0.7595
  149DOPC  H10X17837   2.024   2.442  15.532 -2.7786  1.1780 -0.2083
  149DOPC  C31117838   2.000   2.232  15.477 -0.5584  0.4686  0.2189
  149DOPC  H11X17839   1.914   2.163  15.481  0.7461 -1.1955  2.5621
  149DOPC  H11Y17840   2.090   2.169  15.497 -1.6528 -0.5432  2.2282
  149DOPC  C31217841   2.000   2.278  15.330  0.2866 -0.5289  0.3289
  149DOPC  H12X17842   2.080   2.348  15.296 -0.7689  1.0068  0.8873
  149DOPC  H12Y17843   1.901   2.320  15.302  1.0490  1.2268  0.1185
  149DOPC  C31317844   2.025   2.160  15.235  0.4029 -1.1383  0.1615
  149DOPC  H13X17845   2.127   2.119  15.250  0.8232  0.0098  0.5450
  149DOPC  H13Y17846   1.957   2.080  15.272 -0.9426 -1.2019 -2.2632
  149DOPC  C31417847   2.013   2.188  15.084  0.0434 -0.7866  0.0060
  149DOPC  H14X17848   1.934   2.264  15.066 -1.6612 -2.6583 -0.8277
  149DOPC  H14Y17849   2.111   2.234  15.058  0.2380  1.0980  3.3976
  149DOPC  C31517850   1.986   2.059  15.011 -0.1237  0.2103 -0.7675
  149DOPC  H15X17851   1.891   2.017  15.049 -0.3079 -0.8816 -2.3477
  149DOPC  H15Y17852   2.072   1.991  15.032 -0.4340 -0.6988 -2.2953
  149DOPC  C31617853   1.964   2.089  14.862  0.1049  0.0095  0.5514
  149DOPC  H16X17854   1.879   2.160  14.852 -1.5699 -2.0489 -0.6424
  149DOPC  H16Y17855   2.051   2.140  14.815 -0.5425  1.4916  0.8895
  149DOPC  C31717856   1.938   1.961  14.784  0.1534 -0.5651  0.7843
  149DOPC  H17X17857   1.844   1.913  14.818 -0.9330  0.5625 -0.5094
  149DOPC  H17Y17858   1.920   1.992  14.679 -0.8314  1.8465  1.6072
  149DOPC  C31817859   2.056   1.859  14.787 -0.2196 -0.4282  0.0247
  149DOPC  H18X17860   2.042   1.775  14.715  0.3458  0.6203 -1.3549
  149DOPC  H18Y17861   2.149   1.912  14.756 -0.7737  1.6375  1.6877
  149DOPC  H18Z17862   2.087   1.825  14.888  3.3471  4.4366  0.9374
  150DOPC     N17863   5.988   5.386  16.712  0.1886  0.2011 -0.2467
  150DOPC   C1217864   5.863   5.402  16.634  0.2527  0.7163  0.4442
  150DOPC  H12A17865   5.884   5.363  16.536  0.4909  0.2002  0.6918
  150DOPC  H12B17866   5.841   5.507  16.622  2.9716  1.3136  0.1407
  150DOPC   C1317867   6.004   5.249  16.764 -0.1621  0.1358  0.1784
  150DOPC  H13A17868   5.937   5.233  16.847  0.6013  1.2219  1.0367
  150DOPC  H13B17869   5.983   5.178  16.686 -2.2867 -0.0164  0.8259
  150DOPC  H13C17870   6.105   5.238  16.801 -0.1263 -0.8509 -0.1650
  150DOPC   C1417871   6.006   5.478  16.826  1.3489 -0.4469  0.9524
  150DOPC  H14A17872   5.911   5.494  16.877  0.6630 -0.7505 -0.1960
  150DOPC  H14B17873   6.086   5.447  16.891  2.3313 -0.9803 -0.4634
  150DOPC  H14C17874   6.029   5.578  16.792 -1.7297  1.2713  3.3624
  150DOPC   C1517875   6.104   5.406  16.618 -0.1125 -0.1864 -0.6466
  150DOPC  H15A17876   6.195   5.389  16.673 -2.1670 -0.7074  2.8658
  150DOPC  H15B17877   6.094   5.508  16.584 -2.1816 -0.3870 -0.7823
  150DOPC  H15C17878   6.101   5.332  16.539 -1.5893 -0.3599 -0.4528
  150DOPC   C1117879   5.735   5.344  16.688 -0.2789  0.3281  0.1272
  150DOPC  H11A17880   5.648   5.352  16.620 -1.3892 -1.2847  1.2799
  150DOPC  H11B17881   5.758   5.235  16.695  1.8042  0.7245  0.0392
  150DOPC     P17882   5.630   5.522  16.834 -0.0578  0.1047 -0.1317
  150DOPC   O1317883   5.628   5.563  16.977  1.0593 -0.5791  0.5267
  150DOPC   O1417884   5.495   5.504  16.777  0.5413 -0.2388 -0.6591
  150DOPC   O1217885   5.711   5.383  16.824  0.1103  0.3214  0.4828
  150DOPC   O1117886   5.714   5.625  16.749  0.3368 -0.6189 -0.2844
  150DOPC    C117887   5.676   5.763  16.741  0.5143  0.0783 -0.2311
  150DOPC    HA17888   5.728   5.825  16.816 -1.5030 -1.0245  2.2299
  150DOPC    HB17889   5.568   5.786  16.755  0.6605  1.2161 -0.8710
  150DOPC    C217890   5.709   5.820  16.603  0.4405  0.8228 -0.0524
  150DOPC    HS17891   5.654   5.915  16.583 -1.5441 -0.5548 -1.4119
  150DOPC   O2117892   5.666   5.726  16.499 -0.3317  0.3110 -0.1337
  150DOPC   C2117893   5.537   5.720  16.479  0.0554 -0.2724  0.1786
  150DOPC   O2217894   5.457   5.800  16.525  0.6278  0.7865  0.1394
  150DOPC   C2217895   5.499   5.589  16.406 -0.6660 -0.0869 -0.8151
  150DOPC   H2R17896   5.396   5.563  16.438  0.6324 -3.0186  1.5143
  150DOPC   H2S17897   5.563   5.502  16.431 -0.8761 -0.3019 -1.0258
  150DOPC    C317898   5.866   5.836  16.589  0.0075 -0.1444  0.4562
  150DOPC    HX17899   5.905   5.733  16.598 -0.6031 -0.6642 -2.0167
  150DOPC    HY17900   5.894   5.907  16.669  2.2991 -1.6089  1.0451
  150DOPC   O3117901   5.908   5.885  16.462 -0.0713 -0.1954 -0.0819
  150DOPC   C3117902   5.934   6.015  16.440 -0.7501 -1.1145 -0.0385
  150DOPC   O3217903   5.925   6.103  16.525  0.2969 -0.1845  0.5235
  150DOPC   C3217904   5.956   6.030  16.290 -0.0282 -0.3398 -0.2803
  150DOPC   H2X17905   5.910   6.128  16.264 -3.2193 -1.8018 -0.6623
  150DOPC   H2Y17906   6.063   6.015  16.266 -0.2925 -1.5646 -0.7776
  150DOPC   C2317907   5.485   5.606  16.246 -0.1882 -0.0109 -0.3344
  150DOPC   H3R17908   5.422   5.691  16.213  0.4773  0.6676  0.1323
  150DOPC   H3S17909   5.436   5.516  16.201  0.9408  0.0474 -1.7794
  150DOPC   C2417910   5.624   5.640  16.189 -0.2840 -0.0857  0.2004
  150DOPC   H4R17911   5.672   5.723  16.243  0.9320 -0.4771 -0.2514
  150DOPC   H4S17912   5.608   5.666  16.082 -0.9601 -1.1261  0.0250
  150DOPC   C2517913   5.731   5.525  16.191 -0.0119 -1.3137 -0.4009
  150DOPC   H5R17914   5.754   5.490  16.295  0.0667 -1.0398 -0.3269
  150DOPC   H5S17915   5.830   5.567  16.165 -0.4954 -0.1524 -0.4164
  150DOPC   C2617916   5.697   5.396  16.108  0.3452  0.5791  0.2104
  150DOPC   H6R17917   5.594   5.378  16.145  0.7575 -1.5401  0.4683
  150DOPC   H6S17918   5.758   5.312  16.149  0.1978  1.3603  2.1120
  150DOPC   C2717919   5.723   5.416  15.958  0.0001 -0.7081  0.2680
  150DOPC   H7R17920   5.673   5.511  15.930  0.1635 -0.4438  0.8570
  150DOPC   H7S17921   5.682   5.327  15.906 -0.0252  0.2570 -1.4232
  150DOPC   C2817922   5.883   5.416  15.929  0.1184 -0.6306 -1.1151
  150DOPC   H8R17923   5.928   5.331  15.985 -0.6576 -1.0407 -1.0964
  150DOPC   H8S17924   5.917   5.511  15.975 -4.2512 -0.2502  1.9381
  150DOPC   C2917925   5.914   5.392  15.791 -0.4002  0.8044  0.6978
  150DOPC   H9R17926   5.840   5.325  15.744 -0.9106  1.2296  0.8789
  150DOPC  C21017927   6.039   5.414  15.743 -0.2542 -0.5035  0.1423
  150DOPC  H10R17928   6.069   5.395  15.639 -2.0852  2.1042 -0.9539
  150DOPC  C21117929   6.160   5.468  15.828  0.7772  0.2809 -0.3000
  150DOPC  H11R17930   6.249   5.406  15.803  0.9173  0.6617 -0.7791
  150DOPC  H11S17931   6.142   5.470  15.937  0.1479  0.3439 -0.4021
  150DOPC  C21217932   6.204   5.614  15.800 -0.3460  0.6105 -0.5453
  150DOPC  H12R17933   6.109   5.670  15.788 -0.5805  0.4654  0.5433
  150DOPC  H12S17934   6.260   5.620  15.704 -1.0703  1.0925 -0.9477
  150DOPC  C21317935   6.297   5.670  15.907 -1.0549 -0.0492  0.7293
  150DOPC  H13R17936   6.406   5.657  15.889 -0.6771  2.6147  0.6903
  150DOPC  H13S17937   6.278   5.619  16.004  1.2972 -0.4827  1.0290
  150DOPC  C21417938   6.294   5.822  15.939 -0.1888 -0.3072  0.3230
  150DOPC  H14R17939   6.195   5.847  15.983 -0.3505 -0.6226  0.1393
  150DOPC  H14S17940   6.302   5.880  15.844  0.0701 -1.8532 -0.6218
  150DOPC  C21517941   6.400   5.858  16.050 -0.8033 -0.2227  0.0755
  150DOPC  H15R17942   6.402   5.969  16.055 -0.7039 -0.2091 -0.2518
  150DOPC  H15S17943   6.503   5.832  16.018 -0.2639  1.2111  0.5496
  150DOPC  C21617944   6.358   5.822  16.193  0.1814  0.0984  0.2671
  150DOPC  H16R17945   6.369   5.712  16.199 -1.1441 -0.0036  0.9832
  150DOPC  H16S17946   6.248   5.830  16.206  0.2062 -1.0372  1.2858
  150DOPC  C21717947   6.427   5.890  16.307 -0.0979  0.3808 -0.7787
  150DOPC  H17R17948   6.420   6.000  16.299 -3.1275  0.3998  0.6285
  150DOPC  H17S17949   6.536   5.869  16.306 -0.4230 -1.5767  0.2229
  150DOPC  C21817950   6.356   5.865  16.447 -0.0392  0.4022 -0.2008
  150DOPC  H18R17951   6.245   5.870  16.443 -0.1100 -1.0979 -0.8478
  150DOPC  H18S17952   6.400   5.938  16.518 -0.6657 -0.7369  1.4184
  150DOPC  H18T17953   6.385   5.763  16.480 -0.4114  0.5959  0.7792
  150DOPC   C3317954   5.866   5.935  16.213 -0.1580  0.4633  0.1067
  150DOPC   H3X17955   5.757   5.950  16.227 -0.3519 -0.4297 -0.3256
  150DOPC   H3Y17956   5.885   5.827  16.232  1.5998  0.5453 -1.0116
  150DOPC   C3417957   5.899   5.964  16.065  0.0860  0.4062 -0.1294
  150DOPC   H4X17958   6.008   5.948  16.058  0.3285  1.2456  1.3405
  150DOPC   H4Y17959   5.883   6.070  16.038  0.2248  0.5987  0.5234
  150DOPC   C3517960   5.815   5.884  15.968 -0.0902 -0.2671 -0.2024
  150DOPC   H5X17961   5.710   5.917  15.986  0.2967  0.4526  0.7996
  150DOPC   H5Y17962   5.819   5.777  15.996 -1.8497  0.4065  3.1426
  150DOPC   C3617963   5.850   5.908  15.824  0.4165 -0.4692  0.7531
  150DOPC   H6X17964   5.821   6.009  15.788  2.7134  0.8945  2.3950
  150DOPC   H6Y17965   5.960   5.907  15.810  0.1763  0.7220 -1.7139
  150DOPC   C3717966   5.800   5.803  15.726  0.1316 -0.3097  0.1167
  150DOPC   H7X17967   5.848   5.713  15.769 -0.6113  0.2732  2.2736
  150DOPC   H7Y17968   5.690   5.788  15.724  0.2107 -0.8806 -2.0504
  150DOPC   C3817969   5.844   5.837  15.580 -0.0451  0.3320 -0.3491
  150DOPC   H8X17970   5.951   5.865  15.586 -0.3134  1.3774  0.0193
  150DOPC   H8Y17971   5.777   5.921  15.549 -0.9801 -0.4892 -0.5903
  150DOPC   C3917972   5.846   5.706  15.506  0.2002  0.1003 -0.2212
  150DOPC   H9X17973   5.938   5.647  15.508  1.2470  1.6767  1.1888
  150DOPC  C31017974   5.752   5.668  15.420 -0.5849  0.8700 -0.4865
  150DOPC  H10X17975   5.760   5.569  15.374 -0.7831  0.2510  0.7621
  150DOPC  C31117976   5.624   5.737  15.385 -0.1087 -0.2221  0.3606
  150DOPC  H11X17977   5.622   5.836  15.435 -0.6871 -0.2495  0.4018
  150DOPC  H11Y17978   5.541   5.676  15.427  0.9943 -0.4748  2.2958
  150DOPC  C31217979   5.605   5.759  15.235 -0.2311  0.1080  0.0350
  150DOPC  H12X17980   5.592   5.656  15.195  1.9254 -0.1024 -0.2334
  150DOPC  H12Y17981   5.693   5.812  15.193  0.0632 -1.8377 -1.9847
  150DOPC  C31317982   5.475   5.833  15.208  0.2400 -1.0188  0.1270
  150DOPC  H13X17983   5.454   5.805  15.102  0.9446  1.8282 -0.8509
  150DOPC  H13Y17984   5.392   5.790  15.268  0.5155 -1.4776  0.1875
  150DOPC  C31417985   5.489   5.983  15.211 -0.6258 -0.7966  0.1841
  150DOPC  H14X17986   5.490   6.009  15.319  2.1852 -0.2558  0.1054
  150DOPC  H14Y17987   5.584   6.020  15.166 -1.3836  0.4480 -0.4490
  150DOPC  C31517988   5.358   6.055  15.154 -0.1576  0.1146 -0.4518
  150DOPC  H15X17989   5.373   6.163  15.176  1.4715  0.1275 -1.4079
  150DOPC  H15Y17990   5.271   6.017  15.210  0.9974 -2.2355 -0.1288
  150DOPC  C31617991   5.331   6.029  15.004 -0.3017 -0.4214 -0.9964
  150DOPC  H16X17992   5.423   6.016  14.943  0.0741 -1.6414 -0.2012
  150DOPC  H16Y17993   5.267   5.939  14.996 -1.3133  0.3989 -2.6938
  150DOPC  C31717994   5.251   6.146  14.940  0.0049  0.2902  0.3716
  150DOPC  H17X17995   5.163   6.175  15.001  0.0677  0.0241  0.5908
  150DOPC  H17Y17996   5.321   6.232  14.931  0.9210 -0.5557 -0.9983
  150DOPC  C31817997   5.205   6.112  14.795  0.9410 -0.0858 -0.0984
  150DOPC  H18X17998   5.138   6.023  14.798  1.1207 -0.2063  0.8467
  150DOPC  H18Y17999   5.160   6.203  14.752  2.6124 -0.0824 -1.9764
  150DOPC  H18Z18000   5.288   6.090  14.725 -2.0191 -2.8373 -3.1142
  151DOPC     N18001   1.339   3.996  17.223 -0.4453  0.0018 -0.2444
  151DOPC   C1218002   1.342   3.973  17.075 -0.1941 -0.6554  0.1620
  151DOPC  H12A18003   1.237   3.969  17.050 -0.2300 -0.8129  0.3399
  151DOPC  H12B18004   1.367   3.873  17.045  1.5756 -0.7891  1.8577
  151DOPC   C1318005   1.252   3.898  17.296  0.9494 -0.4918 -0.1662
  151DOPC  H13A18006   1.268   3.797  17.263 -0.6413 -0.4395 -1.1917
  151DOPC  H13B18007   1.270   3.900  17.402  1.2806  1.2448 -0.2151
  151DOPC  H13C18008   1.148   3.914  17.269  0.5624  1.3516  2.1435
  151DOPC   C1418009   1.275   4.135  17.249  0.3772 -0.2325 -0.2707
  151DOPC  H14A18010   1.332   4.216  17.206 -0.3407  0.9762  0.9693
  151DOPC  H14B18011   1.179   4.133  17.200 -0.5900 -0.9064  1.5658
  151DOPC  H14C18012   1.255   4.157  17.353 -0.0527  0.2136 -0.4474
  151DOPC   C1518013   1.476   4.000  17.270 -0.4599 -0.1433 -0.4361
  151DOPC  H15A18014   1.493   4.060  17.358  0.7903 -0.2946 -0.5498
  151DOPC  H15B18015   1.543   4.049  17.200 -0.2271 -0.8599 -0.7245
  151DOPC  H15C18016   1.514   3.904  17.300 -0.9785  0.2716  1.6885
  151DOPC   C1118017   1.431   4.060  16.974 -0.3404 -0.1502 -0.4796
  151DOPC  H11A18018   1.381   4.049  16.876  0.0136  1.6134 -0.8946
  151DOPC  H11B18019   1.429   4.169  16.997  0.8043 -0.3229  0.5285
  151DOPC     P18020   1.623   3.906  16.893  0.1966 -0.3141  0.6970
  151DOPC   O1318021   1.520   3.798  16.897 -0.6943  0.0421 -0.2255
  151DOPC   O1418022   1.761   3.867  16.931  0.4110 -0.1315 -0.3101
  151DOPC   O1218023   1.576   4.029  16.977  0.3551 -0.0001 -0.8935
  151DOPC   O1118024   1.641   3.960  16.749  0.0620  0.2666 -0.2765
  151DOPC    C118025   1.541   3.973  16.650 -0.4253 -0.5118 -0.9217
  151DOPC    HA18026   1.567   4.068  16.597  2.7739 -0.4467  0.5071
  151DOPC    HB18027   1.439   3.983  16.692 -0.4992  1.5890 -1.4582
  151DOPC    C218028   1.546   3.857  16.546 -0.3273  1.3926 -0.2713
  151DOPC    HS18029   1.504   3.773  16.605  1.2860  1.4917  1.0820
  151DOPC   O2118030   1.682   3.833  16.497 -0.1084  1.0381 -0.0809
  151DOPC   C2118031   1.718   3.704  16.485  0.0617 -0.4911  0.2459
  151DOPC   O2218032   1.647   3.608  16.518  0.6459 -0.2815 -0.3058
  151DOPC   C2218033   1.853   3.687  16.412 -0.4735  0.6952  0.6377
  151DOPC   H2R18034   1.914   3.620  16.475 -1.3389 -0.6230  0.1072
  151DOPC   H2S18035   1.903   3.786  16.397 -0.6177  0.5610 -0.9768
  151DOPC    C318036   1.445   3.877  16.424 -0.1901 -0.4462  0.4892
  151DOPC    HX18037   1.476   3.977  16.386 -0.1840 -0.4816  0.3986
  151DOPC    HY18038   1.343   3.889  16.466 -0.7911  0.9251 -1.2446
  151DOPC   O3118039   1.461   3.771  16.320  0.7721  0.5344 -0.6891
  151DOPC   C3118040   1.373   3.664  16.333  0.1222  0.2694  0.4166
  151DOPC   O3218041   1.293   3.647  16.424  0.4833  0.7461  0.1125
  151DOPC   C3218042   1.385   3.568  16.215  0.3139  0.6139 -0.8510
  151DOPC   H2X18043   1.477   3.594  16.158 -0.8516 -0.5677 -3.4159
  151DOPC   H2Y18044   1.375   3.464  16.253 -1.8273  0.7680 -0.8694
  151DOPC   C2318045   1.822   3.604  16.279  0.1287 -0.9226  0.2193
  151DOPC   H3R18046   1.746   3.532  16.317 -2.2716  1.9897  1.2705
  151DOPC   H3S18047   1.912   3.539  16.264  0.9068  0.1084  0.3080
  151DOPC   C2418048   1.790   3.691  16.159 -0.2438 -1.0042  0.6290
  151DOPC   H4R18049   1.866   3.772  16.148 -1.7179  0.4456  0.7025
  151DOPC   H4S18050   1.697   3.743  16.191 -1.5441 -3.1844  0.5494
  151DOPC   C2518051   1.770   3.607  16.030 -0.5572  0.2463 -0.7015
  151DOPC   H5R18052   1.724   3.513  16.066  1.5071 -0.7167 -0.4603
  151DOPC   H5S18053   1.869   3.580  15.988  0.2498  2.2133 -0.2067
  151DOPC   C2618054   1.692   3.672  15.917  0.3248  0.4126  0.2001
  151DOPC   H6R18055   1.750   3.757  15.875  1.7700  0.3337  1.9012
  151DOPC   H6S18056   1.590   3.704  15.947 -0.8586 -1.3538 -1.7050
  151DOPC   C2718057   1.656   3.568  15.809 -0.0629 -0.9175 -0.0041
  151DOPC   H7R18058   1.569   3.617  15.760 -0.3476 -2.2480 -0.9040
  151DOPC   H7S18059   1.608   3.481  15.858  0.4767 -1.0503  0.2910
  151DOPC   C2818060   1.767   3.525  15.710  0.1902  0.0486  0.2417
  151DOPC   H8R18061   1.846   3.469  15.764 -0.1096 -0.6338 -0.0195
  151DOPC   H8S18062   1.814   3.619  15.673  1.1812 -1.2097 -1.8838
  151DOPC   C2918063   1.725   3.450  15.589 -0.0622  0.2990  0.0200
  151DOPC   H9R18064   1.785   3.359  15.573 -2.6399 -2.3159  3.3597
  151DOPC  C21018065   1.630   3.488  15.500 -0.4381 -0.6127  0.2098
  151DOPC  H10R18066   1.616   3.424  15.411  0.0032 -1.2865  0.6198
  151DOPC  C21118067   1.552   3.621  15.507 -0.3312 -0.1209 -0.1427
  151DOPC  H11R18068   1.608   3.708  15.547  0.3134  0.7269 -2.7051
  151DOPC  H11S18069   1.466   3.608  15.576  0.0744 -0.7355  0.2533
  151DOPC  C21218070   1.501   3.669  15.377  0.7161  0.0489 -0.7000
  151DOPC  H12R18071   1.436   3.756  15.403 -1.2639 -1.4467 -0.3701
  151DOPC  H12S18072   1.439   3.595  15.321  0.5513  0.5349 -1.1700
  151DOPC  C21318073   1.611   3.717  15.277  1.1508  0.2608 -0.2919
  151DOPC  H13R18074   1.680   3.632  15.259  2.2277  1.0482  0.0195
  151DOPC  H13S18075   1.674   3.794  15.325 -1.0472  1.0207  1.5387
  151DOPC  C21418076   1.545   3.771  15.150 -0.4032 -0.0834  0.2605
  151DOPC  H14R18077   1.494   3.869  15.163 -0.9266 -0.4178  0.7997
  151DOPC  H14S18078   1.464   3.701  15.119 -0.3713 -0.2333  0.5156
  151DOPC  C21518079   1.639   3.791  15.029  0.5768 -0.9923 -0.6389
  151DOPC  H15R18080   1.705   3.703  15.046  1.2135 -0.8986 -2.4698
  151DOPC  H15S18081   1.683   3.893  15.027 -0.9694 -0.2985 -1.3482
  151DOPC  C21618082   1.566   3.775  14.898 -0.1833  0.0035  0.2429
  151DOPC  H16R18083   1.540   3.667  14.898  1.5563 -0.4633  1.9402
  151DOPC  H16S18084   1.639   3.800  14.818  0.0823  1.1654  0.8178
  151DOPC  C21718085   1.440   3.864  14.876 -0.5122  0.4347 -0.5453
  151DOPC  H17R18086   1.365   3.832  14.951 -0.0318  1.5047  0.4190
  151DOPC  H17S18087   1.400   3.849  14.773 -0.3790  2.3623 -0.9058
  151DOPC  C21818088   1.460   4.006  14.902 -0.6393 -0.8622  0.1492
  151DOPC  H18R18089   1.461   4.033  15.010 -1.2699  1.6919 -0.4320
  151DOPC  H18S18090   1.368   4.058  14.870 -0.7858 -0.9487  0.4317
  151DOPC  H18T18091   1.556   4.036  14.855 -0.6028  0.0796  0.8028
  151DOPC   C3318092   1.288   3.605  16.101  0.0258 -0.6618 -0.0656
  151DOPC   H3X18093   1.301   3.714  16.085  1.8781 -0.3602  2.8864
  151DOPC   H3Y18094   1.183   3.584  16.132 -0.5970  2.2690  0.0318
  151DOPC   C3418095   1.328   3.538  15.963 -0.4754 -0.0423 -0.1333
  151DOPC   H4X18096   1.348   3.429  15.973 -1.3655 -0.2626 -0.7479
  151DOPC   H4Y18097   1.431   3.574  15.941 -0.7130  0.3183 -0.6583
  151DOPC   C3518098   1.223   3.561  15.854  0.1011  0.4185  0.8867
  151DOPC   H5X18099   1.124   3.525  15.889 -0.3353  1.1907  0.4784
  151DOPC   H5Y18100   1.250   3.491  15.772  0.7259 -1.9152  2.9537
  151DOPC   C3618101   1.194   3.701  15.815 -0.6533 -0.0064  0.0363
  151DOPC   H6X18102   1.159   3.746  15.910  1.3233  1.9886 -0.0963
  151DOPC   H6Y18103   1.287   3.750  15.778 -1.3245  1.6688  0.4659
  151DOPC   C3718104   1.085   3.707  15.707 -0.3038  0.1095  0.6371
  151DOPC   H7X18105   1.076   3.815  15.682  2.0352  0.0283 -0.9085
  151DOPC   H7Y18106   1.121   3.644  15.622  3.3340 -0.4328  2.3614
  151DOPC   C3818107   0.942   3.656  15.755 -0.5439 -0.1693 -0.0059
  151DOPC   H8X18108   0.952   3.558  15.807  0.9392 -0.0762 -0.0791
  151DOPC   H8Y18109   0.888   3.641  15.659  0.4972 -0.5372 -0.5597
  151DOPC   C3918110   0.863   3.753  15.841  0.2845  0.0887 -0.0734
  151DOPC   H9X18111   0.924   3.794  15.922 -1.9609  0.3919  1.5632
  151DOPC  C31018112   0.736   3.801  15.824 -0.2133 -0.3993 -0.0749
  151DOPC  H10X18113   0.695   3.874  15.895 -0.0217 -0.0026 -0.3713
  151DOPC  C31118114   0.650   3.767  15.702  0.5513  0.1377 -0.1828
  151DOPC  H11X18115   0.543   3.782  15.726  0.1355 -0.9837 -1.2295
  151DOPC  H11Y18116   0.674   3.662  15.672  1.6553  0.1390  0.6074
  151DOPC  C31218117   0.696   3.845  15.581 -0.3152  0.2664 -0.6520
  151DOPC  H12X18118   0.650   3.801  15.489 -0.9021 -1.0249  0.2212
  151DOPC  H12Y18119   0.806   3.839  15.563  0.2056  0.3800  2.1026
  151DOPC  C31318120   0.657   3.995  15.571 -0.3234  0.7843 -0.9140
  151DOPC  H13X18121   0.571   4.011  15.639  0.8425  0.2976  0.7404
  151DOPC  H13Y18122   0.736   4.067  15.604  1.3817 -1.1312 -0.5929
  151DOPC  C31418123   0.615   4.036  15.426  0.0170 -0.0467 -0.1954
  151DOPC  H14X18124   0.696   4.012  15.355  0.6358  0.5541  0.2959
  151DOPC  H14Y18125   0.526   3.976  15.399 -0.6311  0.1573  1.3661
  151DOPC  C31518126   0.585   4.183  15.423  0.6652  0.3260 -0.1387
  151DOPC  H15X18127   0.596   4.238  15.326  0.4185  2.0427  0.7645
  151DOPC  H15Y18128   0.665   4.235  15.480  1.0746 -0.8977  0.4199
  151DOPC  C31618129   0.452   4.219  15.486 -0.2834  0.4649  0.3192
  151DOPC  H16X18130   0.379   4.194  15.406  0.5290 -1.8278  0.1909
  151DOPC  H16Y18131   0.428   4.159  15.576 -0.6015  0.9826  0.5818
  151DOPC  C31718132   0.430   4.366  15.516 -0.0934 -0.2134  0.0557
  151DOPC  H17X18133   0.508   4.388  15.592  1.2790 -5.2281  0.4158
  151DOPC  H17Y18134   0.448   4.432  15.428 -0.6383  1.5076  1.1761
  151DOPC  C31818135   0.293   4.400  15.581  0.3306  0.1840  0.7446
  151DOPC  H18X18136   0.275   4.507  15.608 -0.2344 -0.0853  1.4824
  151DOPC  H18Y18137   0.222   4.358  15.507  1.3260  1.2181 -0.8359
  151DOPC  H18Z18138   0.280   4.337  15.672  0.3556  0.5407  1.0009
  152DOPC     N18139   4.576   1.532  17.217 -0.1243 -0.0238 -0.3791
  152DOPC   C1218140   4.537   1.545  17.066 -0.2364 -0.2837  0.6422
  152DOPC  H12A18141   4.492   1.449  17.042  0.3060 -1.2432  3.1622
  152DOPC  H12B18142   4.628   1.542  17.007  0.4927 -0.7182  1.7389
  152DOPC   C1318143   4.452   1.498  17.291  0.0249  0.6868  0.1119
  152DOPC  H13A18144   4.459   1.511  17.397  2.3024  0.6731 -0.0001
  152DOPC  H13B18145   4.375   1.570  17.265 -0.1972  0.0645 -1.0281
  152DOPC  H13C18146   4.413   1.399  17.273 -0.3564  0.7191  0.7318
  152DOPC   C1418147   4.629   1.654  17.263 -0.8600  0.8757  0.1477
  152DOPC  H14A18148   4.690   1.699  17.185 -1.0655 -1.5273 -1.5159
  152DOPC  H14B18149   4.550   1.727  17.273 -0.7785  1.1912 -1.2331
  152DOPC  H14C18150   4.683   1.655  17.357 -2.4630  1.0528  1.0965
  152DOPC   C1518151   4.678   1.424  17.232 -0.1773  0.0843 -0.7032
  152DOPC  H15A18152   4.638   1.332  17.192 -0.0269 -0.8517  1.1918
  152DOPC  H15B18153   4.704   1.411  17.336 -3.9274 -1.2875  0.1934
  152DOPC  H15C18154   4.764   1.456  17.175 -0.8375  1.3562 -1.0458
  152DOPC   C1118155   4.437   1.650  17.024  0.3409  0.6894 -0.6495
  152DOPC  H11A18156   4.464   1.752  17.059  0.5816  1.3078 -2.4975
  152DOPC  H11B18157   4.432   1.659  16.913 -1.0609 -0.2755 -0.6982
  152DOPC     P18158   4.221   1.502  17.012 -0.3122  0.2225 -0.1982
  152DOPC   O1318159   4.102   1.491  17.099  0.1000  0.5345  0.2682
  152DOPC   O1418160   4.306   1.378  16.992 -0.0640 -0.6625  0.0459
  152DOPC   O1218161   4.311   1.616  17.070 -0.1252  0.0098  0.7515
  152DOPC   O1118162   4.175   1.566  16.878  0.4913 -0.3623  0.1326
  152DOPC    C118163   4.082   1.678  16.866  0.2628  0.4132 -0.1026
  152DOPC    HA18164   4.125   1.724  16.774  1.7358  0.3047  0.5118
  152DOPC    HB18165   4.090   1.761  16.939  1.8223  0.7042 -0.5641
  152DOPC    C218166   3.934   1.645  16.840  0.3169 -0.1339  0.3053
  152DOPC    HS18167   3.904   1.569  16.914  0.3640 -1.9662 -1.4796
  152DOPC   O2118168   3.916   1.593  16.709  0.5748 -0.3477 -0.8743
  152DOPC   C2118169   3.805   1.524  16.687 -0.4357 -0.0524  0.1061
  152DOPC   O2218170   3.726   1.492  16.774  0.5904  0.7041  0.8685
  152DOPC   C2218171   3.791   1.481  16.541 -0.3708 -1.0708  0.2022
  152DOPC   H2R18172   3.775   1.577  16.489  0.2186 -0.7725  0.5602
  152DOPC   H2S18173   3.691   1.436  16.524 -0.8430  0.1555 -0.2973
  152DOPC    C318174   3.846   1.776  16.867  0.6903 -0.1689  0.0617
  152DOPC    HX18175   3.869   1.820  16.967 -1.3891  2.3351 -0.4595
  152DOPC    HY18176   3.740   1.748  16.883  0.9481 -0.7123  0.8708
  152DOPC   O3118177   3.873   1.876  16.769 -0.2602  1.1514 -0.0563
  152DOPC   C3118178   3.777   1.949  16.724  0.1401  0.4500 -0.0379
  152DOPC   O3218179   3.660   1.943  16.764  0.3244  0.4907  0.3099
  152DOPC   C3218180   3.832   2.055  16.627 -0.0361 -0.3734 -0.0297
  152DOPC   H2X18181   3.923   2.100  16.673  0.2738 -0.9311 -0.0878
  152DOPC   H2Y18182   3.867   2.000  16.537 -0.0412  0.2881 -0.4383
  152DOPC   C2318183   3.915   1.401  16.493 -0.4086 -0.5499  0.4966
  152DOPC   H3R18184   3.933   1.310  16.555 -0.0210 -1.9910 -1.5908
  152DOPC   H3S18185   4.010   1.458  16.485 -1.5809  1.4872  0.3880
  152DOPC   C2418186   3.890   1.352  16.346  0.3069  0.3995 -0.3140
  152DOPC   H4R18187   3.889   1.446  16.287  1.0489  0.9139  0.4722
  152DOPC   H4S18188   3.791   1.301  16.346  0.3347  0.2708  1.4723
  152DOPC   C2518189   4.004   1.256  16.310 -0.4973 -0.2067 -0.5112
  152DOPC   H5R18190   4.000   1.169  16.379 -0.2925 -1.4703 -2.0176
  152DOPC   H5S18191   4.099   1.309  16.331  0.0049 -1.1757 -0.2549
  152DOPC   C2618192   3.999   1.207  16.163 -0.1130  0.3365 -0.1160
  152DOPC   H6R18193   3.920   1.129  16.153 -1.7135  2.1346 -3.0338
  152DOPC   H6S18194   4.092   1.152  16.141  0.1970  0.2371  1.3302
  152DOPC   C2718195   3.971   1.312  16.057 -0.0830 -0.3306 -0.5133
  152DOPC   H7R18196   4.049   1.391  16.056 -0.4631  0.1445  1.7518
  152DOPC   H7S18197   3.873   1.364  16.065  0.3765  0.3382  0.9768
  152DOPC   C2818198   3.967   1.256  15.909  0.2387 -0.2095  0.1804
  152DOPC   H8R18199   3.877   1.191  15.906  0.4545 -0.5588  0.9868
  152DOPC   H8S18200   4.053   1.187  15.890  0.9555  0.2796  1.4529
  152DOPC   C2918201   3.965   1.364  15.804  0.7827  0.5957 -0.0748
  152DOPC   H9R18202   3.936   1.466  15.835 -2.2835  0.5330 -2.2404
  152DOPC  C21018203   4.007   1.369  15.676 -0.0304  0.9637 -0.3464
  152DOPC  H10R18204   3.992   1.468  15.631  1.4595  1.0519 -0.6867
  152DOPC  C21118205   4.069   1.250  15.608 -0.1406 -0.1614 -0.1386
  152DOPC  H11R18206   4.031   1.157  15.654  2.6184  0.0083  2.8561
  152DOPC  H11S18207   4.178   1.254  15.631 -0.2091 -0.1794  0.1856
  152DOPC  C21218208   4.037   1.257  15.457  0.0988 -0.5314 -0.2897
  152DOPC  H12R18209   4.101   1.178  15.411  0.9684  0.2708 -0.4928
  152DOPC  H12S18210   4.073   1.349  15.406  2.2016  0.0846  2.1022
  152DOPC  C21318211   3.890   1.230  15.440 -0.0389 -1.0252  0.6407
  152DOPC  H13R18212   3.835   1.308  15.497  0.6593 -0.1206  0.0960
  152DOPC  H13S18213   3.849   1.131  15.470 -2.8459 -0.1554 -0.0415
  152DOPC  C21418214   3.854   1.257  15.290  0.1874  0.5108  1.0162
  152DOPC  H14R18215   3.905   1.351  15.261  0.0721  0.7106  1.4598
  152DOPC  H14S18216   3.743   1.260  15.296  0.1556  0.2047  0.6241
  152DOPC  C21518217   3.883   1.137  15.199 -0.6232 -0.5434  0.1355
  152DOPC  H15R18218   3.816   1.152  15.113 -1.9505 -1.1931  1.0252
  152DOPC  H15S18219   3.856   1.046  15.256  0.3255 -2.2425 -1.9993
  152DOPC  C21618220   4.024   1.122  15.130  0.3224 -1.0670  0.2377
  152DOPC  H16R18221   4.100   1.107  15.210 -1.1187 -0.0422  1.8957
  152DOPC  H16S18222   4.056   1.221  15.090 -3.2383  0.3833  0.5979
  152DOPC  C21718223   4.023   1.023  15.023 -0.0195 -0.0344 -0.0888
  152DOPC  H17R18224   4.126   1.008  14.985  0.5521 -0.2441  1.4874
  152DOPC  H17S18225   3.953   1.050  14.941  1.0698  0.4358 -0.8950
  152DOPC  C21818226   3.996   0.878  15.067 -0.2862  0.8185  0.3142
  152DOPC  H18R18227   4.014   0.799  14.992  0.8217  1.4384 -0.0995
  152DOPC  H18S18228   3.891   0.860  15.099 -0.0888 -0.8418  0.0807
  152DOPC  H18T18229   4.062   0.855  15.153 -0.7859  0.3380  0.5742
  152DOPC   C3318230   3.730   2.163  16.593 -0.0780  0.0071 -0.1170
  152DOPC   H3X18231   3.704   2.208  16.692 -4.0510 -1.3989 -0.3513
  152DOPC   H3Y18232   3.628   2.128  16.569  0.7206 -1.1184 -2.1142
  152DOPC   C3418233   3.781   2.246  16.475  0.1375 -0.1464  0.2952
  152DOPC   H4X18234   3.886   2.271  16.504  0.1526 -1.5467  1.5671
  152DOPC   H4Y18235   3.726   2.342  16.472 -0.2979 -0.4186 -0.7366
  152DOPC   C3518236   3.760   2.173  16.340  0.6601 -0.5034 -0.9607
  152DOPC   H5X18237   3.661   2.206  16.301 -1.5746 -2.3807  2.5771
  152DOPC   H5Y18238   3.732   2.066  16.348 -1.6353 -0.1214 -2.7919
  152DOPC   C3618239   3.875   2.182  16.237 -0.5252  1.2034 -0.4475
  152DOPC   H6X18240   3.932   2.278  16.229  0.7081  0.7465  1.9787
  152DOPC   H6Y18241   3.957   2.118  16.277  1.3278  2.1618 -2.4390
  152DOPC   C3718242   3.836   2.135  16.093 -0.9599 -0.7173 -0.6987
  152DOPC   H7X18243   3.840   2.024  16.096 -0.5303 -0.6923 -0.1994
  152DOPC   H7Y18244   3.734   2.169  16.065 -0.2568 -0.1244 -2.7706
  152DOPC   C3818245   3.940   2.197  15.996 -0.2239  1.2442  0.2533
  152DOPC   H8X18246   4.041   2.168  16.031 -0.0047  0.2273 -1.1286
  152DOPC   H8Y18247   3.936   2.308  15.999  0.9580  1.2811  0.8145
  152DOPC   C3918248   3.913   2.155  15.850  0.7444 -0.2306  0.1955
  152DOPC   H9X18249   3.830   2.214  15.809  0.5561  1.0525  2.2640
  152DOPC  C31018250   3.974   2.067  15.771 -0.1355  0.3890 -0.5346
  152DOPC  H10X18251   3.937   2.037  15.672 -0.3087 -2.7527  0.3746
  152DOPC  C31118252   4.097   1.988  15.814 -0.8053  0.1404  0.1945
  152DOPC  H11X18253   4.153   2.046  15.890  2.5792 -0.8504 -1.3489
  152DOPC  H11Y18254   4.174   1.965  15.738 -0.1280 -2.6718  1.5772
  152DOPC  C31218255   4.062   1.853  15.874  0.3995 -0.2937 -0.1594
  152DOPC  H12X18256   4.015   1.788  15.797 -1.0209 -1.2370  1.4486
  152DOPC  H12Y18257   3.982   1.849  15.951  0.3284  1.1252 -0.1328
  152DOPC  C31318258   4.190   1.774  15.923 -0.0839  0.6461 -0.1929
  152DOPC  H13X18259   4.160   1.669  15.943 -0.0202  0.7800  0.6374
  152DOPC  H13Y18260   4.262   1.772  15.838 -1.0985 -2.9983 -1.1553
  152DOPC  C31418261   4.262   1.834  16.042  0.3848 -0.2323 -0.0967
  152DOPC  H14X18262   4.353   1.773  16.057  1.1240  0.7191 -0.6150
  152DOPC  H14Y18263   4.305   1.931  16.008  2.1416 -1.3057 -1.0826
  152DOPC  C31518264   4.153   1.845  16.162  0.5832  0.4116  0.0543
  152DOPC  H15X18265   4.074   1.912  16.122 -2.6034 -4.3198 -2.5047
  152DOPC  H15Y18266   4.211   1.893  16.243  0.8423  0.3947 -0.1209
  152DOPC  C31618267   4.098   1.706  16.213  0.5384 -0.6018  0.6452
  152DOPC  H16X18268   4.051   1.660  16.124 -1.5511 -1.7223  2.2308
  152DOPC  H16Y18269   4.182   1.647  16.257 -1.2663 -2.1152  2.2406
  152DOPC  C31718270   4.004   1.726  16.335 -0.3661  0.0735  0.3129
  152DOPC  H17X18271   3.922   1.794  16.303  0.0793  0.6077  0.2836
  152DOPC  H17Y18272   3.949   1.633  16.362 -0.3606  0.5128  1.9785
  152DOPC  C31818273   4.056   1.796  16.457  0.5190 -0.6693 -0.3860
  152DOPC  H18X18274   4.152   1.752  16.491  1.2512 -0.0408 -1.5603
  152DOPC  H18Y18275   4.074   1.902  16.426 -1.3514 -0.9624 -2.7727
  152DOPC  H18Z18276   3.983   1.787  16.540  2.1507 -0.8776  1.0669
  153DOPC     N18277   4.789   6.928  16.901 -0.1788  0.4738 -0.7978
  153DOPC   C1218278   4.759   6.777  16.881  0.0756 -1.0832  0.1717
  153DOPC  H12A18279   4.666   6.759  16.931 -0.3628  0.7977  0.1036
  153DOPC  H12B18280   4.830   6.722  16.941  0.0215  0.5363  1.7766
  153DOPC   C1318281   4.702   7.016  16.816  0.3992 -0.3080  0.8151
  153DOPC  H13A18282   4.600   6.986  16.837  0.7706 -2.7183 -0.4495
  153DOPC  H13B18283   4.723   7.120  16.835  0.3298 -0.2891  0.7937
  153DOPC  H13C18284   4.720   7.004  16.710 -2.7160  1.0146  0.0292
  153DOPC   C1418285   4.931   6.963  16.871  0.1383  0.2652  0.0545
  153DOPC  H14A18286   4.967   6.912  16.783 -1.6288 -3.9560  1.5428
  153DOPC  H14B18287   4.931   7.070  16.859 -0.8375  0.3225  0.4920
  153DOPC  H14C18288   4.996   6.937  16.954  0.0460 -0.9361 -0.2276
  153DOPC   C1518289   4.756   6.960  17.045 -0.0210  0.6267 -0.0005
  153DOPC  H15A18290   4.812   6.896  17.110 -0.7642 -0.4438 -0.3937
  153DOPC  H15B18291   4.651   6.939  17.060  0.1144  0.0904  0.2225
  153DOPC  H15C18292   4.764   7.064  17.075  0.9879  0.1178  1.5672
  153DOPC   C1118293   4.749   6.719  16.741 -0.3777 -0.1316 -0.1088
  153DOPC  H11A18294   4.713   6.614  16.739 -0.3118 -0.1423 -0.7463
  153DOPC  H11B18295   4.669   6.770  16.684 -1.2350 -0.9039  0.3752
  153DOPC     P18296   4.994   6.625  16.712 -0.0230 -0.1140 -0.0229
  153DOPC   O1318297   5.009   6.615  16.857 -0.2846 -0.1332 -0.1083
  153DOPC   O1418298   5.123   6.649  16.634 -0.1505  0.1086 -0.4756
  153DOPC   O1218299   4.879   6.727  16.679  0.2603  0.0798 -0.4203
  153DOPC   O1118300   4.925   6.489  16.659 -0.3186  0.0413 -0.6263
  153DOPC    C118301   4.948   6.459  16.522  0.3579 -0.1557  0.5862
  153DOPC    HA18302   4.929   6.350  16.519 -0.3044 -0.0846  1.5313
  153DOPC    HB18303   5.054   6.466  16.490 -0.2423  1.0276 -1.2956
  153DOPC    C218304   4.862   6.545  16.430  0.0481 -0.6587  1.0841
  153DOPC    HS18305   4.876   6.653  16.452 -1.3945 -0.8446  3.1447
  153DOPC   O2118306   4.724   6.516  16.464 -0.5654 -0.4761  0.0305
  153DOPC   C2118307   4.625   6.593  16.416 -0.5185 -0.7171  0.1909
  153DOPC   O2218308   4.643   6.697  16.356  0.1597 -0.3285  0.0331
  153DOPC   C2218309   4.495   6.513  16.429 -0.7230  0.4122  0.1250
  153DOPC   H2R18310   4.465   6.517  16.536 -1.4349 -0.2398 -0.0427
  153DOPC   H2S18311   4.520   6.409  16.397  0.6098  1.2745 -1.8423
  153DOPC    C318312   4.895   6.519  16.279  0.1051  0.3872  0.4674
  153DOPC    HX18313   5.001   6.552  16.273  0.1397  0.3217  0.7266
  153DOPC    HY18314   4.843   6.587  16.207 -1.3964 -0.5121  0.6484
  153DOPC   O3118315   4.908   6.379  16.246 -0.4346 -0.0292 -0.0445
  153DOPC   C3118316   4.798   6.312  16.219 -0.3761  0.7922  0.3546
  153DOPC   O3218317   4.683   6.354  16.220 -0.3979 -0.5113  0.2980
  153DOPC   C3218318   4.839   6.174  16.171 -0.0021 -0.6519  0.8153
  153DOPC   H2X18319   4.906   6.188  16.083 -1.2165  0.1876 -0.0057
  153DOPC   H2Y18320   4.902   6.118  16.243  2.9478  1.6331  0.2323
  153DOPC   C2318321   4.386   6.569  16.330 -0.0204 -0.2839  0.7120
  153DOPC   H3R18322   4.351   6.673  16.348 -0.7259 -0.3192 -0.3761
  153DOPC   H3S18323   4.295   6.507  16.340  0.8376 -1.5691  0.8147
  153DOPC   C2418324   4.431   6.579  16.183  0.5599  0.2899 -0.2334
  153DOPC   H4R18325   4.460   6.476  16.152 -1.4450 -0.3422 -0.2106
  153DOPC   H4S18326   4.515   6.647  16.159  2.1463 -1.2824  0.5774
  153DOPC   C2518327   4.320   6.620  16.082  0.1915 -0.3740 -0.0133
  153DOPC   H5R18328   4.266   6.714  16.105  1.7302 -0.0229  2.4930
  153DOPC   H5S18329   4.243   6.539  16.079  0.3032 -0.4635 -0.8583
  153DOPC   C2618330   4.381   6.620  15.941 -0.4871  0.4292 -0.1874
  153DOPC   H6R18331   4.399   6.520  15.895 -1.6004  0.4969 -0.8053
  153DOPC   H6S18332   4.482   6.666  15.950 -0.8260  1.2736 -0.6469
  153DOPC   C2718333   4.311   6.703  15.830  0.3221  0.5872  0.4741
  153DOPC   H7R18334   4.384   6.751  15.761  0.6914  1.8391  1.6871
  153DOPC   H7S18335   4.261   6.785  15.887 -0.3276 -1.0825  2.4048
  153DOPC   C2818336   4.204   6.632  15.743 -0.4379 -0.0241 -0.0386
  153DOPC   H8R18337   4.174   6.699  15.660 -1.1890 -0.5461 -0.1917
  153DOPC   H8S18338   4.115   6.606  15.804  0.7922  0.6714  2.1952
  153DOPC   C2918339   4.251   6.506  15.682 -0.2230  0.0179  0.2078
  153DOPC   H9R18340   4.209   6.416  15.729 -0.3467 -0.0348 -0.0061
  153DOPC  C21018341   4.325   6.488  15.574 -0.9816  1.1789  0.1572
  153DOPC  H10R18342   4.352   6.383  15.558  1.4752  1.3438  2.4132
  153DOPC  C21118343   4.385   6.586  15.485  0.4457  0.5550 -0.4861
  153DOPC  H11R18344   4.492   6.555  15.473  0.3730  0.5539 -1.1954
  153DOPC  H11S18345   4.386   6.684  15.538 -1.2875  0.0854  0.4895
  153DOPC  C21218346   4.335   6.587  15.335 -0.1507 -0.4800 -0.3860
  153DOPC  H12R18347   4.364   6.679  15.280  0.0623 -0.1350  0.2929
  153DOPC  H12S18348   4.224   6.588  15.344 -0.0713  1.1292  0.8514
  153DOPC  C21318349   4.385   6.463  15.258  0.2373  0.1940  0.5472
  153DOPC  H13R18350   4.333   6.378  15.307 -1.7111  1.0063 -0.0375
  153DOPC  H13S18351   4.496   6.470  15.265  0.1063  0.5642  3.7691
  153DOPC  C21418352   4.334   6.461  15.109  0.0650 -0.1518 -1.5739
  153DOPC  H14R18353   4.331   6.566  15.073 -0.5703  0.4520  0.1330
  153DOPC  H14S18354   4.226   6.434  15.104 -0.2318  1.0724 -2.2040
  153DOPC  C21518355   4.429   6.376  15.022 -0.3286 -0.1159  0.0986
  153DOPC  H15R18356   4.440   6.288  15.088 -1.3255 -1.2407 -1.1917
  153DOPC  H15S18357   4.528   6.423  15.003  0.7810 -2.7406 -1.0093
  153DOPC  C21618358   4.356   6.331  14.897 -0.5443  0.1585  0.3605
  153DOPC  H16R18359   4.322   6.416  14.834 -1.6582 -1.9260 -2.0703
  153DOPC  H16S18360   4.255   6.294  14.924 -1.3084  0.6640 -1.6018
  153DOPC  C21718361   4.447   6.238  14.817  0.1218  0.1374 -0.2774
  153DOPC  H17R18362   4.482   6.156  14.883 -0.7665  0.8166  1.0904
  153DOPC  H17S18363   4.536   6.300  14.795  0.5273 -0.2062  0.3491
  153DOPC  C21818364   4.384   6.187  14.697  0.3748  0.2959 -0.1127
  153DOPC  H18R18365   4.334   6.270  14.642 -0.8287  0.0931  0.6478
  153DOPC  H18S18366   4.301   6.123  14.735  0.7711  0.6978  1.4952
  153DOPC  H18T18367   4.451   6.121  14.638  1.0955  1.7245 -0.9688
  153DOPC   C3318368   4.719   6.092  16.128  0.1061 -0.1721  0.3133
  153DOPC   H3X18369   4.673   6.162  16.055  1.0481  0.0716 -0.0683
  153DOPC   H3Y18370   4.642   6.083  16.207 -1.3956  1.0312 -0.9400
  153DOPC   C3418371   4.758   5.958  16.070  0.6275 -0.4357 -0.0970
  153DOPC   H4X18372   4.816   5.898  16.144  3.1152  2.0248  0.1057
  153DOPC   H4Y18373   4.834   5.966  15.990  1.8554  0.0567  1.0848
  153DOPC   C3518374   4.644   5.889  15.996  0.9982  0.0001 -0.7891
  153DOPC   H5X18375   4.604   5.962  15.921 -2.6155 -1.1583 -0.2021
  153DOPC   H5Y18376   4.567   5.860  16.070 -0.2733 -0.9888 -2.4075
  153DOPC   C3618377   4.686   5.769  15.921 -0.4695  0.5195  0.7273
  153DOPC   H6X18378   4.601   5.731  15.860  0.6476 -0.5594 -0.2349
  153DOPC   H6Y18379   4.768   5.807  15.856 -1.3398  0.8740 -0.1869
  153DOPC   C3718380   4.731   5.640  16.004  0.0039  0.1989  0.1506
  153DOPC   H7X18381   4.807   5.671  16.079 -1.5255  2.7748  0.7750
  153DOPC   H7Y18382   4.649   5.583  16.053  1.4191 -0.1662  2.1998
  153DOPC   C3818383   4.816   5.543  15.913  0.1405  0.1770  0.2043
  153DOPC   H8X18384   4.856   5.461  15.976  1.3364  2.1764  2.1851
  153DOPC   H8Y18385   4.903   5.610  15.891 -1.0555  1.8140  0.2486
  153DOPC   C3918386   4.751   5.490  15.782 -0.5267 -0.4533 -0.0753
  153DOPC   H9X18387   4.678   5.408  15.786 -2.0028  0.7734 -0.6730
  153DOPC  C31018388   4.770   5.550  15.660  0.1227 -0.1244  0.6157
  153DOPC  H10X18389   4.720   5.509  15.571  0.2346  1.9678 -0.4776
  153DOPC  C31118390   4.856   5.663  15.622  0.4196 -0.3042  0.8693
  153DOPC  H11X18391   4.898   5.716  15.710 -1.9290  2.4089  0.5121
  153DOPC  H11Y18392   4.788   5.743  15.586  0.6233 -0.7746 -0.6327
  153DOPC  C31218393   4.959   5.622  15.516  0.1122  0.0708  0.1180
  153DOPC  H12X18394   5.031   5.545  15.551  2.6032  1.7644 -1.0182
  153DOPC  H12Y18395   5.027   5.707  15.496 -0.0441 -0.0225 -0.8927
  153DOPC  C31318396   4.899   5.596  15.375  0.0340  0.0876 -0.5649
  153DOPC  H13X18397   4.837   5.503  15.373  0.8259 -0.4507 -0.1732
  153DOPC  H13Y18398   4.825   5.677  15.355 -1.7971 -1.0010  1.3904
  153DOPC  C31418399   5.001   5.592  15.260 -0.5109 -0.9071 -0.2591
  153DOPC  H14X18400   5.062   5.683  15.279  0.5581 -1.5540 -0.5347
  153DOPC  H14Y18401   5.077   5.512  15.271  1.0011  0.4523 -0.3642
  153DOPC  C31518402   4.927   5.584  15.132  0.5280  0.7982 -0.0274
  153DOPC  H15X18403   4.863   5.673  15.115 -0.7923 -0.2983 -1.0276
  153DOPC  H15Y18404   4.866   5.491  15.133  3.4783 -1.2848  1.1314
  153DOPC  C31618405   5.025   5.573  15.020 -0.1640  0.3001  0.5325
  153DOPC  H16X18406   5.060   5.666  14.971  2.6223 -2.4705 -3.4374
  153DOPC  H16Y18407   5.111   5.516  15.062  1.0032  0.8379 -0.9936
  153DOPC  C31718408   4.974   5.491  14.900 -0.1513  0.4758 -0.4371
  153DOPC  H17X18409   5.053   5.465  14.826  1.0276 -1.6624  1.4669
  153DOPC  H17Y18410   4.961   5.392  14.948  1.5085  1.2609  1.7983
  153DOPC  C31818411   4.845   5.535  14.827 -0.3219 -0.5300  0.2691
  153DOPC  H18X18412   4.772   5.560  14.907 -1.4168  0.3769 -0.9697
  153DOPC  H18Y18413   4.863   5.632  14.775  0.8599 -1.0877 -0.3970
  153DOPC  H18Z18414   4.811   5.455  14.757 -2.5706 -0.8808  1.6665
  154DOPC     N18415   7.549   3.817  17.127  0.3547  0.0819 -0.3056
  154DOPC   C1218416   7.541   3.731  16.999  0.5499  0.3804 -0.3179
  154DOPC  H12A18417   7.480   3.646  17.025  3.2291 -1.4797  0.2612
  154DOPC  H12B18418   7.637   3.686  16.981 -0.0895 -1.0820 -0.1566
  154DOPC   C1318419   7.637   3.938  17.103  0.4520 -0.4350 -0.1153
  154DOPC  H13A18420   7.632   4.012  17.182  0.3867  0.1932 -0.6955
  154DOPC  H13B18421   7.740   3.916  17.083  0.9849  0.0756  1.8205
  154DOPC  H13C18422   7.591   3.991  17.021 -0.4477 -0.7932  0.1433
  154DOPC   C1418423   7.608   3.728  17.240 -0.1996  0.0200  0.3701
  154DOPC  H14A18424   7.711   3.704  17.221 -0.6249 -0.6614 -1.3022
  154DOPC  H14B18425   7.614   3.789  17.329 -0.2722 -1.5662  1.5019
  154DOPC  H14C18426   7.545   3.642  17.252 -1.2503  0.6326 -0.5431
  154DOPC   C1518427   7.413   3.863  17.175 -0.2150 -0.1264  0.8604
  154DOPC  H15A18428   7.351   3.781  17.206 -0.6822 -1.2832 -2.7621
  154DOPC  H15B18429   7.364   3.916  17.095  1.3126 -1.2511 -0.8903
  154DOPC  H15C18430   7.422   3.933  17.257 -1.4752  0.2410  0.7152
  154DOPC   C1118431   7.500   3.804  16.865 -0.2573  0.0099  0.2808
  154DOPC  H11A18432   7.568   3.891  16.850  1.1078 -0.4252  3.3039
  154DOPC  H11B18433   7.528   3.745  16.775  1.7558  2.3260 -0.7282
  154DOPC     P18434   7.252   3.765  16.836 -0.0686  0.1552 -0.5051
  154DOPC   O1318435   7.130   3.847  16.839  0.4159 -0.6031  0.3404
  154DOPC   O1418436   7.251   3.642  16.918  0.1018  0.2498  0.1691
  154DOPC   O1218437   7.373   3.854  16.869  0.6573 -0.5845  0.5490
  154DOPC   O1118438   7.286   3.721  16.690 -0.2737 -0.1691 -0.7146
  154DOPC    C118439   7.222   3.773  16.576 -0.8411 -0.4118  0.5418
  154DOPC    HA18440   7.115   3.798  16.590 -0.7129  0.4566  0.0273
  154DOPC    HB18441   7.233   3.699  16.494  1.3888 -1.3455  1.5840
  154DOPC    C218442   7.278   3.908  16.539 -0.3734 -0.4001 -0.2375
  154DOPC    HS18443   7.385   3.895  16.516  0.3185  0.4481  2.1760
  154DOPC   O2118444   7.251   4.007  16.644  0.1501 -0.2180  0.6002
  154DOPC   C2118445   7.357   4.086  16.677  0.3184  0.7198  0.4841
  154DOPC   O2218446   7.468   4.067  16.627 -0.0269  0.2594  0.3192
  154DOPC   C2218447   7.311   4.197  16.783 -0.0922  0.5002  0.7302
  154DOPC   H2R18448   7.338   4.155  16.882  1.5223  2.7248  1.3164
  154DOPC   H2S18449   7.202   4.201  16.765  0.1867 -0.1018 -1.3030
  154DOPC    C318450   7.212   3.963  16.409 -0.5713 -0.5168 -0.2818
  154DOPC    HX18451   7.249   3.907  16.320 -0.6902  0.1529 -0.7637
  154DOPC    HY18452   7.246   4.068  16.394 -0.0409 -0.7203 -0.5407
  154DOPC   O3118453   7.070   3.950  16.409  0.3987  0.0487 -0.0470
  154DOPC   C3118454   6.988   4.051  16.431  0.0490  0.3511 -0.5782
  154DOPC   O3218455   7.024   4.169  16.430  0.0413 -0.9325 -0.0347
  154DOPC   C3218456   6.849   3.991  16.446  0.2660  0.3656  0.8834
  154DOPC   H2X18457   6.822   3.931  16.356  0.3823  3.8180 -1.6836
  154DOPC   H2Y18458   6.837   3.927  16.536 -0.4509 -2.3205 -1.0067
  154DOPC   C2318459   7.371   4.334  16.759 -0.1364  0.1740  0.4415
  154DOPC   H3R18460   7.481   4.317  16.759 -0.3444 -1.8634  3.4932
  154DOPC   H3S18461   7.348   4.409  16.837  1.9194  3.1984 -1.6349
  154DOPC   C2418462   7.335   4.405  16.627  0.1283  0.1883 -0.2842
  154DOPC   H4R18463   7.234   4.450  16.636 -0.0513 -0.1159 -0.7972
  154DOPC   H4S18464   7.338   4.328  16.548 -0.4081 -1.3515  1.1513
  154DOPC   C2518465   7.435   4.506  16.583 -0.4040 -0.2015 -0.0708
  154DOPC   H5R18466   7.529   4.448  16.569 -0.6675 -0.3388 -1.3741
  154DOPC   H5S18467   7.442   4.588  16.658 -1.7787 -1.5960  1.6450
  154DOPC   C2618468   7.398   4.551  16.441 -0.5088 -0.0523  0.4567
  154DOPC   H6R18469   7.298   4.599  16.440  0.0559  1.1946  1.2246
  154DOPC   H6S18470   7.393   4.451  16.392 -1.0088 -0.7925  1.9564
  154DOPC   C2718471   7.497   4.657  16.378  0.6497  0.1591 -0.6752
  154DOPC   H7R18472   7.605   4.643  16.402  0.8990 -0.0028 -1.8082
  154DOPC   H7S18473   7.478   4.758  16.420  0.4794  0.9993 -2.6646
  154DOPC   C2818474   7.477   4.658  16.228  0.4354 -0.1761  0.1258
  154DOPC   H8R18475   7.514   4.560  16.192  0.7391  0.1002 -0.3337
  154DOPC   H8S18476   7.553   4.729  16.187 -1.3202  1.1267 -1.0734
  154DOPC   C2918477   7.338   4.697  16.182  0.2362 -0.6605  0.4223
  154DOPC   H9R18478   7.327   4.807  16.185  0.9279 -0.4618 -1.8621
  154DOPC  C21018479   7.254   4.617  16.118  0.1370  0.1332 -0.6032
  154DOPC  H10R18480   7.163   4.666  16.083 -0.7014 -1.5821 -0.9244
  154DOPC  C21118481   7.268   4.468  16.081  0.7680 -0.5150  0.3491
  154DOPC  H11R18482   7.369   4.422  16.088  0.2553 -1.6350  0.7530
  154DOPC  H11S18483   7.242   4.458  15.974 -0.6370 -0.1764  0.6350
  154DOPC  C21218484   7.180   4.369  16.160 -0.6828  0.2102 -0.3804
  154DOPC  H12R18485   7.072   4.384  16.142 -1.0340 -0.1687  1.2107
  154DOPC  H12S18486   7.200   4.395  16.266 -1.6490 -3.4324  0.8577
  154DOPC  C21318487   7.226   4.215  16.144  0.7387 -0.2004 -0.6349
  154DOPC  H13R18488   7.161   4.145  16.200 -0.5131  1.5011  0.1248
  154DOPC  H13S18489   7.331   4.208  16.180  0.9891  4.4931  0.1574
  154DOPC  C21418490   7.226   4.168  16.000 -0.2213 -0.3606 -0.3200
  154DOPC  H14R18491   7.282   4.073  15.991 -1.9687 -1.6672  1.5037
  154DOPC  H14S18492   7.276   4.254  15.951 -0.9781  0.5481  0.4429
  154DOPC  C21518493   7.096   4.133  15.937 -0.2635 -0.4839 -0.1314
  154DOPC  H15R18494   7.023   4.216  15.938 -0.1525 -0.3869  0.6388
  154DOPC  H15S18495   7.053   4.052  15.999  0.1401 -0.0896  0.6731
  154DOPC  C21618496   7.102   4.086  15.791 -0.2376 -0.1045 -0.1195
  154DOPC  H16R18497   7.157   3.989  15.795  1.3678  0.7849  3.0031
  154DOPC  H16S18498   7.169   4.149  15.730 -0.9627  0.4463 -0.3541
  154DOPC  C21718499   6.964   4.057  15.727  0.3728  0.6284  0.5048
  154DOPC  H17R18500   6.918   4.158  15.723  1.5466  1.1950 -3.6979
  154DOPC  H17S18501   6.901   3.986  15.785 -0.2486 -1.2001 -2.2515
  154DOPC  C21818502   6.964   4.008  15.581 -0.0653 -0.2347 -0.6542
  154DOPC  H18R18503   6.859   3.981  15.556 -0.4275 -1.5869  1.9327
  154DOPC  H18S18504   7.026   3.918  15.561 -1.5915 -1.5842  0.3484
  154DOPC  H18T18505   7.005   4.085  15.513 -0.7433  0.4055 -0.3467
  154DOPC   C3318506   6.744   4.103  16.477  0.0822  0.5720  0.1623
  154DOPC   H3X18507   6.758   4.172  16.563  2.2098  1.9434 -1.1865
  154DOPC   H3Y18508   6.650   4.051  16.505 -1.3628  2.7889 -0.3287
  154DOPC   C3418509   6.693   4.186  16.356  0.2377 -0.0282 -0.1773
  154DOPC   H4X18510   6.769   4.257  16.316  0.6932 -0.5323 -0.2158
  154DOPC   H4Y18511   6.605   4.244  16.391 -1.6029 -2.1914 -0.9563
  154DOPC   C3518512   6.658   4.114  16.229 -0.5669 -0.7063  0.0036
  154DOPC   H5X18513   6.600   4.022  16.251  1.3904 -1.4730  2.3469
  154DOPC   H5Y18514   6.757   4.087  16.187 -0.5158  0.3932 -0.6336
  154DOPC   C3618515   6.581   4.198  16.131 -0.2510 -0.7460  0.2091
  154DOPC   H6X18516   6.476   4.204  16.168  0.1486 -0.4005  1.3411
  154DOPC   H6Y18517   6.625   4.300  16.139 -0.6449 -0.6968  2.2228
  154DOPC   C3718518   6.577   4.135  15.986 -0.0012 -0.2164  0.0315
  154DOPC   H7X18519   6.675   4.152  15.938 -0.3532  0.2837 -0.5206
  154DOPC   H7Y18520   6.551   4.027  15.992  0.7104 -0.4972 -1.6663
  154DOPC   C3818521   6.457   4.204  15.905  0.0503 -0.5939  0.2554
  154DOPC   H8X18522   6.476   4.313  15.916  2.2342 -1.0432  1.2570
  154DOPC   H8Y18523   6.352   4.185  15.938 -0.4303 -0.0965 -0.8977
  154DOPC   C3918524   6.463   4.162  15.759  0.8115  0.0796 -0.3406
  154DOPC   H9X18525   6.515   4.069  15.732 -0.8847 -0.8252 -0.6571
  154DOPC  C31018526   6.417   4.229  15.653 -0.1258 -0.9223  0.4677
  154DOPC  H10X18527   6.424   4.198  15.548  4.3476  0.4889  0.1333
  154DOPC  C31118528   6.352   4.364  15.665 -0.2533  0.0080 -0.2066
  154DOPC  H11X18529   6.399   4.421  15.748 -0.2277 -0.7452  0.3008
  154DOPC  H11Y18530   6.241   4.363  15.671 -0.2867  1.7442 -0.0764
  154DOPC  C31218531   6.385   4.443  15.545 -0.3950 -0.1862  0.5817
  154DOPC  H12X18532   6.331   4.398  15.459 -0.0046  0.1616  0.1507
  154DOPC  H12Y18533   6.496   4.446  15.539 -0.4117  3.5779 -1.3630
  154DOPC  C31318534   6.350   4.595  15.538 -0.1533  0.1560  0.0430
  154DOPC  H13X18535   6.241   4.602  15.561  0.0989  1.4164  1.0084
  154DOPC  H13Y18536   6.404   4.643  15.623  1.8874 -1.8702 -0.0109
  154DOPC  C31418537   6.371   4.662  15.400 -0.6862 -0.3287  0.7092
  154DOPC  H14X18538   6.478   4.651  15.370 -0.6723  0.3677  0.4866
  154DOPC  H14Y18539   6.308   4.610  15.325 -0.9657  1.1638 -0.1219
  154DOPC  C31518540   6.325   4.813  15.397  0.2078 -0.3446 -0.0878
  154DOPC  H15X18541   6.396   4.872  15.459  0.4762 -0.9344  0.1769
  154DOPC  H15Y18542   6.229   4.839  15.447 -0.3369 -2.2027 -0.1002
  154DOPC  C31618543   6.312   4.853  15.258  0.2076 -0.3078  0.5316
  154DOPC  H16X18544   6.373   4.782  15.199 -2.9735 -1.8090 -1.2297
  154DOPC  H16Y18545   6.208   4.847  15.219  0.0706  2.8243  0.1026
  154DOPC  C31718546   6.352   5.004  15.235 -0.1157 -0.6782  0.0159
  154DOPC  H17X18547   6.304   5.037  15.141  1.1693  0.4521 -0.2805
  154DOPC  H17Y18548   6.304   5.061  15.318  0.0529  0.4618 -0.6542
  154DOPC  C31818549   6.500   5.037  15.238 -0.0729 -0.1598  0.6024
  154DOPC  H18X18550   6.545   5.006  15.335 -1.2728 -0.2608  1.1386
  154DOPC  H18Y18551   6.547   4.977  15.157  0.7002  0.5997  0.4744
  154DOPC  H18Z18552   6.520   5.145  15.222 -0.9028  0.1093  1.3364
  155DOPC     N18553   1.683   1.528  17.336 -0.1997  0.4651 -0.0595
  155DOPC   C1218554   1.623   1.601  17.216  0.0723  0.5684  0.3338
  155DOPC  H12A18555   1.633   1.708  17.218 -3.1617  1.0916 -2.4506
  155DOPC  H12B18556   1.517   1.588  17.232 -0.9380  2.6775 -3.3726
  155DOPC   C1318557   1.623   1.569  17.468 -0.3648 -0.6247 -0.7427
  155DOPC  H13A18558   1.668   1.662  17.500 -1.0555 -0.8448  0.9833
  155DOPC  H13B18559   1.515   1.579  17.468 -0.5180 -2.0855 -1.6046
  155DOPC  H13C18560   1.650   1.507  17.552  3.4779  2.4055  0.5549
  155DOPC   C1418561   1.833   1.545  17.337  0.4641  0.1935  0.3186
  155DOPC  H14A18562   1.851   1.651  17.348 -2.2628  0.7355  0.2917
  155DOPC  H14B18563   1.871   1.492  17.422  1.2835 -1.5187 -1.0503
  155DOPC  H14C18564   1.886   1.498  17.255  0.5245  1.2766 -0.2956
  155DOPC   C1518565   1.659   1.378  17.321 -0.5900  0.4668 -0.4460
  155DOPC  H15A18566   1.734   1.329  17.380  0.3636  1.6108 -0.6650
  155DOPC  H15B18567   1.675   1.351  17.217  0.3812  1.4780 -0.5836
  155DOPC  H15C18568   1.562   1.340  17.349 -0.3118 -1.6776 -2.1757
  155DOPC   C1118569   1.656   1.561  17.070 -0.5925 -0.0628 -0.1278
  155DOPC  H11A18570   1.602   1.641  17.015  0.6064  2.1341  1.6812
  155DOPC  H11B18571   1.762   1.573  17.040 -0.4367 -0.0284  0.4219
  155DOPC     P18572   1.460   1.396  16.988 -0.1417 -0.1800  0.1141
  155DOPC   O1318573   1.375   1.507  17.044 -0.1433 -0.3297  0.0951
  155DOPC   O1418574   1.425   1.255  17.031 -0.4589 -0.6062  0.4615
  155DOPC   O1218575   1.607   1.429  17.033 -0.1701  0.8635 -0.3430
  155DOPC   O1118576   1.462   1.418  16.836 -0.3317  0.2490 -0.6209
  155DOPC    C118577   1.567   1.395  16.744  0.0049 -0.2501  0.0879
  155DOPC    HA18578   1.532   1.335  16.657  2.6018 -1.0926 -0.4495
  155DOPC    HB18579   1.637   1.319  16.784 -0.1797  0.3391  1.5637
  155DOPC    C218580   1.640   1.529  16.712  0.2066  0.1202 -0.3968
  155DOPC    HS18581   1.692   1.563  16.805  0.7529 -0.8314 -0.3521
  155DOPC   O2118582   1.544   1.619  16.656  0.1717  0.3072 -0.0098
  155DOPC   C2118583   1.579   1.746  16.648 -0.0485 -0.1752  0.4192
  155DOPC   O2218584   1.683   1.789  16.687  0.1401  0.1163  0.2343
  155DOPC   C2218585   1.472   1.834  16.574 -0.8407 -0.1505  0.0484
  155DOPC   H2R18586   1.413   1.886  16.652 -1.1710 -1.0300  0.3977
  155DOPC   H2S18587   1.415   1.768  16.504  0.0248 -0.5110 -0.3323
  155DOPC    C318588   1.753   1.504  16.611 -0.3729  0.1885 -0.0834
  155DOPC    HX18589   1.827   1.450  16.674 -1.8539 -1.6691  0.1701
  155DOPC    HY18590   1.810   1.594  16.581 -1.8648  1.1674 -0.1030
  155DOPC   O3118591   1.722   1.415  16.505  0.4234  0.0355  0.2972
  155DOPC   C3118592   1.688   1.476  16.391 -1.1398 -0.5627  0.4760
  155DOPC   O3218593   1.716   1.593  16.364  0.0547 -0.0413  0.2321
  155DOPC   C3218594   1.601   1.397  16.294  0.2318  0.7314  0.3080
  155DOPC   H2X18595   1.640   1.402  16.191  1.1778 -1.0264  0.5504
  155DOPC   H2Y18596   1.616   1.293  16.330  2.0845  1.4276  1.7235
  155DOPC   C2318597   1.545   1.944  16.495  0.0342  0.0483 -0.3183
  155DOPC   H3R18598   1.633   1.908  16.437 -1.0332 -0.1883 -1.8589
  155DOPC   H3S18599   1.572   2.027  16.563 -2.6860  0.3627  0.4738
  155DOPC   C2418600   1.448   2.005  16.388 -0.3019 -0.1463  0.1062
  155DOPC   H4R18601   1.483   2.105  16.355  0.0935  0.2105  1.5096
  155DOPC   H4S18602   1.348   2.023  16.434 -1.3791  0.3976 -2.3019
  155DOPC   C2518603   1.404   1.914  16.279  0.1043  0.2684  0.2717
  155DOPC   H5R18604   1.336   1.830  16.304  0.0678 -0.0199 -0.7344
  155DOPC   H5S18605   1.494   1.874  16.230  1.1661  2.8474 -0.0629
  155DOPC   C2618606   1.324   1.986  16.163  0.8072 -0.5823 -0.6155
  155DOPC   H6R18607   1.244   2.055  16.197  0.9607  0.0689 -1.5492
  155DOPC   H6S18608   1.271   1.910  16.102  2.3327 -1.5651 -0.7865
  155DOPC   C2718609   1.413   2.052  16.055 -0.1366  0.0453 -0.7148
  155DOPC   H7R18610   1.495   1.981  16.032  0.4981  1.0275 -1.5585
  155DOPC   H7S18611   1.470   2.138  16.097  2.5416 -1.1850 -1.6200
  155DOPC   C2818612   1.337   2.094  15.928  0.5673 -0.0956 -0.4411
  155DOPC   H8R18613   1.396   2.161  15.862  1.5908 -0.8399 -0.3132
  155DOPC   H8S18614   1.258   2.165  15.960 -0.2615 -0.7936 -0.8716
  155DOPC   C2918615   1.282   1.974  15.852 -0.2614 -0.3766 -0.9247
  155DOPC   H9R18616   1.191   1.939  15.902 -0.1888  2.0504  1.1209
  155DOPC  C21018617   1.332   1.916  15.740 -0.2751  0.4524  0.1551
  155DOPC  H10R18618   1.270   1.835  15.698  1.3218 -0.4214 -0.5938
  155DOPC  C21118619   1.453   1.951  15.670  0.4617 -0.4932  0.0916
  155DOPC  H11R18620   1.519   1.862  15.668  0.3741 -0.6114  1.7641
  155DOPC  H11S18621   1.505   2.044  15.703  1.4107 -0.7700 -0.5439
  155DOPC  C21218622   1.440   1.983  15.523  0.6161  0.2147  0.2413
  155DOPC  H12R18623   1.355   2.052  15.509 -0.6135 -1.2220  0.4311
  155DOPC  H12S18624   1.415   1.892  15.464 -0.7069  0.1432  0.8743
  155DOPC  C21318625   1.567   2.035  15.457 -0.0320  0.2006 -0.4792
  155DOPC  H13R18626   1.652   1.969  15.486  2.7007  2.9930 -1.5248
  155DOPC  H13S18627   1.590   2.133  15.503  0.4649 -1.2168  2.4925
  155DOPC  C21418628   1.542   2.030  15.303 -0.4812  0.1689  0.0953
  155DOPC  H14R18629   1.439   2.069  15.293 -0.3628  0.5373  0.2998
  155DOPC  H14S18630   1.561   1.928  15.263  0.9009  0.4206  0.0482
  155DOPC  C21518631   1.630   2.121  15.219  0.9233  0.1208  0.3445
  155DOPC  H15R18632   1.732   2.102  15.258 -0.4865 -3.3116  2.8213
  155DOPC  H15S18633   1.608   2.228  15.240  1.7685  0.6407 -1.2221
  155DOPC  C21618634   1.615   2.110  15.064 -0.2900  0.1921  0.5035
  155DOPC  H16R18635   1.657   2.013  15.031  0.0890  0.2374  0.8495
  155DOPC  H16S18636   1.673   2.188  15.010 -0.9114 -0.4635 -1.1845
  155DOPC  C21718637   1.467   2.119  15.024 -0.1361  0.6116 -0.1698
  155DOPC  H17R18638   1.417   2.024  15.051  0.9561  0.0532 -0.0703
  155DOPC  H17S18639   1.474   2.129  14.913  0.3452 -3.3518 -0.6470
  155DOPC  C21818640   1.395   2.236  15.087 -0.3064  0.0137 -0.4703
  155DOPC  H18R18641   1.410   2.240  15.197 -0.5275 -0.8646 -0.4032
  155DOPC  H18S18642   1.285   2.240  15.072 -0.4299 -1.1020  0.0504
  155DOPC  H18T18643   1.442   2.329  15.049 -0.2171  0.4601  0.6880
  155DOPC   C3318644   1.457   1.452  16.306 -0.0417  0.4620  0.0299
  155DOPC   H3X18645   1.419   1.460  16.410  1.4567  1.8277  0.5050
  155DOPC   H3Y18646   1.394   1.383  16.245  2.1229 -1.8002  0.2112
  155DOPC   C3418647   1.424   1.588  16.250 -0.3730 -0.4489  0.5158
  155DOPC   H4X18648   1.506   1.657  16.281  0.7054 -1.8619  0.9379
  155DOPC   H4Y18649   1.322   1.625  16.274  0.2007  1.2277  0.5739
  155DOPC   C3518650   1.428   1.586  16.093  0.4987 -0.3306 -0.3242
  155DOPC   H5X18651   1.523   1.541  16.058 -0.0427 -2.1989  0.5251
  155DOPC   H5Y18652   1.421   1.692  16.060  1.8393 -0.2788 -0.4980
  155DOPC   C3618653   1.308   1.526  16.019 -0.5659  0.4280 -0.3306
  155DOPC   H6X18654   1.309   1.415  16.027 -2.9622  0.3626 -0.2070
  155DOPC   H6Y18655   1.226   1.555  16.088 -0.3348 -1.6867  0.9300
  155DOPC   C3718656   1.290   1.572  15.877 -0.5739 -0.2922  0.6576
  155DOPC   H7X18657   1.182   1.566  15.852 -0.1473 -0.8400 -1.1908
  155DOPC   H7Y18658   1.309   1.682  15.872  0.5112 -0.3815  2.0295
  155DOPC   C3818659   1.353   1.487  15.767  0.2468 -0.7120 -0.0833
  155DOPC   H8X18660   1.308   1.531  15.675 -0.2622  1.6771  1.2148
  155DOPC   H8Y18661   1.323   1.381  15.780  0.9086 -0.9496 -0.4107
  155DOPC   C3918662   1.499   1.488  15.768  0.1100  0.1204 -0.3474
  155DOPC   H9X18663   1.540   1.426  15.849  1.8865  1.9971  0.2734
  155DOPC  C31018664   1.587   1.537  15.677  0.0416  0.4104  0.4323
  155DOPC  H10X18665   1.691   1.509  15.700 -0.3685 -1.4533  0.2134
  155DOPC  C31118666   1.548   1.606  15.547 -0.5694  0.0423 -0.2366
  155DOPC  H11X18667   1.589   1.708  15.534 -3.5463  1.1659 -1.5633
  155DOPC  H11Y18668   1.439   1.625  15.554 -0.4950 -0.0053  1.5178
  155DOPC  C31218669   1.582   1.541  15.406 -0.8378 -0.2604 -0.5710
  155DOPC  H12X18670   1.541   1.439  15.394 -0.9166 -0.0325 -2.6863
  155DOPC  H12Y18671   1.689   1.543  15.374 -0.8398 -0.0676 -0.5686
  155DOPC  C31318672   1.505   1.615  15.287  0.7334  0.3623 -0.6244
  155DOPC  H13X18673   1.396   1.600  15.299  0.4639  2.6488  0.2998
  155DOPC  H13Y18674   1.531   1.723  15.294 -1.0282  0.9142 -1.8458
  155DOPC  C31418675   1.538   1.569  15.145 -0.0187  0.1489 -0.1543
  155DOPC  H14X18676   1.490   1.473  15.113  1.8989 -0.3225 -1.8056
  155DOPC  H14Y18677   1.497   1.648  15.080 -0.0046  1.8417  1.7959
  155DOPC  C31518678   1.681   1.566  15.112 -0.9743  0.2160  0.7700
  155DOPC  H15X18679   1.724   1.496  15.186  0.0778  0.0297  0.0027
  155DOPC  H15Y18680   1.727   1.663  15.142 -0.4661 -0.2677  1.5672
  155DOPC  C31618681   1.717   1.522  14.966  0.2649  0.0636  0.2903
  155DOPC  H16X18682   1.825   1.498  14.977  0.4174  0.7812  0.4209
  155DOPC  H16Y18683   1.659   1.434  14.930 -0.1958  0.2553  0.5548
  155DOPC  C31718684   1.702   1.638  14.866 -0.0150  0.1046  0.0313
  155DOPC  H17X18685   1.595   1.666  14.849  0.5522  2.8561  0.4016
  155DOPC  H17Y18686   1.762   1.725  14.902  0.8552  0.0864 -1.2741
  155DOPC  C31818687   1.775   1.604  14.734  0.6416  0.1046 -0.0697
  155DOPC  H18X18688   1.880   1.582  14.761  0.6077  0.3400  0.2608
  155DOPC  H18Y18689   1.724   1.517  14.688  2.2552 -1.1468  0.4183
  155DOPC  H18Z18690   1.760   1.696  14.673 -2.3477  0.4677  1.0304
  156DOPC     N18691   6.022   6.412  17.143  0.2684  0.3485 -0.8905
  156DOPC   C1218692   6.040   6.448  16.993 -0.6928  0.2197 -0.2831
  156DOPC  H12A18693   6.065   6.552  16.981 -0.8185  0.2942  0.0916
  156DOPC  H12B18694   5.942   6.444  16.948 -0.5527 -1.7467 -0.5036
  156DOPC   C1318695   5.948   6.283  17.152 -0.4860  0.2827  0.2133
  156DOPC  H13A18696   5.859   6.298  17.093 -3.0491 -1.2231  3.4357
  156DOPC  H13B18697   5.989   6.201  17.095 -0.9084  0.1315  0.1297
  156DOPC  H13C18698   5.937   6.250  17.254  0.3651  2.6563  1.1462
  156DOPC   C1418699   5.927   6.518  17.197 -0.1516  0.7943  0.8413
  156DOPC  H14A18700   5.921   6.516  17.304 -0.1136  0.2789  0.8383
  156DOPC  H14B18701   5.957   6.614  17.159 -0.3690 -0.1115 -1.8759
  156DOPC  H14C18702   5.833   6.496  17.147  0.0475  0.6504  0.5198
  156DOPC   C1518703   6.150   6.416  17.226  0.9474 -0.8634 -0.0951
  156DOPC  H15A18704   6.193   6.515  17.223  0.6559 -0.7094  0.6156
  156DOPC  H15B18705   6.217   6.344  17.181 -0.3059 -0.5779 -2.6182
  156DOPC  H15C18706   6.131   6.393  17.330  0.4563 -0.1919 -0.0283
  156DOPC   C1118707   6.145   6.355  16.923  0.4356 -0.3099 -0.4827
  156DOPC  H11A18708   6.134   6.254  16.967  0.7700 -0.2081 -0.1546
  156DOPC  H11B18709   6.121   6.352  16.815 -0.1475  1.1845 -0.4206
  156DOPC     P18710   6.349   6.511  16.850  0.3354 -0.0889 -0.0763
  156DOPC   O1318711   6.494   6.523  16.881 -0.3962 -0.6886  0.0573
  156DOPC   O1418712   6.271   6.637  16.859 -0.0009 -0.0150 -0.0553
  156DOPC   O1218713   6.275   6.401  16.946  0.0318 -0.3335  0.1034
  156DOPC   O1118714   6.336   6.460  16.701  0.3839  1.0080 -0.0564
  156DOPC    C118715   6.369   6.315  16.686 -0.6543 -0.5791  0.5860
  156DOPC    HA18716   6.288   6.247  16.721 -0.7626  0.1287  1.7303
  156DOPC    HB18717   6.462   6.289  16.740 -2.0598 -1.3358  2.7642
  156DOPC    C218718   6.383   6.278  16.530  0.0132  0.2515 -0.2378
  156DOPC    HS18719   6.394   6.167  16.533  0.9189  0.3521  1.8261
  156DOPC   O2118720   6.490   6.346  16.461  0.1010  0.1673 -0.0088
  156DOPC   C2118721   6.610   6.291  16.494 -0.1353 -0.4689 -0.4208
  156DOPC   O2218722   6.632   6.206  16.578  0.0988 -0.2328  0.1275
  156DOPC   C2218723   6.720   6.369  16.421 -0.0124  0.6861 -0.1357
  156DOPC   H2R18724   6.800   6.381  16.498 -0.5247  1.0420  0.3516
  156DOPC   H2S18725   6.693   6.470  16.385  0.8486  1.9353  2.4232
  156DOPC    C318726   6.259   6.300  16.448  0.5272 -0.4135 -0.1884
  156DOPC    HX18727   6.230   6.406  16.435 -1.3960 -1.0604 -1.5399
  156DOPC    HY18728   6.174   6.248  16.497 -1.6307  2.3874 -0.6802
  156DOPC   O3118729   6.280   6.239  16.321 -0.6935 -0.5695 -0.3159
  156DOPC   C3118730   6.190   6.266  16.231  0.6012  0.0308 -0.6623
  156DOPC   O3218731   6.094   6.338  16.246 -0.5852  0.3704 -0.2056
  156DOPC   C3218732   6.226   6.189  16.105  0.3520  0.0531 -0.1384
  156DOPC   H2X18733   6.336   6.187  16.091  0.2911  1.3849 -0.9765
  156DOPC   H2Y18734   6.190   6.085  16.125 -1.1270  0.0997 -2.2037
  156DOPC   C2318735   6.769   6.283  16.308  1.0248 -0.0221 -0.0659
  156DOPC   H3R18736   6.804   6.188  16.354  1.4996  0.6692  1.0375
  156DOPC   H3S18737   6.856   6.332  16.259  1.7428  0.0884  1.2740
  156DOPC   C2418738   6.663   6.245  16.207  0.4004  0.2721  0.9814
  156DOPC   H4R18739   6.593   6.327  16.182 -1.2054 -0.6504  2.2634
  156DOPC   H4S18740   6.596   6.164  16.243 -1.6086  0.9713 -0.9344
  156DOPC   C2518741   6.724   6.182  16.080  0.1097  0.0577 -0.2898
  156DOPC   H5R18742   6.778   6.088  16.104 -0.3089 -0.5920 -1.7097
  156DOPC   H5S18743   6.800   6.254  16.043  1.0205 -0.3414  0.7693
  156DOPC   C2618744   6.625   6.161  15.966 -0.3376 -0.1365  0.1755
  156DOPC   H6R18745   6.604   6.263  15.927 -3.7335 -1.8153 -2.9356
  156DOPC   H6S18746   6.530   6.124  16.011 -1.3073  0.3822 -1.3998
  156DOPC   C2718747   6.681   6.063  15.858  0.2579 -0.4827 -0.1836
  156DOPC   H7R18748   6.699   5.963  15.904  1.4411 -0.1671  0.0701
  156DOPC   H7S18749   6.780   6.103  15.827  0.1980  1.0415  1.4557
  156DOPC   C2818750   6.576   6.068  15.748 -0.1180 -0.0033 -0.1892
  156DOPC   H8R18751   6.565   6.174  15.716  0.5519 -0.4778 -2.1932
  156DOPC   H8S18752   6.477   6.037  15.785  0.1341 -1.3953 -0.6282
  156DOPC   C2918753   6.629   6.007  15.621  0.7797 -0.0010  0.6049
  156DOPC   H9R18754   6.732   6.030  15.588  1.2525 -1.2649  1.1633
  156DOPC  C21018755   6.568   5.918  15.541  0.5991  0.2628 -0.0300
  156DOPC  H10R18756   6.617   5.888  15.447 -1.1057 -1.7564 -0.3443
  156DOPC  C21118757   6.427   5.851  15.555  0.5567  0.5027 -0.4152
  156DOPC  H11R18758   6.351   5.908  15.498 -0.4941 -1.3997 -1.0058
  156DOPC  H11S18759   6.386   5.846  15.658 -1.5364  0.0593 -1.2168
  156DOPC  C21218760   6.424   5.711  15.498 -0.1156  0.1298  0.1097
  156DOPC  H12R18761   6.446   5.717  15.389  1.6200 -0.5689  0.3977
  156DOPC  H12S18762   6.326   5.659  15.505 -0.6673  1.2886  1.4599
  156DOPC  C21318763   6.522   5.612  15.568  0.5018  0.0412  0.5010
  156DOPC  H13R18764   6.477   5.573  15.661 -1.4474  0.2508 -0.3174
  156DOPC  H13S18765   6.617   5.658  15.604  1.7195 -0.7200 -1.5069
  156DOPC  C21418766   6.549   5.487  15.482  0.9380  0.5595  0.2447
  156DOPC  H14R18767   6.565   5.519  15.377 -1.8011  0.1531 -0.3692
  156DOPC  H14S18768   6.468   5.410  15.482  2.3192 -0.9437 -0.3937
  156DOPC  C21518769   6.678   5.413  15.528  0.8362  0.2580  0.5931
  156DOPC  H15R18770   6.654   5.382  15.633 -1.8316  1.6080  0.4683
  156DOPC  H15S18771   6.769   5.476  15.523  1.7924 -0.9429  1.7342
  156DOPC  C21618772   6.712   5.291  15.448  0.0793  0.2556 -0.9033
  156DOPC  H16R18773   6.725   5.308  15.339 -2.4265 -0.1263 -1.3030
  156DOPC  H16S18774   6.627   5.222  15.466  2.9680 -3.5191 -0.4080
  156DOPC  C21718775   6.841   5.215  15.500  0.2785  0.2412  0.2850
  156DOPC  H17R18776   6.817   5.187  15.605 -2.7371 -1.0859 -0.6485
  156DOPC  H17S18777   6.928   5.284  15.506  0.4884  0.1527 -1.2980
  156DOPC  C21818778   6.861   5.090  15.414  0.4205  0.5774 -0.1561
  156DOPC  H18R18779   6.930   5.013  15.455 -1.7708 -1.0818  0.6299
  156DOPC  H18S18780   6.881   5.112  15.307 -1.0807  0.1982 -0.5415
  156DOPC  H18T18781   6.761   5.041  15.407  0.8037 -0.3732  0.6756
  156DOPC   C3318782   6.151   6.236  15.981  0.1763 -0.5318  0.4983
  156DOPC   H3X18783   6.196   6.330  15.943  0.2416 -1.4472 -1.8351
  156DOPC   H3Y18784   6.042   6.243  16.006 -0.0180  0.3985 -0.5425
  156DOPC   C3418785   6.158   6.136  15.866  0.7990 -0.2798  0.2944
  156DOPC   H4X18786   6.110   6.040  15.897  0.7526 -0.8653 -1.4908
  156DOPC   H4Y18787   6.264   6.103  15.855  0.1657 -1.9975 -1.1515
  156DOPC   C3518788   6.099   6.186  15.737 -0.2009 -0.2906 -0.2466
  156DOPC   H5X18789   6.142   6.285  15.714 -0.0020 -0.2839  0.1354
  156DOPC   H5Y18790   5.989   6.188  15.749 -0.2186 -0.0870 -0.4401
  156DOPC   C3618791   6.136   6.102  15.605  0.0766 -0.4806  0.7290
  156DOPC   H6X18792   6.242   6.114  15.575  0.2439 -2.8149  0.1408
  156DOPC   H6Y18793   6.120   5.993  15.621 -0.5985 -0.5353 -0.2536
  156DOPC   C3718794   6.041   6.138  15.486 -0.2939  0.2358 -0.3151
  156DOPC   H7X18795   5.944   6.086  15.499 -1.5211  2.0521 -1.7153
  156DOPC   H7Y18796   6.022   6.247  15.473 -1.8814 -0.2268 -2.3669
  156DOPC   C3818797   6.087   6.088  15.346 -0.2171  0.4157 -0.3235
  156DOPC   H8X18798   6.106   5.979  15.352 -1.3360  0.2266  0.1159
  156DOPC   H8Y18799   6.183   6.135  15.316  0.9612 -1.2454  0.6868
  156DOPC   C3918800   5.973   6.107  15.245 -0.8524  0.3256 -0.5946
  156DOPC   H9X18801   5.896   6.028  15.244  1.7960 -2.4811  0.8346
  156DOPC  C31018802   5.955   6.218  15.171  0.2316 -0.0129 -0.6429
  156DOPC  H10X18803   5.876   6.227  15.095  2.4838  1.1921 -2.9732
  156DOPC  C31118804   6.046   6.337  15.174  0.4119 -0.5008  0.4640
  156DOPC  H11X18805   6.135   6.328  15.241  0.9725  0.0938 -0.1830
  156DOPC  H11Y18806   5.989   6.428  15.202  1.1970  0.9175 -2.1901
  156DOPC  C31218807   6.108   6.360  15.037  0.1952 -0.5480  0.0832
  156DOPC  H12X18808   6.161   6.457  15.036  3.0500 -2.0179 -1.7080
  156DOPC  H12Y18809   6.027   6.354  14.961 -0.5939 -1.8259  0.9611
  156DOPC  C31318810   6.209   6.250  15.009  0.2624 -0.2809  0.8378
  156DOPC  H13X18811   6.310   6.279  15.047 -0.1195 -0.0065  1.6447
  156DOPC  H13Y18812   6.182   6.154  15.056 -1.2939 -1.2580 -1.8507
  156DOPC  C31418813   6.221   6.227  14.857  0.8410 -0.0296 -0.0417
  156DOPC  H14X18814   6.115   6.241  14.824  0.5562  0.2671  0.9467
  156DOPC  H14Y18815   6.286   6.298  14.801  2.9391 -2.8736 -1.4356
  156DOPC  C31518816   6.266   6.085  14.821 -0.4597 -0.6092 -0.0978
  156DOPC  H15X18817   6.251   6.065  14.713  1.9493 -1.7610 -0.2768
  156DOPC  H15Y18818   6.197   6.012  14.871 -0.0294 -0.3923  0.8377
  156DOPC  C31618819   6.411   6.055  14.868  0.2748 -0.0335 -0.3456
  156DOPC  H16X18820   6.428   6.095  14.970  0.9701 -1.1641  0.0021
  156DOPC  H16Y18821   6.429   5.946  14.864  0.3586 -0.0608  0.4958
  156DOPC  C31718822   6.508   6.115  14.773  0.4655 -0.6692 -0.3339
  156DOPC  H17X18823   6.474   6.220  14.762 -0.0002 -0.6553  0.9872
  156DOPC  H17Y18824   6.604   6.124  14.829 -1.0518  0.1948  2.3185
  156DOPC  C31818825   6.527   6.048  14.643 -0.6735  0.1488 -0.5456
  156DOPC  H18X18826   6.574   5.947  14.648 -0.5811  0.0402 -2.6318
  156DOPC  H18Y18827   6.432   6.036  14.586 -0.8629  1.6706 -0.5982
  156DOPC  H18Z18828   6.598   6.110  14.585 -0.1063 -0.1883 -0.2260
  157DOPC     N18829   6.308   1.340  17.167  0.6138  0.1652 -0.5304
  157DOPC   C1218830   6.259   1.458  17.088 -0.4534  0.5637  0.9033
  157DOPC  H12A18831   6.325   1.542  17.100  0.3493  0.1434 -0.3716
  157DOPC  H12B18832   6.162   1.491  17.122 -0.3971  0.9994  0.6466
  157DOPC   C1318833   6.203   1.238  17.180  0.3861  0.0046 -0.7929
  157DOPC  H13A18834   6.120   1.259  17.246  0.7120 -1.4122  0.1010
  157DOPC  H13B18835   6.164   1.227  17.080  2.1641 -0.3331 -1.4837
  157DOPC  H13C18836   6.245   1.142  17.206  0.1640  0.4648  1.3876
  157DOPC   C1418837   6.338   1.389  17.303 -0.7352  0.2260  0.5885
  157DOPC  H14A18838   6.378   1.490  17.303 -0.8515  0.2839 -0.2659
  157DOPC  H14B18839   6.252   1.386  17.369 -0.0276  2.8235  1.7576
  157DOPC  H14C18840   6.405   1.323  17.355  1.1866 -1.4466 -3.5705
  157DOPC   C1518841   6.428   1.277  17.109 -0.5579  0.0248  0.0821
  157DOPC  H15A18842   6.425   1.256  17.003 -1.9161 -0.6412  0.2387
  157DOPC  H15B18843   6.457   1.184  17.155  2.2066  0.5745 -0.3231
  157DOPC  H15C18844   6.512   1.343  17.122  0.2521 -0.9635 -0.0021
  157DOPC   C1118845   6.238   1.436  16.935  0.2013  0.3036  0.6038
  157DOPC  H11A18846   6.237   1.536  16.887  0.9016 -0.5253 -1.2182
  157DOPC  H11B18847   6.325   1.386  16.886 -0.1803  0.4462 -0.2335
  157DOPC     P18848   5.983   1.441  16.903  0.0595 -0.5456 -0.1545
  157DOPC   O1318849   5.983   1.551  17.003 -0.0397 -0.9489  0.2746
  157DOPC   O1418850   5.875   1.337  16.914  0.7786 -0.0479 -1.0093
  157DOPC   O1218851   6.121   1.359  16.902  0.3184 -0.5154 -0.2073
  157DOPC   O1118852   5.988   1.509  16.759  0.5543 -0.4300 -0.1706
  157DOPC    C118853   5.957   1.432  16.645  0.4021 -0.1661  0.4562
  157DOPC    HA18854   5.849   1.449  16.622  0.4344  0.3276  0.6618
  157DOPC    HB18855   5.975   1.323  16.647 -1.2754 -0.4925 -0.2138
  157DOPC    C218856   6.033   1.471  16.513 -0.1249  0.3300  0.1428
  157DOPC    HS18857   6.140   1.489  16.534  0.0145 -0.7185  0.4167
  157DOPC   O2118858   5.969   1.585  16.460  0.2375 -0.1139 -0.1323
  157DOPC   C2118859   6.043   1.654  16.376 -0.5425  0.4761  0.1492
  157DOPC   O2218860   6.165   1.634  16.365  0.0902 -1.0394 -0.1236
  157DOPC   C2218861   5.957   1.766  16.313 -0.0305 -0.0952  0.4228
  157DOPC   H2R18862   6.011   1.859  16.339  2.7058 -1.8279  1.4340
  157DOPC   H2S18863   5.853   1.760  16.352 -1.0342 -2.3702 -2.2603
  157DOPC    C318864   6.025   1.358  16.409 -0.4023 -0.0452 -0.4706
  157DOPC    HX18865   5.920   1.324  16.394 -0.5384  0.0921  0.1233
  157DOPC    HY18866   6.069   1.262  16.444  0.4417  0.8364  0.9766
  157DOPC   O3118867   6.083   1.397  16.280  0.0809  0.9449 -0.1227
  157DOPC   C3118868   6.212   1.354  16.265 -0.7795  0.3884  0.2932
  157DOPC   O3218869   6.281   1.307  16.350  0.3866 -0.1983 -0.4061
  157DOPC   C3218870   6.266   1.397  16.127  0.0790 -0.1545  0.0989
  157DOPC   H2X18871   6.275   1.302  16.069  2.7921  0.4894 -0.6954
  157DOPC   H2Y18872   6.192   1.469  16.086 -2.2248 -2.2616  0.3358
  157DOPC   C2318873   5.931   1.747  16.161 -0.3832 -1.0552  0.8542
  157DOPC   H3R18874   6.023   1.715  16.109 -1.5546  0.3980 -2.3936
  157DOPC   H3S18875   5.893   1.840  16.113 -2.1628 -1.9734  0.4103
  157DOPC   C2418876   5.809   1.652  16.120 -0.5468 -0.0920 -0.1564
  157DOPC   H4R18877   5.714   1.704  16.146 -0.7113 -0.4821  0.0330
  157DOPC   H4S18878   5.815   1.563  16.187  0.1806  0.5240  0.6162
  157DOPC   C2518879   5.792   1.614  15.972  0.0351  0.0483  0.4031
  157DOPC   H5R18880   5.782   1.704  15.907 -0.3752 -0.5764 -0.4101
  157DOPC   H5S18881   5.700   1.552  15.966 -0.3865  0.7810 -2.1096
  157DOPC   C2618882   5.904   1.538  15.910 -0.4220  0.0688  0.1859
  157DOPC   H6R18883   5.916   1.437  15.955  2.1181  0.1288 -0.2035
  157DOPC   H6S18884   5.999   1.591  15.933 -0.5984  0.7748 -0.6760
  157DOPC   C2718885   5.906   1.535  15.753  0.5665 -0.8641 -0.2145
  157DOPC   H7R18886   5.981   1.461  15.719 -0.1078 -1.0707 -1.2779
  157DOPC   H7S18887   5.937   1.639  15.728 -0.9960 -0.1258  0.7547
  157DOPC   C2818888   5.769   1.510  15.685 -0.3217 -0.7099  0.0688
  157DOPC   H8R18889   5.696   1.587  15.719  0.6035  0.9538 -1.5588
  157DOPC   H8S18890   5.734   1.416  15.735 -1.1232  0.1783  1.2382
  157DOPC   C2918891   5.786   1.511  15.536 -0.4639  0.1383 -0.0374
  157DOPC   H9R18892   5.819   1.606  15.490 -1.6712 -0.6244 -2.6843
  157DOPC  C21018893   5.747   1.406  15.455 -0.2305 -0.1603  0.5267
  157DOPC  H10R18894   5.769   1.392  15.348 -0.0601 -2.4582  0.8036
  157DOPC  C21118895   5.676   1.272  15.502 -0.3036 -0.7153 -0.0396
  157DOPC  H11R18896   5.633   1.292  15.603 -0.0066 -0.1716 -0.0190
  157DOPC  H11S18897   5.752   1.192  15.505  1.6592  1.0708  0.5941
  157DOPC  C21218898   5.561   1.247  15.408  0.5793 -0.6052 -0.3307
  157DOPC  H12R18899   5.539   1.341  15.354  1.2147  1.1559  2.2768
  157DOPC  H12S18900   5.466   1.222  15.460 -0.7330 -0.5277 -2.5571
  157DOPC  C21318901   5.587   1.148  15.292  0.2614 -0.0283 -0.0354
  157DOPC  H13R18902   5.590   1.042  15.325 -1.0594  0.7580  2.9155
  157DOPC  H13S18903   5.688   1.172  15.251  0.4721  0.3381  0.6975
  157DOPC  C21418904   5.484   1.171  15.173 -0.0108 -0.0929 -0.0631
  157DOPC  H14R18905   5.491   1.278  15.143  0.0963 -0.4475 -1.3912
  157DOPC  H14S18906   5.382   1.152  15.211 -0.8800 -2.6183 -3.1938
  157DOPC  C21518907   5.526   1.083  15.055 -0.2578 -0.1174 -0.0485
  157DOPC  H15R18908   5.637   1.073  15.055  0.0374  2.1962 -2.1782
  157DOPC  H15S18909   5.504   1.128  14.956  1.4743 -0.8716 -0.8203
  157DOPC  C21618910   5.449   0.948  15.074 -0.0272  1.2833 -0.1612
  157DOPC  H16R18911   5.351   0.977  15.119  0.6605  4.0247 -0.2745
  157DOPC  H16S18912   5.504   0.887  15.149 -0.4498 -0.6102 -1.3140
  157DOPC  C21718913   5.420   0.875  14.941 -0.4168  0.2370 -0.2854
  157DOPC  H17R18914   5.378   0.958  14.880  0.5207 -0.3981 -1.8396
  157DOPC  H17S18915   5.337   0.804  14.959 -0.6143  0.7882  1.1276
  157DOPC  C21818916   5.540   0.816  14.862  0.3672 -0.8410  0.0292
  157DOPC  H18R18917   5.583   0.901  14.804  0.3351 -1.4428 -0.9010
  157DOPC  H18S18918   5.514   0.731  14.796  0.4183 -1.3975  0.7047
  157DOPC  H18T18919   5.617   0.778  14.933  0.1472 -1.5209 -0.0898
  157DOPC   C3318920   6.402   1.469  16.134 -0.2209  0.0631  0.1409
  157DOPC   H3X18921   6.469   1.413  16.202  2.1916  0.3750 -1.8366
  157DOPC   H3Y18922   6.386   1.570  16.178 -2.1643 -1.1413  2.4284
  157DOPC   C3418923   6.476   1.483  16.006 -0.1501 -0.0558 -0.0186
  157DOPC   H4X18924   6.504   1.379  15.978  1.3622  0.3134  0.0704
  157DOPC   H4Y18925   6.574   1.528  16.029 -0.7339  0.8715  0.7530
  157DOPC   C3518926   6.410   1.552  15.892 -0.0341  0.3778 -0.2652
  157DOPC   H5X18927   6.327   1.479  15.877 -0.4961  0.4986  1.4833
  157DOPC   H5Y18928   6.470   1.539  15.799 -0.9718  1.1461 -0.9979
  157DOPC   C3618929   6.364   1.694  15.921 -0.5891 -0.0791  0.8939
  157DOPC   H6X18930   6.297   1.698  16.010  0.5618 -0.9962  1.8379
  157DOPC   H6Y18931   6.451   1.755  15.954  0.2674 -2.1477  2.7521
  157DOPC   C3718932   6.287   1.763  15.804  0.6065 -0.5305 -0.7271
  157DOPC   H7X18933   6.251   1.690  15.728 -0.0116  0.2495 -1.1956
  157DOPC   H7Y18934   6.211   1.833  15.843 -0.3775 -0.6735 -2.2866
  157DOPC   C3818935   6.373   1.858  15.715 -0.6905  0.0781  0.3401
  157DOPC   H8X18936   6.321   1.885  15.621 -0.6488 -0.2475  0.2215
  157DOPC   H8Y18937   6.462   1.799  15.685  1.7073  2.9299  1.3577
  157DOPC   C3918938   6.410   1.996  15.769  0.3042  1.1663 -0.4362
  157DOPC   H9X18939   6.456   2.001  15.869  0.2563  0.3740 -0.3747
  157DOPC  C31018940   6.397   2.111  15.711  0.1705 -0.5258  0.4884
  157DOPC  H10X18941   6.411   2.202  15.771  1.2719 -0.1732 -0.2633
  157DOPC  C31118942   6.346   2.142  15.568 -0.4113  0.1123 -0.2221
  157DOPC  H11X18943   6.320   2.248  15.549 -1.1535  0.9182  4.1110
  157DOPC  H11Y18944   6.258   2.076  15.555  1.4341 -2.9659  1.7094
  157DOPC  C31218945   6.451   2.095  15.466 -0.0468  0.0826  0.8499
  157DOPC  H12X18946   6.510   2.004  15.490 -0.3202 -0.0403  1.0559
  157DOPC  H12Y18947   6.531   2.172  15.459 -0.8971  0.9703  0.7459
  157DOPC  C31318948   6.391   2.078  15.326  0.3712 -0.3103 -0.0248
  157DOPC  H13X18949   6.468   2.044  15.253  0.2101  3.1633 -2.0312
  157DOPC  H13Y18950   6.313   1.999  15.327  0.4393 -0.3813  1.0317
  157DOPC  C31418951   6.342   2.217  15.283 -0.1458 -0.1702  0.9855
  157DOPC  H14X18952   6.257   2.261  15.341 -0.0264 -0.1534  1.1492
  157DOPC  H14Y18953   6.423   2.291  15.299 -1.4123  1.7204 -0.8850
  157DOPC  C31518954   6.312   2.215  15.126 -0.0639  0.3415 -0.2237
  157DOPC  H15X18955   6.229   2.142  15.120 -0.2661  0.6915 -2.4196
  157DOPC  H15Y18956   6.391   2.174  15.059 -0.9009  0.1615 -1.1291
  157DOPC  C31618957   6.252   2.339  15.080 -0.5427  0.1509  0.1698
  157DOPC  H16X18958   6.184   2.380  15.157 -0.0739  1.6918 -0.2161
  157DOPC  H16Y18959   6.319   2.425  15.060  0.1088 -0.4857 -0.4770
  157DOPC  C31718960   6.178   2.303  14.941 -0.4649  0.0969 -0.4528
  157DOPC  H17X18961   6.142   2.403  14.907 -0.4282  0.2732  0.0210
  157DOPC  H17Y18962   6.249   2.264  14.865  0.8166 -0.3353  0.9139
  157DOPC  C31818963   6.050   2.215  14.934 -0.3220  0.1295 -0.0009
  157DOPC  H18X18964   5.968   2.254  14.998  1.1769  4.6649 -0.4984
  157DOPC  H18Y18965   6.016   2.208  14.829  1.4180 -2.4476 -0.4931
  157DOPC  H18Z18966   6.074   2.111  14.967  1.7823  0.8646  0.9684
  158DOPC     N18967   2.973   0.552  17.039  0.2483  0.3866  0.0690
  158DOPC   C1218968   3.076   0.517  16.938  0.2206  0.3464  0.2074
  158DOPC  H12A18969   3.087   0.605  16.877  0.4634  0.7589  0.8384
  158DOPC  H12B18970   3.033   0.437  16.879  0.7955 -0.4042  0.7763
  158DOPC   C1318971   2.847   0.582  16.968 -0.1358 -0.0966 -0.3302
  158DOPC  H13A18972   2.859   0.644  16.881  1.7338  2.0806  1.3341
  158DOPC  H13B18973   2.800   0.492  16.933 -0.8628  0.3924 -0.6224
  158DOPC  H13C18974   2.779   0.632  17.035 -0.4885 -1.6134  0.5034
  158DOPC   C1418975   3.017   0.679  17.106 -0.3645  0.3258  0.1407
  158DOPC  H14A18976   3.031   0.760  17.037  1.5238 -1.3036 -1.5206
  158DOPC  H14B18977   2.955   0.706  17.190  0.3283 -0.7574  1.0394
  158DOPC  H14C18978   3.116   0.656  17.142 -1.1371 -3.4044  0.3062
  158DOPC   C1518979   2.956   0.447  17.143 -0.3734 -0.6151  1.0098
  158DOPC  H15A18980   2.899   0.368  17.095  0.3973 -0.0921 -0.8407
  158DOPC  H15B18981   2.918   0.479  17.239 -0.7225  0.0214  0.6613
  158DOPC  H15C18982   3.047   0.398  17.173  0.0877 -1.7387 -1.8818
  158DOPC   C1118983   3.217   0.468  16.983  0.6847 -0.7421  0.0307
  158DOPC  H11A18984   3.286   0.470  16.896 -0.0853 -2.5260 -0.6734
  158DOPC  H11B18985   3.260   0.539  17.057  0.0839 -1.2500  0.8892
  158DOPC     P18986   3.234   0.198  16.966 -0.2332 -0.3328  0.1661
  158DOPC   O1318987   3.129   0.169  16.862 -0.4367  0.3378  0.6104
  158DOPC   O1418988   3.250   0.091  17.070 -0.6133 -0.3251  0.3268
  158DOPC   O1218989   3.210   0.341  17.042 -0.4306  0.2560 -0.1881
  158DOPC   O1118990   3.379   0.218  16.902  0.1774 -0.0881 -0.5311
  158DOPC    C118991   3.376   0.218  16.760 -0.7984 -0.5791 -0.2798
  158DOPC    HA18992   3.314   0.297  16.712 -0.0247  0.8759  1.0051
  158DOPC    HB18993   3.367   0.115  16.720 -1.7837 -0.5555 -0.1332
  158DOPC    C218994   3.525   0.251  16.721  0.1365 -0.1586 -0.4519
  158DOPC    HS18995   3.549   0.350  16.767 -0.8906 -0.0949 -0.0183
  158DOPC   O2118996   3.530   0.254  16.580 -0.7402 -0.1227  0.6593
  158DOPC   C2118997   3.481   0.370  16.525  0.1373  0.7751 -0.4973
  158DOPC   O2218998   3.444   0.468  16.588  0.1262  0.3793 -0.3302
  158DOPC   C2218999   3.491   0.364  16.371  0.3273  0.1035  0.3534
  158DOPC   H2R19000   3.405   0.310  16.326  1.4236 -1.3943 -0.0316
  158DOPC   H2S19001   3.583   0.308  16.345  0.8140  1.5683 -1.2770
  158DOPC    C319002   3.631   0.152  16.769  0.0235  1.1534  0.5654
  158DOPC    HX19003   3.629   0.136  16.879  2.1110 -0.6397  0.4000
  158DOPC    HY19004   3.727   0.201  16.741 -1.3087  2.7395 -1.5365
  158DOPC   O3119005   3.610   0.021  16.717 -0.1362 -0.1585  0.1271
  158DOPC   C3119006   3.679  -0.012  16.606  0.5117 -0.7857 -0.1223
  158DOPC   O3219007   3.752   0.059  16.536  0.2366  0.3945  0.1969
  158DOPC   C3219008   3.653  -0.161  16.580 -0.0670 -0.8800  0.3878
  158DOPC   H2X19009   3.711  -0.171  16.486  0.1382  3.2165 -0.1183
  158DOPC   H2Y19010   3.706  -0.226  16.653  1.0882 -0.4017  0.0030
  158DOPC   C2319011   3.494   0.500  16.302  0.3313 -0.8773 -0.0371
  158DOPC   H3R19012   3.573   0.561  16.351  0.4048 -1.5103  0.6560
  158DOPC   H3S19013   3.390   0.538  16.307 -0.1392 -2.0917 -0.2404
  158DOPC   C2419014   3.521   0.481  16.152 -0.2642 -0.0242 -0.1799
  158DOPC   H4R19015   3.619   0.431  16.138 -1.0147 -1.6497  0.1320
  158DOPC   H4S19016   3.557   0.584  16.129  1.1925 -0.6217 -0.6838
  158DOPC   C2519017   3.407   0.416  16.068 -0.0996  0.0704  0.1120
  158DOPC   H5R19018   3.310   0.466  16.088 -0.3260  0.3498 -1.5416
  158DOPC   H5S19019   3.391   0.311  16.103 -1.6140  0.4101  0.5076
  158DOPC   C2619020   3.439   0.420  15.918  0.0592 -0.3569  1.6743
  158DOPC   H6R19021   3.366   0.358  15.862  0.1430  0.1286  1.0182
  158DOPC   H6S19022   3.536   0.368  15.906  0.3947  0.5657  0.1392
  158DOPC   C2719023   3.453   0.566  15.856  0.1488  0.3008  0.9578
  158DOPC   H7R19024   3.531   0.631  15.901  0.3950  0.2398  0.6246
  158DOPC   H7S19025   3.350   0.605  15.868 -0.0660  0.5090 -1.2040
  158DOPC   C2819026   3.486   0.569  15.706  0.4243 -0.3476  0.1813
  158DOPC   H8R19027   3.577   0.511  15.681  1.5263  0.3305  2.4151
  158DOPC   H8S19028   3.520   0.672  15.682 -1.1227  0.7628  2.3559
  158DOPC   C2919029   3.370   0.539  15.619  0.5013 -0.8882 -0.5751
  158DOPC   H9R19030   3.294   0.619  15.619 -0.3701 -1.5325  2.9566
  158DOPC  C21019031   3.341   0.428  15.547  0.1754 -0.3782 -0.2585
  158DOPC  H10R19032   3.252   0.417  15.483 -0.0486 -1.0146  0.1455
  158DOPC  C21119033   3.430   0.299  15.548 -0.5933  0.1311  0.1321
  158DOPC  H11R19034   3.458   0.268  15.651  2.4006  2.0407  0.0092
  158DOPC  H11S19035   3.525   0.316  15.494 -1.3320  2.1306 -0.6538
  158DOPC  C21219036   3.367   0.187  15.471  0.0294  0.1044  0.0368
  158DOPC  H12R19037   3.438   0.101  15.479 -0.0406 -0.1335 -1.6570
  158DOPC  H12S19038   3.363   0.213  15.363  0.3340 -0.6390 -0.1621
  158DOPC  C21319039   3.227   0.149  15.522 -0.2871  0.0023 -0.2165
  158DOPC  H13R19040   3.197   0.052  15.477 -1.7668 -0.1895  1.0728
  158DOPC  H13S19041   3.164   0.231  15.481  1.6195  0.4920 -2.3746
  158DOPC  C21419042   3.210   0.134  15.672 -0.4173 -0.0674  0.1357
  158DOPC  H14R19043   3.217   0.234  15.720  0.5601 -0.6825  1.3353
  158DOPC  H14S19044   3.288   0.074  15.724 -2.0463 -0.9359  1.6809
  158DOPC  C21519045   3.075   0.083  15.722  0.1087 -0.2256  0.0058
  158DOPC  H15R19046   2.995   0.127  15.658 -0.5514 -2.0629 -0.4801
  158DOPC  H15S19047   3.063   0.110  15.829  4.1584 -1.3114  0.9031
  158DOPC  C21619048   3.050  -0.070  15.712  0.3075 -0.2109  0.0168
  158DOPC  H16R19049   3.109  -0.130  15.785 -0.2069 -0.4439  0.2434
  158DOPC  H16S19050   3.088  -0.116  15.618 -0.5512 -0.8620 -0.0198
  158DOPC  C21719051   2.901  -0.109  15.733  0.4397  0.2384  0.0182
  158DOPC  H17R19052   2.901  -0.220  15.720  0.8716  0.0307  1.6271
  158DOPC  H17S19053   2.846  -0.080  15.640 -0.3234 -1.0701  0.0344
  158DOPC  C21819054   2.833  -0.067  15.864  0.4964  0.3643 -0.0216
  158DOPC  H18R19055   2.887  -0.115  15.948  1.3461 -1.4467 -1.5146
  158DOPC  H18S19056   2.725  -0.092  15.864  0.4056  0.5311 -1.9653
  158DOPC  H18T19057   2.848   0.043  15.872 -0.1191  0.3827  0.9902
  158DOPC   C3319058   3.500  -0.184  16.559 -0.3593 -0.0751 -0.1913
  158DOPC   H3X19059   3.449  -0.104  16.501  1.8622  2.1449  0.7398
  158DOPC   H3Y19060   3.460  -0.203  16.661  1.0305 -3.2484 -0.1333
  158DOPC   C3419061   3.484  -0.310  16.468  0.0494  0.9357  0.1596
  158DOPC   H4X19062   3.384  -0.355  16.485  0.5322 -1.5019 -2.6144
  158DOPC   H4Y19063   3.546  -0.396  16.502 -1.0980  0.1331  0.2483
  158DOPC   C3519064   3.489  -0.292  16.313 -0.1648  0.1596 -0.2514
  158DOPC   H5X19065   3.581  -0.239  16.282 -0.0845  0.6328  0.7462
  158DOPC   H5Y19066   3.399  -0.231  16.290 -0.7044 -0.2799  0.6431
  158DOPC   C3619067   3.477  -0.433  16.235 -0.3047  0.9033  0.1467
  158DOPC   H6X19068   3.435  -0.520  16.290  3.1601 -1.2957 -0.3590
  158DOPC   H6Y19069   3.417  -0.410  16.145 -0.5130 -1.4107 -0.3665
  158DOPC   C3719070   3.617  -0.488  16.197 -0.7703 -0.4801 -0.0996
  158DOPC   H7X19071   3.659  -0.401  16.142 -2.2606  0.9075  0.8570
  158DOPC   H7Y19072   3.677  -0.526  16.282 -1.0427 -2.7117 -0.8215
  158DOPC   C3819073   3.617  -0.611  16.096 -0.5767 -0.1978 -0.5377
  158DOPC   H8X19074   3.718  -0.628  16.054 -0.3675  1.1323 -0.6255
  158DOPC   H8Y19075   3.564  -0.581  16.003 -1.1545  1.8400  0.3992
  158DOPC   C3919076   3.561  -0.729  16.169 -1.0297  0.4316 -0.5084
  158DOPC   H9X19077   3.615  -0.765  16.257 -0.4649  0.6208 -0.7745
  158DOPC  C31019078   3.434  -0.774  16.164  0.5863  0.3457  0.1028
  158DOPC  H10X19079   3.400  -0.853  16.232  0.7174  0.3605  0.1858
  158DOPC  C31119080   3.325  -0.712  16.078  0.0694  0.1520 -0.6276
  158DOPC  H11X19081   3.350  -0.608  16.045  0.1257  0.6717  0.9548
  158DOPC  H11Y19082   3.246  -0.717  16.156 -0.1141  0.1700 -0.8115
  158DOPC  C31219083   3.283  -0.781  15.946  0.5134  0.2486 -0.6160
  158DOPC  H12X19084   3.189  -0.733  15.912 -0.5957 -1.9051 -0.7770
  158DOPC  H12Y19085   3.254  -0.886  15.965 -1.5159  1.0310  0.9069
  158DOPC  C31319086   3.384  -0.783  15.830 -0.5291 -0.5443 -0.4650
  158DOPC  H13X19087   3.475  -0.839  15.859  0.5837  1.3280 -0.1951
  158DOPC  H13Y19088   3.331  -0.846  15.755 -0.2226 -0.3732 -0.8249
  158DOPC  C31419089   3.420  -0.648  15.756  0.2748  0.6762  0.8488
  158DOPC  H14X19090   3.492  -0.601  15.825 -0.1176  1.3265  0.8207
  158DOPC  H14Y19091   3.477  -0.688  15.669 -0.1791 -0.4713  1.0592
  158DOPC  C31519092   3.297  -0.552  15.720 -0.7281 -0.5145  0.1941
  158DOPC  H15X19093   3.241  -0.526  15.812  0.1472  0.0978  0.5769
  158DOPC  H15Y19094   3.224  -0.604  15.655 -1.7202 -1.0996  1.7045
  158DOPC  C31619095   3.335  -0.412  15.662  0.4834 -0.3379 -0.2014
  158DOPC  H16X19096   3.260  -0.334  15.688  2.3975  0.9783  1.7184
  158DOPC  H16Y19097   3.430  -0.381  15.711 -0.4559  2.6556 -0.0462
  158DOPC  C31719098   3.319  -0.411  15.506  0.0353 -0.2781 -0.4013
  158DOPC  H17X19099   3.382  -0.494  15.467  2.1177  0.9223  0.2746
  158DOPC  H17Y19100   3.212  -0.437  15.486 -0.9871  2.2243  1.3557
  158DOPC  C31819101   3.358  -0.276  15.453 -0.2580 -0.4218 -0.0090
  158DOPC  H18X19102   3.399  -0.287  15.351  0.7304 -0.1721  0.3594
  158DOPC  H18Y19103   3.283  -0.195  15.464 -1.8265 -2.0342  1.9806
  158DOPC  H18Z19104   3.448  -0.243  15.508 -0.1239 -1.1237  0.2118
  159DOPC     N19105   7.031   1.738  17.006  0.0080 -0.5631 -0.2643
  159DOPC   C1219106   6.979   1.888  16.983  0.2080  0.2985 -0.5901
  159DOPC  H12A19107   7.041   1.967  17.022 -0.2691  0.9672 -1.1596
  159DOPC  H12B19108   6.889   1.896  17.043  0.5742  1.6879 -0.1819
  159DOPC   C1319109   7.138   1.715  16.905 -0.0307 -0.4940  0.4034
  159DOPC  H13A19110   7.091   1.720  16.808 -1.5297 -0.6073  1.1034
  159DOPC  H13B19111   7.212   1.793  16.920 -1.2747  0.9363 -0.6078
  159DOPC  H13C19112   7.189   1.620  16.913 -0.6442 -0.6606  4.1897
  159DOPC   C1419113   6.924   1.639  16.987  0.0948 -0.0880 -0.1332
  159DOPC  H14A19114   6.979   1.547  16.982  0.6341  0.1079  1.7455
  159DOPC  H14B19115   6.852   1.628  17.066 -1.1517  0.8921 -1.0765
  159DOPC  H14C19116   6.871   1.634  16.893  0.3582 -0.7622 -0.2453
  159DOPC   C1519117   7.093   1.724  17.142 -0.3846  0.4906 -0.5968
  159DOPC  H15A19118   7.140   1.626  17.143 -0.2095  0.5616  1.0453
  159DOPC  H15B19119   7.026   1.726  17.226  1.1160  1.6708  0.6378
  159DOPC  H15C19120   7.174   1.794  17.154  0.8128 -0.9683  0.3113
  159DOPC   C1119121   6.932   1.937  16.845 -0.0279 -0.1081 -0.2187
  159DOPC  H11A19122   6.919   2.044  16.869  0.7829 -0.2763  1.0390
  159DOPC  H11B19123   7.017   1.935  16.774 -0.8467  1.9456 -1.3596
  159DOPC     P19124   6.685   1.918  16.795 -0.4495 -0.1704  0.4253
  159DOPC   O1319125   6.656   1.928  16.938 -0.2888  0.1618 -0.2626
  159DOPC   O1419126   6.595   1.835  16.709 -0.5690 -0.1400 -0.2649
  159DOPC   O1219127   6.831   1.864  16.782 -0.2392 -0.0360 -0.5704
  159DOPC   O1119128   6.702   2.061  16.728 -0.0434  0.1286  0.2687
  159DOPC    C119129   6.759   2.079  16.601  0.1455  0.0271  0.4912
  159DOPC    HA19130   6.681   2.044  16.531 -0.1053 -1.2790  1.3810
  159DOPC    HB19131   6.849   2.018  16.577 -1.6590 -2.0188 -1.4584
  159DOPC    C219132   6.798   2.223  16.569  0.3383 -0.5449 -0.6240
  159DOPC    HS19133   6.863   2.254  16.653 -1.2621  1.5881 -0.0574
  159DOPC   O2119134   6.675   2.300  16.556  0.0677 -0.0131 -0.2414
  159DOPC   C2119135   6.685   2.429  16.548 -0.4194  0.9211  0.3394
  159DOPC   O2219136   6.786   2.493  16.575 -0.0994 -0.2477  0.3167
  159DOPC   C2219137   6.552   2.478  16.496 -0.2636  0.1385  0.6759
  159DOPC   H2R19138   6.518   2.547  16.577  0.2411  0.8428  0.2948
  159DOPC   H2S19139   6.485   2.394  16.469  1.7619 -1.7974  1.2992
  159DOPC    C319140   6.891   2.247  16.442  0.1161  0.8718 -0.1627
  159DOPC    HX19141   6.993   2.209  16.468  0.8363  1.4322 -1.9855
  159DOPC    HY19142   6.902   2.355  16.417 -1.1918  1.0006 -0.2288
  159DOPC   O3119143   6.835   2.183  16.325  0.1354 -0.6293 -0.2481
  159DOPC   C3119144   6.879   2.072  16.282  0.0307  0.7458  0.0326
  159DOPC   O3219145   6.969   1.999  16.328 -0.4949  0.4482  0.1131
  159DOPC   C3219146   6.804   2.037  16.151 -0.3815 -0.8539  0.5433
  159DOPC   H2X19147   6.771   2.134  16.107  1.6051 -0.4422 -0.1648
  159DOPC   H2Y19148   6.875   2.003  16.073  1.7470  2.3558  0.8876
  159DOPC   C2319149   6.560   2.564  16.372  0.3519 -0.5293  0.4280
  159DOPC   H3R19150   6.616   2.659  16.388 -0.7873 -0.1086  2.1639
  159DOPC   H3S19151   6.454   2.587  16.347  0.4898 -0.6018 -0.2473
  159DOPC   C2419152   6.616   2.484  16.256  0.0767  0.1504 -0.1357
  159DOPC   H4R19153   6.578   2.380  16.258 -2.2843  0.9417 -0.3405
  159DOPC   H4S19154   6.725   2.474  16.273 -0.2634  0.7748  3.0150
  159DOPC   C2519155   6.585   2.547  16.125 -0.8857  0.6230  0.3173
  159DOPC   H5R19156   6.619   2.653  16.132 -1.1554  0.7136  0.2646
  159DOPC   H5S19157   6.475   2.562  16.121 -0.6343  2.5763 -0.9073
  159DOPC   C2619158   6.637   2.457  16.013  0.9777 -1.1109 -0.4145
  159DOPC   H6R19159   6.553   2.461  15.940  1.7802  0.3232 -1.2962
  159DOPC   H6S19160   6.644   2.351  16.047  1.3629 -0.9978 -0.1476
  159DOPC   C2719161   6.770   2.502  15.952 -0.1869  0.1529 -0.7007
  159DOPC   H7R19162   6.835   2.535  16.036  1.5896 -1.4869 -1.3457
  159DOPC   H7S19163   6.755   2.586  15.881 -1.2625 -0.4840 -1.2472
  159DOPC   C2819164   6.843   2.382  15.878  0.2013 -0.1868 -0.2594
  159DOPC   H8R19165   6.825   2.299  15.949  2.8676  0.1981  0.9538
  159DOPC   H8S19166   6.950   2.409  15.878 -0.2950  2.3321  2.7625
  159DOPC   C2919167   6.803   2.361  15.732  0.4851  0.8042  0.4075
  159DOPC   H9R19168   6.816   2.443  15.660 -1.3400 -0.4722 -1.5115
  159DOPC  C21019169   6.777   2.242  15.674 -0.6394 -0.3241 -0.4293
  159DOPC  H10R19170   6.740   2.237  15.570  0.1099  1.1829 -0.7971
  159DOPC  C21119171   6.778   2.098  15.735  0.2214 -0.1753  0.4244
  159DOPC  H11R19172   6.677   2.053  15.748  0.4016  0.0630  3.2474
  159DOPC  H11S19173   6.810   2.098  15.841 -2.2489  1.6136  1.2580
  159DOPC  C21219174   6.836   2.006  15.633  0.1546  0.0705  0.0450
  159DOPC  H12R19175   6.946   2.020  15.625  0.3793 -1.0604  0.9308
  159DOPC  H12S19176   6.796   2.024  15.531 -0.4077 -2.2664 -0.1848
  159DOPC  C21319177   6.809   1.861  15.664 -0.6965  0.5624  0.1123
  159DOPC  H13R19178   6.699   1.864  15.650 -0.9535  2.6003  2.0694
  159DOPC  H13S19179   6.838   1.827  15.766  0.9850 -0.2255 -0.5700
  159DOPC  C21419180   6.873   1.755  15.570  0.2753  0.3742 -0.3054
  159DOPC  H14R19181   6.981   1.781  15.574  0.6074 -1.0806  1.5315
  159DOPC  H14S19182   6.833   1.762  15.466  1.5777 -0.1152 -0.8633
  159DOPC  C21519183   6.855   1.614  15.632 -0.5435  1.1787 -0.1421
  159DOPC  H15R19184   6.746   1.594  15.647 -0.3723 -0.2764 -0.6654
  159DOPC  H15S19185   6.907   1.618  15.729 -0.8949  0.2674  0.1017
  159DOPC  C21619186   6.920   1.509  15.543 -0.0573  0.4428 -0.1224
  159DOPC  H16R19187   7.030   1.522  15.536 -0.0973 -0.0169 -1.9161
  159DOPC  H16S19188   6.888   1.530  15.439  2.9139  1.1054 -0.9747
  159DOPC  C21719189   6.907   1.357  15.589  0.1982 -0.8318  0.1380
  159DOPC  H17R19190   6.800   1.332  15.609 -0.1912  1.3759  1.2102
  159DOPC  H17S19191   6.975   1.348  15.676  1.4170  2.6465 -0.2913
  159DOPC  C21819192   6.954   1.262  15.472 -0.1164 -0.3571 -0.3038
  159DOPC  H18R19193   6.905   1.163  15.472 -0.6051 -0.3326 -4.5381
  159DOPC  H18S19194   7.060   1.239  15.494 -0.5904 -0.7912  1.6531
  159DOPC  H18T19195   6.941   1.309  15.372 -0.6695 -0.6171 -0.3603
  159DOPC   C3319196   6.706   1.923  16.172 -0.1627  0.3832  0.4232
  159DOPC   H3X19197   6.757   1.835  16.218 -0.7760  0.1187  0.6083
  159DOPC   H3Y19198   6.677   1.894  16.069  1.4527  1.6159 -0.4273
  159DOPC   C3419199   6.570   1.952  16.244 -0.4448  0.6388  0.3064
  159DOPC   H4X19200   6.588   1.957  16.353  1.3072 -0.0433  0.0816
  159DOPC   H4Y19201   6.512   1.859  16.224  0.2552  0.9837 -4.5525
  159DOPC   C3519202   6.492   2.071  16.183  0.1314 -0.5665 -0.1316
  159DOPC   H5X19203   6.497   2.077  16.072 -1.7611  1.7964 -0.1699
  159DOPC   H5Y19204   6.546   2.164  16.208 -1.5995  0.4236  0.0911
  159DOPC   C3619205   6.344   2.071  16.222 -0.2748 -0.7188  0.3836
  159DOPC   H6X19206   6.299   1.995  16.154 -0.6543 -0.3407  0.2066
  159DOPC   H6Y19207   6.329   2.029  16.323 -2.9642 -0.5089  0.1554
  159DOPC   C3719208   6.277   2.212  16.207 -0.3716  0.0644 -1.2843
  159DOPC   H7X19209   6.186   2.210  16.270  1.2661 -0.8810  1.2029
  159DOPC   H7Y19210   6.337   2.293  16.253  0.3388  0.4670 -2.8391
  159DOPC   C3819211   6.243   2.249  16.066 -0.1014 -0.3020 -0.3270
  159DOPC   H8X19212   6.226   2.162  16.000 -1.0115 -1.0068  0.7829
  159DOPC   H8Y19213   6.343   2.284  16.033  0.6556 -2.2048 -0.1465
  159DOPC   C3919214   6.145   2.364  16.060  0.9165 -0.2998  0.8157
  159DOPC   H9X19215   6.171   2.458  16.111 -0.9202  0.3560  0.6443
  159DOPC  C31019216   6.042   2.371  15.969  1.1763 -0.3849 -0.5483
  159DOPC  H10X19217   5.970   2.454  15.965  0.2833 -1.1894 -1.9341
  159DOPC  C31119218   6.011   2.268  15.859 -0.1547 -0.2917  0.1129
  159DOPC  H11X19219   5.903   2.252  15.840  0.0975  1.4736 -3.6391
  159DOPC  H11Y19220   6.056   2.168  15.880 -1.9834 -1.1265  0.2126
  159DOPC  C31219221   6.072   2.308  15.727 -0.2278 -0.1101 -0.0896
  159DOPC  H12X19222   6.054   2.244  15.638 -0.1103  0.4483 -0.5215
  159DOPC  H12Y19223   6.182   2.314  15.746  0.1685  1.4740 -2.4870
  159DOPC  C31319224   6.024   2.453  15.687 -0.3562 -0.1131 -0.1149
  159DOPC  H13X19225   5.913   2.450  15.687 -0.3563 -0.6334 -1.1256
  159DOPC  H13Y19226   6.055   2.534  15.756  0.5471  0.2925 -0.9712
  159DOPC  C31419227   6.068   2.489  15.535  0.2327  0.5415 -0.4636
  159DOPC  H14X19228   6.172   2.457  15.512  0.0324  0.0092 -0.6395
  159DOPC  H14Y19229   6.010   2.421  15.468 -0.1520 -0.5915  0.9847
  159DOPC  C31519230   6.040   2.637  15.506  0.2106 -0.6967  0.0067
  159DOPC  H15X19231   6.106   2.701  15.568 -0.1864  0.1281 -0.4103
  159DOPC  H15Y19232   5.938   2.661  15.541 -0.0088 -0.0205 -1.0752
  159DOPC  C31619233   6.053   2.664  15.353 -0.2964 -0.4142  0.2865
  159DOPC  H16X19234   6.057   2.775  15.344 -1.4354 -0.0522  3.2152
  159DOPC  H16Y19235   6.153   2.629  15.317  0.8757  1.1055  1.8847
  159DOPC  C31719236   5.945   2.608  15.263 -0.4058  0.5032  0.1068
  159DOPC  H17X19237   5.942   2.498  15.280 -0.0854  0.3287 -0.9126
  159DOPC  H17Y19238   5.850   2.661  15.286 -0.5631  0.3776 -0.2416
  159DOPC  C31819239   5.961   2.636  15.115  0.1647 -0.1995 -0.0182
  159DOPC  H18X19240   6.009   2.735  15.110  2.4710 -1.2511  0.0492
  159DOPC  H18Y19241   6.036   2.569  15.067 -0.3603  0.1743 -1.3952
  159DOPC  H18Z19242   5.864   2.633  15.062 -0.4916  1.2367  1.0542
  160DOPC     N19243   2.776   6.904  17.307  0.3283  0.2005 -0.2059
  160DOPC   C1219244   2.803   6.942  17.161  0.4214  0.0473  0.4405
  160DOPC  H12A19245   2.905   6.976  17.163  0.6927 -0.7749  1.5822
  160DOPC  H12B19246   2.740   7.026  17.134 -1.4771 -1.2862  0.5249
  160DOPC   C1319247   2.863   6.787  17.339  0.4749 -0.2793 -0.4895
  160DOPC  H13A19248   2.847   6.751  17.439  0.8771  1.6170  0.3110
  160DOPC  H13B19249   2.850   6.705  17.270 -2.8866  0.8559 -1.3997
  160DOPC  H13C19250   2.968   6.813  17.338  0.2431  0.9871  1.5162
  160DOPC   C1419251   2.629   6.862  17.313 -0.3882  0.1245  0.4349
  160DOPC  H14A19252   2.617   6.794  17.397 -2.1781  1.3577  1.2448
  160DOPC  H14B19253   2.561   6.945  17.312 -2.2142 -1.2839 -1.4339
  160DOPC  H14C19254   2.600   6.794  17.234 -0.2352 -0.6735  1.0455
  160DOPC   C1519255   2.781   7.021  17.398  0.0335  0.2964 -0.5266
  160DOPC  H15A19256   2.878   7.061  17.423  0.5419 -0.7614 -0.7825
  160DOPC  H15B19257   2.732   6.992  17.490 -2.7999  2.3515 -1.2425
  160DOPC  H15C19258   2.727   7.109  17.368 -0.5878  0.1990  0.2587
  160DOPC   C1119259   2.792   6.841  17.040 -0.0458 -0.0257 -0.2425
  160DOPC  H11A19260   2.820   6.896  16.948 -0.4132 -1.3767 -1.1777
  160DOPC  H11B19261   2.857   6.751  17.049 -1.6917 -1.1809  0.7045
  160DOPC     P19262   2.561   6.845  16.922 -0.2450 -0.2466 -0.2250
  160DOPC   O1319263   2.570   6.988  16.912  0.3372 -0.3819 -0.3427
  160DOPC   O1419264   2.422   6.802  16.952 -0.5227  0.1851  0.5300
  160DOPC   O1219265   2.662   6.791  17.029  0.3033  0.2669  0.2201
  160DOPC   O1119266   2.615   6.777  16.793 -0.0918  0.1365  0.6170
  160DOPC    C119267   2.690   6.838  16.684 -0.3487  0.2372 -0.0040
  160DOPC    HA19268   2.771   6.772  16.649 -0.9854 -0.9979  0.7878
  160DOPC    HB19269   2.753   6.921  16.724  1.4731 -0.5960 -1.0108
  160DOPC    C219270   2.603   6.891  16.560 -0.4166  0.2374  0.0496
  160DOPC    HS19271   2.528   6.961  16.603 -2.4193  0.5203 -3.4659
  160DOPC   O2119272   2.540   6.781  16.492 -0.0547 -0.6934 -0.0212
  160DOPC   C2119273   2.417   6.741  16.522 -0.8097  0.1350 -0.1096
  160DOPC   O2219274   2.347   6.784  16.614  0.4097  0.1372 -0.1002
  160DOPC   C2219275   2.377   6.630  16.421  0.1883 -0.6247 -0.1394
  160DOPC   H2R19276   2.438   6.547  16.465  1.4483 -0.7240 -1.9743
  160DOPC   H2S19277   2.433   6.644  16.327 -1.7522  0.0692 -1.2325
  160DOPC    C319278   2.682   6.982  16.458  0.0383  1.0181 -0.3391
  160DOPC    HX19279   2.769   6.920  16.428 -0.5492  0.7414 -1.5565
  160DOPC    HY19280   2.718   7.074  16.508  2.5628 -0.8510  1.5572
  160DOPC   O3119281   2.620   7.022  16.337 -0.4301 -0.4076  0.2864
  160DOPC   C3119282   2.512   7.097  16.347 -0.1166 -0.0866  0.8155
  160DOPC   O3219283   2.466   7.139  16.450  0.1393  0.3150  0.2707
  160DOPC   C3219284   2.465   7.118  16.202  0.1577  0.1396  0.1514
  160DOPC   H2X19285   2.557   7.122  16.140  1.0600  0.9881  1.4980
  160DOPC   H2Y19286   2.393   7.038  16.175 -0.2186  0.2336  0.8410
  160DOPC   C2319287   2.230   6.599  16.399  0.8263  0.1252 -0.0872
  160DOPC   H3R19288   2.183   6.592  16.499  2.7591 -1.1448  0.7829
  160DOPC   H3S19289   2.215   6.499  16.352  0.1824  0.6609 -1.0686
  160DOPC   C2419290   2.154   6.696  16.309 -0.5343  0.4876 -0.1104
  160DOPC   H4R19291   2.152   6.797  16.355  2.5189  1.2713 -1.4393
  160DOPC   H4S19292   2.049   6.664  16.290 -1.1448  3.1054 -1.5674
  160DOPC   C2519293   2.225   6.711  16.177 -0.9233  0.3520 -0.0797
  160DOPC   H5R19294   2.292   6.626  16.156 -3.7616 -2.0010 -0.2285
  160DOPC   H5S19295   2.280   6.808  16.186 -0.1428 -0.0775 -0.1586
  160DOPC   C2619296   2.129   6.707  16.057 -0.1765  0.6261 -0.3812
  160DOPC   H6R19297   2.191   6.744  15.973 -0.0573  0.4605 -0.3675
  160DOPC   H6S19298   2.051   6.783  16.079 -1.3401 -0.2067 -1.4857
  160DOPC   C2719299   2.054   6.574  16.034 -0.4632  0.8987  0.4347
  160DOPC   H7R19300   1.968   6.580  16.104 -1.0753  0.0623 -0.2436
  160DOPC   H7S19301   2.111   6.483  16.063  1.2393  1.6136 -0.4921
  160DOPC   C2819302   2.004   6.567  15.885 -0.8842 -0.5734 -0.0318
  160DOPC   H8R19303   1.945   6.478  15.855 -3.2133  0.8452  0.0877
  160DOPC   H8S19304   2.100   6.573  15.829  0.4232 -1.4772  2.0076
  160DOPC   C2919305   1.924   6.697  15.859 -0.0019  0.5841 -0.5454
  160DOPC   H9R19306   1.854   6.714  15.943  0.7635 -0.9016  0.4389
  160DOPC  C21019307   1.931   6.792  15.768 -0.2213  0.3740 -0.1634
  160DOPC  H10R19308   1.849   6.864  15.754 -0.8789 -0.2080  0.6326
  160DOPC  C21119309   2.034   6.784  15.659 -0.4068 -0.5068  0.0074
  160DOPC  H11R19310   2.115   6.709  15.673 -0.8680 -1.0032  0.0552
  160DOPC  H11S19311   2.079   6.884  15.640 -1.2221 -0.3353 -1.0826
  160DOPC  C21219312   1.968   6.720  15.533  0.4961 -0.0248 -0.6310
  160DOPC  H12R19313   1.885   6.779  15.490  0.5645  1.4114  1.0882
  160DOPC  H12S19314   1.931   6.620  15.564  0.9531  0.5135  1.8847
  160DOPC  C21319315   2.065   6.702  15.419  0.1019  0.1215  0.0383
  160DOPC  H13R19316   2.142   6.625  15.439  0.3276  0.4727  0.5437
  160DOPC  H13S19317   2.123   6.796  15.410  0.1342  0.0654 -0.3519
  160DOPC  C21419318   2.001   6.662  15.285 -0.8219  0.2065  0.1101
  160DOPC  H14R19319   1.979   6.760  15.237  1.8214  0.2426 -1.2381
  160DOPC  H14S19320   1.903   6.612  15.299 -1.1725  0.4201 -1.3596
  160DOPC  C21519321   2.092   6.567  15.201 -0.5195 -0.5850 -0.5481
  160DOPC  H15R19322   2.111   6.477  15.262  0.7228  0.0339  0.0079
  160DOPC  H15S19323   2.188   6.620  15.187 -0.1114 -0.9854  0.6446
  160DOPC  C21619324   2.031   6.519  15.071  0.3526  0.4662  0.3782
  160DOPC  H16R19325   2.106   6.470  15.005 -0.5939 -0.0332 -0.3602
  160DOPC  H16S19326   2.009   6.607  15.007  4.3527  1.0148 -0.5300
  160DOPC  C21719327   1.897   6.438  15.087 -0.4109  0.2363  0.1991
  160DOPC  H17R19328   1.815   6.505  15.123  0.0167  0.8862 -0.0267
  160DOPC  H17S19329   1.919   6.358  15.162 -0.3991  1.3987  1.4742
  160DOPC  C21819330   1.841   6.382  14.955  0.5942 -0.2023  0.1654
  160DOPC  H18R19331   1.745   6.331  14.976  1.3890 -1.9706 -0.3436
  160DOPC  H18S19332   1.915   6.312  14.910 -0.1052  0.0382 -1.4074
  160DOPC  H18T19333   1.839   6.464  14.881 -0.2509 -0.2011  0.1901
  160DOPC   C3319334   2.381   7.248  16.179  0.0424 -0.3083 -0.2189
  160DOPC   H3X19335   2.439   7.342  16.191 -0.1885 -0.2220  0.2399
  160DOPC   H3Y19336   2.304   7.242  16.259 -0.0872 -1.4882 -0.4193
  160DOPC   C3419337   2.308   7.251  16.046 -0.3426  0.6514 -0.0960
  160DOPC   H4X19338   2.383   7.230  15.966 -1.3049 -0.5314 -0.7115
  160DOPC   H4Y19339   2.286   7.360  16.038 -0.0782  0.8519  1.5613
  160DOPC   C3519340   2.192   7.162  16.034  0.0204 -0.0002 -0.7182
  160DOPC   H5X19341   2.132   7.170  16.128 -0.2891 -0.8449 -0.8294
  160DOPC   H5Y19342   2.224   7.056  16.029  1.3873  0.4622 -3.3699
  160DOPC   C3619343   2.095   7.207  15.923  0.0198  0.0360  0.6099
  160DOPC   H6X19344   2.074   7.315  15.937  1.5066  0.6205 -1.2882
  160DOPC   H6Y19345   2.158   7.198  15.832  1.2667 -1.4892  1.5442
  160DOPC   C3719346   1.978   7.118  15.912  0.5187  0.1933  0.5612
  160DOPC   H7X19347   2.006   7.045  15.833 -0.4039 -0.8010  1.1218
  160DOPC   H7Y19348   1.951   7.073  16.010  0.4514 -1.4121 -0.1570
  160DOPC   C3819349   1.853   7.202  15.863 -0.4175 -0.0589 -0.3031
  160DOPC   H8X19350   1.882   7.273  15.782  1.0085 -1.0199 -0.6766
  160DOPC   H8Y19351   1.830   7.273  15.945 -0.3209  0.2071 -0.5023
  160DOPC   C3919352   1.726   7.126  15.844 -0.2762 -0.4141  0.0327
  160DOPC   H9X19353   1.693   7.082  15.939  1.0114  1.2414  1.3020
  160DOPC  C31019354   1.660   7.108  15.731  0.2029 -0.1287 -0.1714
  160DOPC  H10X19355   1.560   7.062  15.733  0.1980 -0.1040  0.1741
  160DOPC  C31119356   1.696   7.166  15.598 -0.1172  0.5426 -0.3726
  160DOPC  H11X19357   1.791   7.225  15.598  1.2719 -1.6024  0.0604
  160DOPC  H11Y19358   1.614   7.229  15.558 -1.1396 -0.1840  0.5455
  160DOPC  C31219359   1.708   7.059  15.498 -0.1457  0.5802  0.5343
  160DOPC  H12X19360   1.611   7.022  15.460  1.0633 -0.9490 -1.2722
  160DOPC  H12Y19361   1.771   6.976  15.538  0.2710  1.9087  2.8128
  160DOPC  C31319362   1.767   7.100  15.366  0.3962  0.8917  0.2002
  160DOPC  H13X19363   1.711   7.192  15.336 -0.1861  0.8069  0.9946
  160DOPC  H13Y19364   1.873   7.123  15.388  1.0561 -1.7507  0.0325
  160DOPC  C31419365   1.776   6.995  15.251  0.2291 -0.4489 -0.7727
  160DOPC  H14X19366   1.849   7.038  15.179 -0.7398  2.2789 -0.2594
  160DOPC  H14Y19367   1.830   6.906  15.288  0.6362 -0.9450 -2.4870
  160DOPC  C31519368   1.646   6.964  15.175  0.0028  0.4934 -0.4561
  160DOPC  H15X19369   1.592   7.057  15.146  1.1674  1.1379 -0.6090
  160DOPC  H15Y19370   1.574   6.902  15.232 -0.3553 -0.8952 -2.3121
  160DOPC  C31619371   1.680   6.890  15.045 -0.1523 -0.2338 -0.0224
  160DOPC  H16X19372   1.723   6.969  14.980 -1.0083  2.5286  2.5679
  160DOPC  H16Y19373   1.752   6.809  15.071  0.8838 -0.0892 -2.2230
  160DOPC  C31719374   1.560   6.818  14.983  0.6622 -0.5622 -0.1331
  160DOPC  H17X19375   1.524   6.754  15.066 -1.1823 -2.3881 -2.2120
  160DOPC  H17Y19376   1.469   6.875  14.954 -0.7518 -1.9785  1.3258
  160DOPC  C31819377   1.612   6.738  14.864 -0.8634 -0.3593 -0.1628
  160DOPC  H18X19378   1.716   6.704  14.884 -1.8044 -1.9341  2.7452
  160DOPC  H18Y19379   1.559   6.642  14.842  2.2371 -2.3756  0.6097
  160DOPC  H18Z19380   1.606   6.802  14.774 -0.4992 -2.1966 -1.5412
  161DOPC     N19381   4.062   0.683  17.028  0.2266 -1.0079  0.1392
  161DOPC   C1219382   4.119   0.542  17.036  0.1086  0.9052 -0.2273
  161DOPC  H12A19383   4.072   0.481  16.960  2.6244 -3.1790  1.1566
  161DOPC  H12B19384   4.098   0.501  17.133 -2.3209  2.0798 -0.1763
  161DOPC   C1319385   4.117   0.750  16.903  0.3141  0.2814 -0.1570
  161DOPC  H13A19386   4.099   0.694  16.812  0.2541  0.6293 -0.3605
  161DOPC  H13B19387   4.081   0.851  16.891 -0.8702 -0.0475  0.3608
  161DOPC  H13C19388   4.223   0.736  16.916  0.4408  1.2120 -0.1662
  161DOPC   C1419389   4.098   0.773  17.141 -0.3337  0.6954  0.0175
  161DOPC  H14A19390   4.050   0.754  17.236  2.8686  1.1604  1.9178
  161DOPC  H14B19391   4.202   0.753  17.166 -0.3119  2.9465  2.1299
  161DOPC  H14C19392   4.079   0.875  17.112  0.7583  0.8536 -0.1889
  161DOPC   C1519393   3.910   0.667  17.025 -0.7221  0.1376  0.2958
  161DOPC  H15A19394   3.864   0.763  17.040  0.5026  1.1775 -2.0920
  161DOPC  H15B19395   3.880   0.594  17.099  2.8579 -0.6118  1.1672
  161DOPC  H15C19396   3.876   0.628  16.930  0.7367  1.7668 -0.9568
  161DOPC   C1119397   4.273   0.528  17.009 -0.2017 -0.4608  0.1167
  161DOPC  H11A19398   4.332   0.601  17.068 -0.9482  0.7181 -0.5681
  161DOPC  H11B19399   4.298   0.429  17.054 -1.5291 -0.7339  0.3071
  161DOPC     P19400   4.294   0.421  16.768 -0.5610  0.1153  0.2164
  161DOPC   O1319401   4.217   0.314  16.831  0.1063  0.1215 -0.0496
  161DOPC   O1419402   4.434   0.381  16.729  0.4799 -0.5957  0.3545
  161DOPC   O1219403   4.300   0.542  16.865 -0.0923  0.3823  0.0068
  161DOPC   O1119404   4.217   0.479  16.637  0.0622  0.2140 -0.1317
  161DOPC    C119405   4.263   0.599  16.570  0.8453 -0.8395 -0.4159
  161DOPC    HA19406   4.373   0.594  16.556  1.5185  2.3034  2.4635
  161DOPC    HB19407   4.235   0.692  16.624 -1.1352 -0.8055 -1.4415
  161DOPC    C219408   4.210   0.607  16.420 -0.5502  1.3362 -0.0686
  161DOPC    HS19409   4.255   0.696  16.371  1.0994  0.7007  0.2196
  161DOPC   O2119410   4.065   0.619  16.418 -0.3300  0.5634 -0.0995
  161DOPC   C2119411   4.021   0.738  16.452 -0.1164  0.2235 -0.5055
  161DOPC   O2219412   4.092   0.833  16.486 -0.4901 -0.1233  0.6363
  161DOPC   C2219413   3.870   0.729  16.436  0.2981  0.0114  0.1223
  161DOPC   H2R19414   3.831   0.832  16.454  1.6565  0.9104 -1.6191
  161DOPC   H2S19415   3.816   0.656  16.498 -2.8174 -0.2041 -2.5530
  161DOPC    C319416   4.254   0.472  16.350 -0.4613 -0.5423  1.1300
  161DOPC    HX19417   4.195   0.384  16.382  0.7407 -0.9451  2.3330
  161DOPC    HY19418   4.352   0.434  16.385  0.5824  0.0904 -0.9126
  161DOPC   O3119419   4.251   0.487  16.199 -0.5715 -0.3694  0.2064
  161DOPC   C3119420   4.157   0.427  16.136  0.0062  0.3788 -0.8477
  161DOPC   O3219421   4.077   0.353  16.179  0.3263  0.9440  0.2229
  161DOPC   C3219422   4.159   0.472  15.991 -0.6371 -0.1540 -0.3746
  161DOPC   H2X19423   4.182   0.580  15.998 -1.0009 -0.0953 -0.0042
  161DOPC   H2Y19424   4.241   0.413  15.946 -0.7689 -1.0350  0.4908
  161DOPC   C2319425   3.830   0.696  16.282  0.4768 -0.5699  0.5886
  161DOPC   H3R19426   3.721   0.690  16.264  0.3393  0.3959  1.0450
  161DOPC   H3S19427   3.877   0.597  16.263 -0.0695 -0.9032  0.9653
  161DOPC   C2419428   3.896   0.785  16.173 -0.1709  0.5578 -0.1237
  161DOPC   H4R19429   4.006   0.776  16.166 -0.0049  0.9147  1.6887
  161DOPC   H4S19430   3.872   0.890  16.201  1.0793  1.3521 -1.8401
  161DOPC   C2519431   3.823   0.768  16.035 -0.7123  0.1453 -1.2639
  161DOPC   H5R19432   3.712   0.772  16.046 -0.5251  0.8584  0.6498
  161DOPC   H5S19433   3.834   0.657  16.031  0.7020  0.2093  0.1128
  161DOPC   C2619434   3.890   0.829  15.915  0.6973  0.1487  0.0099
  161DOPC   H6R19435   3.991   0.785  15.901 -1.2020 -4.0076 -3.0958
  161DOPC   H6S19436   3.881   0.939  15.917  0.4029  0.1446 -0.8917
  161DOPC   C2719437   3.817   0.781  15.784 -0.4229 -0.3386  0.1658
  161DOPC   H7R19438   3.714   0.817  15.804 -1.0524 -1.8422 -0.1753
  161DOPC   H7S19439   3.817   0.670  15.788 -0.1021 -0.3101  1.2811
  161DOPC   C2819440   3.895   0.833  15.657 -0.0508  0.4898 -0.4727
  161DOPC   H8R19441   3.999   0.802  15.681 -0.2949  0.8734  1.2079
  161DOPC   H8S19442   3.893   0.944  15.654  1.4669  0.6191  1.4607
  161DOPC   C2919443   3.834   0.762  15.535  0.5130 -0.1919 -0.6748
  161DOPC   H9R19444   3.881   0.666  15.508 -0.5975 -1.1559  0.6492
  161DOPC  C21019445   3.722   0.790  15.466  0.2025  0.4362  0.6259
  161DOPC  H10R19446   3.698   0.730  15.376 -1.6998 -0.8323  1.8847
  161DOPC  C21119447   3.629   0.901  15.484  0.3504 -0.4467 -0.1856
  161DOPC  H11R19448   3.691   0.988  15.514  0.2714 -0.1969 -0.7365
  161DOPC  H11S19449   3.562   0.872  15.568  0.1977 -1.0641 -0.5169
  161DOPC  C21219450   3.555   0.936  15.358  0.1069 -0.0453 -0.5134
  161DOPC  H12R19451   3.622   0.910  15.273  0.6953  0.4168 -0.1970
  161DOPC  H12S19452   3.524   1.042  15.356 -0.2869 -0.1705 -1.5963
  161DOPC  C21319453   3.422   0.861  15.357  0.0069  0.0516 -0.4384
  161DOPC  H13R19454   3.361   0.885  15.447  0.4991  2.3829 -0.6650
  161DOPC  H13S19455   3.445   0.752  15.365  0.0956 -0.0333 -1.6706
  161DOPC  C21419456   3.334   0.892  15.239 -0.4601  0.1429 -0.0586
  161DOPC  H14R19457   3.381   0.862  15.143 -0.6884  0.1063 -0.1596
  161DOPC  H14S19458   3.300   0.998  15.239 -0.9398  0.0013 -0.8888
  161DOPC  C21519459   3.197   0.814  15.247 -0.0666  0.2326 -0.4148
  161DOPC  H15R19460   3.145   0.850  15.338  0.5612 -1.7441  0.7805
  161DOPC  H15S19461   3.209   0.704  15.255 -1.3569 -0.0160 -1.5712
  161DOPC  C21619462   3.113   0.837  15.123 -0.5553  0.2365  0.1356
  161DOPC  H16R19463   3.106   0.940  15.082 -0.4408 -0.2954 -1.2575
  161DOPC  H16S19464   3.008   0.803  15.139  0.0624 -1.6644  0.4670
  161DOPC  C21719465   3.177   0.769  15.002  0.3471 -0.2252  0.5651
  161DOPC  H17R19466   3.180   0.661  15.029 -0.2239  0.4490  3.7502
  161DOPC  H17S19467   3.280   0.807  14.983 -0.3926  2.8063  2.0368
  161DOPC  C21819468   3.103   0.782  14.870 -0.7190  0.3708  0.4419
  161DOPC  H18R19469   3.009   0.722  14.865 -0.0096 -0.6655 -2.9501
  161DOPC  H18S19470   3.160   0.734  14.787  0.1335  0.8156  0.7619
  161DOPC  H18T19471   3.093   0.891  14.854  1.7022  0.6395  0.4414
  161DOPC   C3319472   4.017   0.457  15.931 -0.5235  1.1847 -0.3658
  161DOPC   H3X19473   4.007   0.530  15.848 -2.2759 -0.3228 -1.5955
  161DOPC   H3Y19474   3.935   0.476  16.004 -0.4226  1.1593 -0.2462
  161DOPC   C3419475   4.000   0.319  15.864 -0.0273 -0.7872  0.0986
  161DOPC   H4X19476   4.026   0.224  15.915 -2.0243 -1.7952 -0.6823
  161DOPC   H4Y19477   4.068   0.324  15.776  0.6515  2.3836  0.6879
  161DOPC   C3519478   3.854   0.296  15.820 -0.2417  0.2276  0.4577
  161DOPC   H5X19479   3.824   0.365  15.738  0.7683 -0.9510 -0.9287
  161DOPC   H5Y19480   3.799   0.310  15.916 -0.3040  0.9829  0.3192
  161DOPC   C3619481   3.833   0.152  15.754  0.1460 -0.0126  0.2353
  161DOPC   H6X19482   3.877   0.074  15.820 -2.2740 -0.4834  1.3848
  161DOPC   H6Y19483   3.724   0.135  15.760  0.0485  0.5933  0.2748
  161DOPC   C3719484   3.899   0.135  15.618 -0.3298 -0.5656  0.1554
  161DOPC   H7X19485   3.891   0.234  15.569  0.7244 -0.7408 -0.4224
  161DOPC   H7Y19486   4.006   0.118  15.642 -0.5528 -1.8897  0.3041
  161DOPC   C3819487   3.843   0.029  15.518 -0.1332 -0.6232 -0.0451
  161DOPC   H8X19488   3.736   0.056  15.504 -0.1493  0.1023  1.3232
  161DOPC   H8Y19489   3.853  -0.073  15.559  0.5252 -0.6375 -0.2297
  161DOPC   C3919490   3.896   0.040  15.378  0.1369 -0.3024  0.2394
  161DOPC   H9X19491   3.976  -0.031  15.353 -0.5544 -1.2945  0.7604
  161DOPC  C31019492   3.849   0.125  15.286 -0.2268  0.2072  0.0239
  161DOPC  H10X19493   3.893   0.120  15.185 -2.5592 -1.9689 -0.9883
  161DOPC  C31119494   3.733   0.217  15.299  0.4600 -0.0717  0.0404
  161DOPC  H11X19495   3.713   0.260  15.399  0.1502  0.4087 -0.2266
  161DOPC  H11Y19496   3.646   0.158  15.263  0.7282 -0.7283  0.4532
  161DOPC  C31219497   3.744   0.340  15.210 -0.3993 -0.0139 -0.0729
  161DOPC  H12X19498   3.757   0.302  15.107  0.1344 -3.0067  0.9888
  161DOPC  H12Y19499   3.821   0.414  15.241 -0.8803 -0.8299  3.4993
  161DOPC  C31319500   3.623   0.436  15.216 -0.2460 -0.1067 -0.0517
  161DOPC  H13X19501   3.532   0.380  15.186  0.3748 -0.8671 -0.5574
  161DOPC  H13Y19502   3.602   0.473  15.318 -0.8646  0.6682 -0.4452
  161DOPC  C31419503   3.640   0.577  15.150 -0.1058 -0.4467  0.1429
  161DOPC  H14X19504   3.546   0.634  15.169 -1.9524 -3.3638  0.4023
  161DOPC  H14Y19505   3.729   0.627  15.193  0.1497 -1.8028  1.2637
  161DOPC  C31519506   3.657   0.561  14.998  0.1998  1.0854 -0.4712
  161DOPC  H15X19507   3.596   0.475  14.964  1.3536 -0.1205  0.4143
  161DOPC  H15Y19508   3.766   0.547  14.981  0.3779 -1.1731  1.9337
  161DOPC  C31619509   3.595   0.677  14.914 -0.2237 -0.5629  0.2364
  161DOPC  H16X19510   3.625   0.664  14.808  2.1524 -0.1045  0.7812
  161DOPC  H16Y19511   3.487   0.683  14.937 -0.0721 -0.1112  0.8900
  161DOPC  C31719512   3.650   0.813  14.965  0.2951 -0.1634  0.5262
  161DOPC  H17X19513   3.656   0.819  15.076  3.1117 -0.4871  0.4677
  161DOPC  H17Y19514   3.752   0.821  14.922  1.1162 -0.9085  2.2325
  161DOPC  C31819515   3.573   0.926  14.907 -0.1098 -0.9073  0.3928
  161DOPC  H18X19516   3.592   0.923  14.798  3.5105 -1.5550  0.9036
  161DOPC  H18Y19517   3.462   0.920  14.910 -0.1588 -0.4484 -0.2272
  161DOPC  H18Z19518   3.611   1.021  14.951  1.1049 -1.7782  1.3036
  162DOPC     N19519   1.196   6.538  17.451  0.3536  0.6665  0.3767
  162DOPC   C1219520   1.180   6.428  17.350  0.1884  0.0000 -0.1180
  162DOPC  H12A19521   1.093   6.439  17.287  0.0942  0.4562  0.0883
  162DOPC  H12B19522   1.176   6.330  17.397  1.9942  0.1955  0.5144
  162DOPC   C1319523   1.164   6.677  17.391 -0.9726 -0.2297 -0.1156
  162DOPC  H13A19524   1.066   6.696  17.348 -0.1080  1.5138 -1.4544
  162DOPC  H13B19525   1.192   6.749  17.466  2.8773 -0.2288 -1.3381
  162DOPC  H13C19526   1.225   6.698  17.305  0.6151  0.4628  1.1317
  162DOPC   C1419527   1.330   6.525  17.513  0.2004 -0.3766  0.0143
  162DOPC  H14A19528   1.349   6.433  17.567 -1.9360 -0.9829 -0.1459
  162DOPC  H14B19529   1.401   6.535  17.433  0.2562  2.0982  0.3076
  162DOPC  H14C19530   1.340   6.607  17.583  1.9047  0.1156 -0.7769
  162DOPC   C1519531   1.096   6.521  17.559 -0.3308  0.0341 -0.0560
  162DOPC  H15A19532   0.994   6.538  17.531 -0.0032  0.0436 -1.2970
  162DOPC  H15B19533   1.124   6.574  17.649 -0.0394  0.9705 -0.6799
  162DOPC  H15C19534   1.103   6.422  17.602 -2.6652 -0.4073 -0.5813
  162DOPC   C1119535   1.278   6.408  17.236 -0.2112 -0.9232  0.4822
  162DOPC  H11A19536   1.380   6.401  17.279  0.6800  0.9050 -1.1531
  162DOPC  H11B19537   1.256   6.316  17.178 -1.9380  0.2815 -0.9021
  162DOPC     P19538   1.239   6.532  17.010 -0.3542 -0.3111  0.3043
  162DOPC   O1319539   1.270   6.669  16.967 -0.1301  0.8521  0.2973
  162DOPC   O1419540   1.095   6.501  16.996  0.1186 -0.6584  0.2762
  162DOPC   O1219541   1.289   6.529  17.157 -0.1478 -0.4492  0.2704
  162DOPC   O1119542   1.333   6.433  16.931  0.4804  0.0187 -0.4781
  162DOPC    C119543   1.466   6.408  16.954 -0.4895 -0.2986  0.0454
  162DOPC    HA19544   1.473   6.302  16.987 -3.0998 -0.9767 -1.3698
  162DOPC    HB19545   1.504   6.451  17.049 -1.1560 -4.2064  2.3023
  162DOPC    C219546   1.549   6.414  16.824  1.0966  0.4042 -0.4496
  162DOPC    HS19547   1.557   6.520  16.789 -1.1727  0.2941 -1.4958
  162DOPC   O2119548   1.475   6.334  16.731  0.3709 -0.4002  0.3135
  162DOPC   C2119549   1.419   6.398  16.635 -0.0016 -0.1865  0.4873
  162DOPC   O2219550   1.424   6.513  16.596  0.0124  0.5814 -0.2215
  162DOPC   C2219551   1.346   6.289  16.564  0.2571 -0.2276  0.6973
  162DOPC   H2R19552   1.240   6.321  16.560  0.3061  0.0204  1.2692
  162DOPC   H2S19553   1.349   6.191  16.616 -0.5690  0.3263  1.8206
  162DOPC    C319554   1.693   6.356  16.847  0.7887  0.6389  1.0045
  162DOPC    HX19555   1.679   6.253  16.888  0.0125  0.0152 -0.7177
  162DOPC    HY19556   1.748   6.409  16.927  1.0996  0.5516  0.8509
  162DOPC   O3119557   1.761   6.347  16.725  0.6153  0.0392 -0.4034
  162DOPC   C3119558   1.857   6.428  16.697  0.1905  0.0954  0.0131
  162DOPC   O3219559   1.894   6.527  16.758  0.2755  0.0019  0.5521
  162DOPC   C3219560   1.928   6.387  16.566 -0.4382  0.6966  0.6570
  162DOPC   H2X19561   1.932   6.476  16.500  0.7230 -1.1272 -1.8876
  162DOPC   H2Y19562   2.034   6.361  16.587  0.3421  2.1960 -1.1453
  162DOPC   C2319563   1.400   6.253  16.415 -0.1956 -0.7901  0.3951
  162DOPC   H3R19564   1.506   6.222  16.415  0.2252  0.5538 -0.7964
  162DOPC   H3S19565   1.405   6.351  16.362 -2.0076 -1.1948 -0.6270
  162DOPC   C2419566   1.299   6.170  16.333 -0.1249 -0.3835  0.1246
  162DOPC   H4R19567   1.211   6.234  16.312 -1.0245 -1.7256 -0.3946
  162DOPC   H4S19568   1.260   6.086  16.393 -1.9262  0.7927  0.6531
  162DOPC   C2519569   1.354   6.138  16.191  0.5666 -0.3113  0.3046
  162DOPC   H5R19570   1.429   6.057  16.201 -0.9249 -1.6383  1.2548
  162DOPC   H5S19571   1.407   6.225  16.147 -1.7419  1.0273 -0.0130
  162DOPC   C2619572   1.255   6.104  16.079  0.5930  0.0975  0.5615
  162DOPC   H6R19573   1.163   6.167  16.083  1.7835  1.9578 -0.0415
  162DOPC   H6S19574   1.219   6.002  16.102 -0.4129  0.5680  1.1420
  162DOPC   C2719575   1.319   6.099  15.943  0.0711  0.0458 -0.0147
  162DOPC   H7R19576   1.277   6.015  15.883 -0.8951  0.0195  0.6751
  162DOPC   H7S19577   1.426   6.071  15.949  0.1036  0.2776  0.5201
  162DOPC   C2819578   1.299   6.228  15.865  0.1896 -0.9721 -0.2760
  162DOPC   H8R19579   1.345   6.320  15.909  0.1663 -0.5894 -1.0173
  162DOPC   H8S19580   1.191   6.252  15.859 -0.5111 -3.8940 -0.9085
  162DOPC   C2919581   1.363   6.214  15.731  0.4170  0.3321 -0.3410
  162DOPC   H9R19582   1.463   6.170  15.741  0.7419  0.8341 -1.2591
  162DOPC  C21019583   1.303   6.248  15.619  0.7387  0.1572  0.0082
  162DOPC  H10R19584   1.339   6.209  15.523  1.3128 -0.7731  0.5879
  162DOPC  C21119585   1.160   6.310  15.603 -0.5997  0.6705 -0.1987
  162DOPC  H11R19586   1.156   6.391  15.527  0.8357  0.0255 -1.0042
  162DOPC  H11S19587   1.147   6.366  15.698  2.6485  0.2497  0.5972
  162DOPC  C21219588   1.047   6.209  15.588 -0.6127  0.2431  0.2418
  162DOPC  H12R19589   0.955   6.270  15.596 -0.9768 -0.4077  1.2137
  162DOPC  H12S19590   1.044   6.138  15.673 -0.1112 -1.0028 -0.7427
  162DOPC  C21319591   1.043   6.135  15.452 -0.5032  0.3250 -0.9434
  162DOPC  H13R19592   0.975   6.048  15.468 -0.2098 -0.2134 -2.4404
  162DOPC  H13S19593   1.144   6.093  15.433  0.5255  2.6251 -0.8345
  162DOPC  C21419594   0.999   6.211  15.331  0.2184  0.0161 -0.0208
  162DOPC  H14R19595   1.056   6.306  15.333  0.7231 -0.2923  0.5823
  162DOPC  H14S19596   0.891   6.234  15.343  0.9019  2.9978  1.4418
  162DOPC  C21519597   1.027   6.135  15.196 -0.3170 -0.1223 -0.4483
  162DOPC  H15R19598   1.138   6.128  15.198 -0.3153 -4.2984  4.4158
  162DOPC  H15S19599   0.969   6.191  15.120  1.0051 -0.5320 -1.7946
  162DOPC  C21619600   0.965   5.997  15.179  0.0685  0.4359 -0.1616
  162DOPC  H16R19601   0.858   6.000  15.208  0.3101  1.5228  0.6737
  162DOPC  H16S19602   1.013   5.937  15.259 -1.4753 -1.6656 -0.7110
  162DOPC  C21719603   0.983   5.937  15.046 -0.4668  0.0593  0.5753
  162DOPC  H17R19604   1.092   5.951  15.027 -0.5678  0.9156  0.5775
  162DOPC  H17S19605   0.934   5.997  14.967 -1.5181  1.3800  2.1493
  162DOPC  C21819606   0.964   5.792  15.028 -0.2974  0.5025  0.3561
  162DOPC  H18R19607   1.009   5.741  14.940 -0.5427 -1.6829  1.4309
  162DOPC  H18S19608   0.855   5.774  15.019  0.1840 -2.9598  0.0203
  162DOPC  H18T19609   0.995   5.733  15.116 -0.9693 -2.9740 -1.5393
  162DOPC   C3319610   1.858   6.284  16.476 -0.5173  0.0537  0.1943
  162DOPC   H3X19611   1.767   6.330  16.433  0.0095 -0.1621 -1.2177
  162DOPC   H3Y19612   1.840   6.184  16.520  1.4527 -0.1889  0.5470
  162DOPC   C3419613   1.934   6.255  16.351 -0.6861 -0.4555 -0.1997
  162DOPC   H4X19614   2.041   6.239  16.377 -0.1690  2.3733 -0.2287
  162DOPC   H4Y19615   1.932   6.343  16.283 -1.0676 -0.3962 -0.1158
  162DOPC   C3519616   1.896   6.123  16.280  0.2960  0.3057  0.3486
  162DOPC   H5X19617   1.795   6.134  16.235 -0.0995 -4.4024 -0.4476
  162DOPC   H5Y19618   1.882   6.036  16.348 -0.5279 -0.2856 -0.5540
  162DOPC   C3619619   1.988   6.100  16.167 -0.7613 -0.3312  0.1211
  162DOPC   H6X19620   2.001   6.186  16.097 -0.6082 -0.2072  0.3058
  162DOPC   H6Y19621   2.092   6.082  16.200  0.4584 -1.1210 -3.6140
  162DOPC   C3719622   1.947   5.982  16.074  0.1572 -0.5768  0.0655
  162DOPC   H7X19623   1.945   5.895  16.142 -0.9614  0.8941  2.0070
  162DOPC   H7Y19624   1.845   6.010  16.038  0.9674 -0.2277 -2.1011
  162DOPC   C3819625   2.028   5.967  15.941  0.2038  0.1851  0.1323
  162DOPC   H8X19626   2.137   5.959  15.959  0.5022 -0.1655 -1.6148
  162DOPC   H8Y19627   2.006   6.043  15.862 -0.0312 -1.5033 -1.4986
  162DOPC   C3919628   1.986   5.840  15.877 -0.0356  0.6728  0.0225
  162DOPC   H9X19629   1.905   5.793  15.935 -1.3632  0.3324 -1.9847
  162DOPC  C31019630   2.018   5.782  15.763 -0.2543  0.0939  0.9033
  162DOPC  H10X19631   1.972   5.685  15.741  0.5584  0.1503 -1.3157
  162DOPC  C31119632   2.117   5.824  15.647  0.1165  0.2020  0.5723
  162DOPC  H11X19633   2.176   5.741  15.601 -2.9670 -1.9911  0.2855
  162DOPC  H11Y19634   2.198   5.891  15.685 -0.5155  1.5724 -0.4174
  162DOPC  C31219635   2.049   5.891  15.528  0.8000 -0.2139  0.1251
  162DOPC  H12X19636   2.116   5.972  15.491 -0.6853  0.6055 -0.8401
  162DOPC  H12Y19637   1.960   5.939  15.574  0.0946 -0.2859 -1.1425
  162DOPC  C31319638   2.003   5.789  15.411  0.2676 -0.3723 -0.2693
  162DOPC  H13X19639   1.967   5.840  15.319  1.0663 -0.0712 -0.4231
  162DOPC  H13Y19640   2.095   5.738  15.374  1.3578  0.5317  1.0676
  162DOPC  C31419641   1.896   5.683  15.452 -0.0708  0.6451 -0.2834
  162DOPC  H14X19642   1.936   5.635  15.543  2.3260  2.1945 -0.4241
  162DOPC  H14Y19643   1.806   5.740  15.485 -0.4667 -0.4221  0.5151
  162DOPC  C31519644   1.850   5.588  15.345  0.2629 -0.2399 -0.1627
  162DOPC  H15X19645   1.930   5.512  15.334 -0.6097 -1.2192  0.0920
  162DOPC  H15Y19646   1.826   5.647  15.254 -1.4417 -0.0725  0.3614
  162DOPC  C31619647   1.722   5.512  15.380 -0.3088  0.0206  0.1687
  162DOPC  H16X19648   1.630   5.570  15.357 -0.0452 -0.2334 -1.6681
  162DOPC  H16Y19649   1.714   5.422  15.315 -1.8090 -0.3163  0.7563
  162DOPC  C31719650   1.720   5.469  15.525 -0.2839 -0.1882 -0.7180
  162DOPC  H17X19651   1.819   5.429  15.558 -1.2266 -0.4166  2.0834
  162DOPC  H17Y19652   1.724   5.562  15.585  0.0978 -0.6447 -0.0118
  162DOPC  C31819653   1.608   5.375  15.571 -0.9177 -0.4893  0.7835
  162DOPC  H18X19654   1.511   5.429  15.579 -0.6267  0.0169  0.9640
  162DOPC  H18Y19655   1.584   5.299  15.493  1.1113 -1.4268  1.0157
  162DOPC  H18Z19656   1.634   5.330  15.669  0.4432 -1.4987 -0.0138
  163DOPC     N19657   6.906   2.863  17.243  0.4518  0.1320 -0.2679
  163DOPC   C1219658   6.856   2.904  17.100  0.2146 -0.1441  1.0074
  163DOPC  H12A19659   6.760   2.953  17.113 -0.3262 -0.9294  0.1835
  163DOPC  H12B19660   6.845   2.811  17.045 -0.1937  1.0831 -1.0988
  163DOPC   C1319661   6.798   2.801  17.328  0.1067 -0.0441 -0.1552
  163DOPC  H13A19662   6.826   2.774  17.429 -0.3641 -1.3454 -0.3524
  163DOPC  H13B19663   6.709   2.862  17.335 -1.4477 -1.9552 -1.9877
  163DOPC  H13C19664   6.753   2.716  17.280 -0.4556 -1.2191  2.2941
  163DOPC   C1419665   6.954   2.988  17.313  0.2153 -0.3372  0.6677
  163DOPC  H14A19666   6.872   3.050  17.346  0.1985 -0.2723  0.5036
  163DOPC  H14B19667   7.012   2.962  17.401 -0.7030  1.3524  1.8263
  163DOPC  H14C19668   7.016   3.041  17.241  0.0062  0.6869  1.2197
  163DOPC   C1519669   7.023   2.773  17.225  0.0769  0.0786  0.2978
  163DOPC  H15A19670   7.004   2.680  17.174 -1.8872  0.9994 -0.7392
  163DOPC  H15B19671   7.071   2.754  17.320  2.3781  0.8536 -0.6351
  163DOPC  H15C19672   7.101   2.820  17.166  0.8642  0.0406  1.2907
  163DOPC   C1119673   6.943   2.991  17.008  0.5879 -0.0527 -0.4852
  163DOPC  H11A19674   6.875   3.026  16.927 -2.9863 -3.5367  0.6944
  163DOPC  H11B19675   6.970   3.082  17.065 -4.9714  1.1508  0.8800
  163DOPC     P19676   7.193   2.978  16.964  0.6775  0.0834 -0.3211
  163DOPC   O1319677   7.255   2.890  17.061 -0.2177 -0.1505  0.3729
  163DOPC   O1419678   7.183   3.125  16.988 -0.4478  0.2601 -0.4116
  163DOPC   O1219679   7.046   2.915  16.949  0.0190 -0.9701  0.0466
  163DOPC   O1119680   7.257   2.953  16.824  0.2048  0.2886 -0.2579
  163DOPC    C119681   7.258   2.819  16.764  0.4639 -0.1735  0.3237
  163DOPC    HA19682   7.167   2.763  16.796 -0.5793  0.4056 -1.4874
  163DOPC    HB19683   7.354   2.773  16.795  2.2014  3.0901  0.2058
  163DOPC    C219684   7.235   2.829  16.609 -1.4322  0.5790 -0.9883
  163DOPC    HS19685   7.299   2.908  16.564  1.2563  0.2747  1.9003
  163DOPC   O2119686   7.097   2.846  16.590  0.8145 -0.0226  0.5209
  163DOPC   C2119687   7.057   2.967  16.577 -0.0562  0.4871  0.2676
  163DOPC   O2219688   7.127   3.065  16.585  0.5721  0.2323 -0.1248
  163DOPC   C2219689   6.907   2.968  16.544  0.1807 -0.3873  0.5103
  163DOPC   H2R19690   6.883   3.066  16.497  0.6120 -0.5453 -0.0474
  163DOPC   H2S19691   6.857   2.977  16.642  1.6731 -0.0714  1.2839
  163DOPC    C319692   7.273   2.693  16.543 -0.1710 -0.2753 -0.3580
  163DOPC    HX19693   7.222   2.697  16.444 -0.7260  0.7110 -0.0433
  163DOPC    HY19694   7.235   2.607  16.601 -1.6806  0.1941 -0.5956
  163DOPC   O3119695   7.413   2.677  16.531 -0.1460  0.3364  0.2989
  163DOPC   C3119696   7.450   2.581  16.455 -0.5026  0.0296 -0.6508
  163DOPC   O3219697   7.381   2.492  16.420 -0.1574  0.3403  0.1832
  163DOPC   C3219698   7.596   2.583  16.408  0.0842 -0.0626 -0.0894
  163DOPC   H2X19699   7.653   2.658  16.468 -0.3095 -0.1879  0.4511
  163DOPC   H2Y19700   7.652   2.493  16.442  1.6973  0.9832  0.1671
  163DOPC   C2319701   6.850   2.859  16.452  0.2075 -0.6621  0.3697
  163DOPC   H3R19702   6.745   2.884  16.426  0.5632  0.7412  0.2283
  163DOPC   H3S19703   6.860   2.763  16.507 -0.8686 -1.9427 -1.5584
  163DOPC   C2419704   6.915   2.842  16.306 -0.2694 -0.0282  0.5872
  163DOPC   H4R19705   6.854   2.776  16.241  0.9893  1.4425 -2.2639
  163DOPC   H4S19706   7.020   2.810  16.321  0.3379  1.1628 -0.8494
  163DOPC   C2519707   6.914   2.975  16.235 -0.3519 -0.5078 -0.6418
  163DOPC   H5R19708   6.968   3.049  16.297  0.3447 -1.3673 -0.1888
  163DOPC   H5S19709   6.812   3.017  16.223  0.3724  1.1949 -1.0432
  163DOPC   C2619710   6.975   2.972  16.093 -0.1106  0.5758 -0.5823
  163DOPC   H6R19711   6.927   2.889  16.037  1.5341  0.9277 -2.6505
  163DOPC   H6S19712   7.083   2.949  16.102  0.1247  2.2140  2.0129
  163DOPC   C2719713   6.959   3.105  16.022  0.2481 -0.0122 -0.1656
  163DOPC   H7R19714   6.975   3.190  16.093 -1.7260 -0.5164  0.9574
  163DOPC   H7S19715   6.851   3.103  15.995  0.4830 -1.1705 -1.0562
  163DOPC   C2819716   7.037   3.114  15.895  0.2670 -0.3792  0.7556
  163DOPC   H8R19717   7.144   3.110  15.923 -0.3213  0.3167  3.4185
  163DOPC   H8S19718   7.033   3.217  15.855  1.7948 -0.9178 -0.8935
  163DOPC   C2919719   6.983   3.013  15.798  0.7563  0.1075 -0.0672
  163DOPC   H9R19720   6.895   2.961  15.839  1.0145 -1.8484 -1.8436
  163DOPC  C21019721   7.037   2.960  15.691 -0.5071  0.0479 -0.1467
  163DOPC  H10R19722   6.979   2.880  15.643  0.6667 -0.1060 -1.3569
  163DOPC  C21119723   7.175   2.984  15.633 -0.0013  0.2157  0.3210
  163DOPC  H11R19724   7.232   2.890  15.649 -1.9206 -1.3623 -1.4946
  163DOPC  H11S19725   7.231   3.068  15.680  0.6370  1.3979 -2.3532
  163DOPC  C21219726   7.166   3.010  15.478 -0.1154  0.2836 -0.2580
  163DOPC  H12R19727   7.079   2.954  15.438 -1.5141  1.9947  0.2690
  163DOPC  H12S19728   7.254   2.972  15.422 -0.6927  0.4012 -1.2613
  163DOPC  C21319729   7.135   3.156  15.451 -0.2325 -0.3224  0.3730
  163DOPC  H13R19730   7.215   3.213  15.503  0.1086 -0.9231  0.5233
  163DOPC  H13S19731   7.034   3.174  15.492 -0.1986  0.1525  0.2575
  163DOPC  C21419732   7.146   3.189  15.300  0.6155  0.2511  0.0580
  163DOPC  H14R19733   7.249   3.183  15.259  1.3158 -0.7721  1.8393
  163DOPC  H14S19734   7.122   3.297  15.283  3.0574  0.6738 -1.1348
  163DOPC  C21519735   7.033   3.109  15.221 -0.0357 -0.0008  0.7897
  163DOPC  H15R19736   7.067   3.003  15.222 -0.8750 -0.3493 -1.4702
  163DOPC  H15S19737   7.032   3.146  15.116 -2.3260 -2.2716 -0.0782
  163DOPC  C21619738   6.885   3.137  15.263 -0.8322 -0.6234 -0.2221
  163DOPC  H16R19739   6.863   3.242  15.233 -0.8935 -0.6362 -0.2211
  163DOPC  H16S19740   6.866   3.124  15.371 -0.6472  0.5554 -0.0331
  163DOPC  C21719741   6.788   3.048  15.189  0.1250 -0.6385 -0.5463
  163DOPC  H17R19742   6.798   3.080  15.083 -1.3608  2.7513  0.1825
  163DOPC  H17S19743   6.683   3.065  15.221  0.9410  1.0271  1.5481
  163DOPC  C21819744   6.830   2.903  15.200 -0.4270 -0.2449 -0.1588
  163DOPC  H18R19745   6.924   2.881  15.146 -0.1612 -0.9847  0.5764
  163DOPC  H18S19746   6.753   2.831  15.164 -0.8860  0.3623 -0.4010
  163DOPC  H18T19747   6.853   2.883  15.307 -0.6101  1.2918  0.1923
  163DOPC   C3319748   7.616   2.601  16.253 -0.7430 -0.6946 -0.2085
  163DOPC   H3X19749   7.533   2.667  16.221  0.4247  2.1138  2.1185
  163DOPC   H3Y19750   7.604   2.502  16.203 -1.3877 -0.3262 -0.7928
  163DOPC   C3419751   7.743   2.673  16.222 -0.9349 -0.3730  0.7317
  163DOPC   H4X19752   7.834   2.614  16.243  0.5906  1.1560 -1.2323
  163DOPC   H4Y19753   7.749   2.764  16.286  0.5595  1.3628 -1.7302
  163DOPC   C3519754   7.756   2.734  16.078  0.1851 -0.4929 -0.1343
  163DOPC   H5X19755   7.849   2.791  16.058 -0.3547  1.0709  1.6572
  163DOPC   H5Y19756   7.682   2.815  16.064 -0.2631 -0.8981 -0.1393
  163DOPC   C3619757   7.722   2.637  15.963 -0.1398  0.0692  0.8688
  163DOPC   H6X19758   7.619   2.601  15.986 -1.5064  2.8893 -0.3278
  163DOPC   H6Y19759   7.720   2.697  15.869 -2.8118 -0.9759  0.1461
  163DOPC   C3719760   7.826   2.527  15.946 -0.1861  0.1021  0.5012
  163DOPC   H7X19761   7.922   2.560  15.901 -0.4489 -1.7595 -1.5648
  163DOPC   H7Y19762   7.842   2.483  16.047 -0.4482  1.0075  0.9484
  163DOPC   C3819763   7.779   2.411  15.862  0.6928  0.1185 -0.2961
  163DOPC   H8X19764   7.681   2.367  15.892  1.3546  0.0017  1.8555
  163DOPC   H8Y19765   7.847   2.324  15.880  1.7977  1.2998  1.5305
  163DOPC   C3919766   7.781   2.427  15.708 -0.8029 -0.5009  0.4434
  163DOPC   H9X19767   7.866   2.367  15.671  1.4882  1.8563  1.5264
  163DOPC  C31019768   7.685   2.474  15.620  0.3320  0.2902  0.4643
  163DOPC  H10X19769   7.706   2.479  15.512 -0.5520 -2.2222  0.1251
  163DOPC  C31119770   7.547   2.522  15.663  0.0238 -0.3329  0.5216
  163DOPC  H11X19771   7.565   2.628  15.688  0.1635 -0.2176 -0.0568
  163DOPC  H11Y19772   7.517   2.462  15.752  0.6911 -2.4633 -0.6205
  163DOPC  C31219773   7.454   2.517  15.537  1.0760  0.3897  0.1598
  163DOPC  H12X19774   7.405   2.418  15.524 -0.3790  1.2707 -1.4326
  163DOPC  H12Y19775   7.509   2.545  15.445 -0.0836 -0.4453 -0.8176
  163DOPC  C31319776   7.339   2.620  15.556 -1.2752 -0.2578  0.1606
  163DOPC  H13X19777   7.299   2.605  15.658  0.3600  1.9719  1.2238
  163DOPC  H13Y19778   7.392   2.718  15.561  0.2202 -1.0524  0.3679
  163DOPC  C31419779   7.226   2.617  15.459  0.6263  0.0195  0.0562
  163DOPC  H14X19780   7.174   2.525  15.425 -0.3733  0.7910 -0.5746
  163DOPC  H14Y19781   7.143   2.682  15.494  0.5914  0.0314 -0.0454
  163DOPC  C31519782   7.273   2.669  15.322 -0.7596 -0.7282 -0.1113
  163DOPC  H15X19783   7.357   2.610  15.280 -1.0803  1.2267 -3.9722
  163DOPC  H15Y19784   7.317   2.770  15.334 -1.5257 -0.3358 -0.5086
  163DOPC  C31619785   7.166   2.670  15.213 -0.1992  0.1537 -0.1323
  163DOPC  H16X19786   7.105   2.579  15.231 -0.1108  0.1971  0.4140
  163DOPC  H16Y19787   7.104   2.756  15.248  0.3934 -0.2124  2.0083
  163DOPC  C31719788   7.224   2.693  15.081 -0.5319  0.1907  0.9914
  163DOPC  H17X19789   7.306   2.622  15.056  0.3965  1.4654  0.2576
  163DOPC  H17Y19790   7.153   2.669  14.999  1.3011 -1.1475 -0.3066
  163DOPC  C31819791   7.277   2.834  15.059 -0.1129 -0.0215 -0.3144
  163DOPC  H18X19792   7.199   2.913  15.064 -1.1034 -1.0243  2.8569
  163DOPC  H18Y19793   7.361   2.858  15.128  0.3566 -0.7777 -0.6213
  163DOPC  H18Z19794   7.326   2.837  14.960  0.7796  1.9176  0.1326
  164DOPC     N19795   1.307   0.632  17.141  0.0486  0.2365  0.3464
  164DOPC   C1219796   1.381   0.510  17.093  0.0441  0.5776  1.1000
  164DOPC  H12A19797   1.335   0.420  17.131 -0.8721  0.3091 -0.5258
  164DOPC  H12B19798   1.480   0.513  17.135  1.9117 -0.2239 -2.7699
  164DOPC   C1319799   1.280   0.620  17.286  0.4861  0.3077  0.6320
  164DOPC  H13A19800   1.368   0.597  17.345 -0.7120 -0.9615  1.9972
  164DOPC  H13B19801   1.236   0.705  17.336 -0.4133  0.0995  0.2144
  164DOPC  H13C19802   1.202   0.549  17.308 -0.1375  0.5161 -0.7814
  164DOPC   C1419803   1.169   0.655  17.078  0.2665 -0.0484  0.1109
  164DOPC  H14A19804   1.159   0.638  16.971  2.3590 -1.1436  0.0350
  164DOPC  H14B19805   1.096   0.603  17.137 -0.7033  0.6160 -0.4675
  164DOPC  H14C19806   1.141   0.757  17.098 -2.9511 -1.0424  1.3425
  164DOPC   C1519807   1.396   0.754  17.124 -0.4596  0.1456  0.4747
  164DOPC  H15A19808   1.343   0.848  17.126 -1.7851 -0.4159 -2.3749
  164DOPC  H15B19809   1.451   0.734  17.033 -0.5196  0.3067  0.4020
  164DOPC  H15C19810   1.470   0.755  17.202  0.1089 -0.0030 -0.0596
  164DOPC   C1119811   1.397   0.496  16.938 -0.3706  0.6835 -0.5217
  164DOPC  H11A19812   1.440   0.396  16.919 -0.4231  0.6917 -0.6906
  164DOPC  H11B19813   1.291   0.492  16.905  0.5903 -1.9049 -3.7512
  164DOPC     P19814   1.622   0.597  16.844 -0.2491  0.2078  0.0065
  164DOPC   O1319815   1.672   0.469  16.894  0.5919  0.0634 -0.0538
  164DOPC   O1419816   1.683   0.722  16.901  0.0510  0.7176 -0.0677
  164DOPC   O1219817   1.468   0.605  16.877  0.1324  0.0354 -0.0828
  164DOPC   O1119818   1.634   0.591  16.681  0.4661  0.3401  0.1552
  164DOPC    C119819   1.564   0.694  16.608  0.0653 -0.5143  0.6962
  164DOPC    HA19820   1.618   0.790  16.621 -0.0366 -0.3467 -0.0657
  164DOPC    HB19821   1.458   0.702  16.639 -0.3298 -0.3328 -0.6709
  164DOPC    C219822   1.579   0.682  16.454  0.2455  0.6854  0.3714
  164DOPC    HS19823   1.687   0.683  16.428  0.9043 -1.5882  2.5754
  164DOPC   O2119824   1.506   0.783  16.386 -0.2829  0.0260 -0.4115
  164DOPC   C2119825   1.569   0.835  16.279  0.0038  0.2504 -0.1320
  164DOPC   O2219826   1.673   0.800  16.235 -0.5312  0.0311  0.5290
  164DOPC   C2219827   1.494   0.961  16.241  0.1448  0.2867  0.0430
  164DOPC   H2R19828   1.565   1.039  16.204 -1.0175  0.7790 -1.2117
  164DOPC   H2S19829   1.443   1.007  16.328 -1.1635  2.0496 -1.5850
  164DOPC    C319830   1.528   0.540  16.400 -0.6491  0.2762  0.2255
  164DOPC    HX19831   1.427   0.532  16.444 -1.6709  1.5632 -1.7573
  164DOPC    HY19832   1.597   0.464  16.442 -0.7153 -0.4685 -0.9896
  164DOPC   O3119833   1.521   0.527  16.259 -0.3329 -0.9502  0.2998
  164DOPC   C3119834   1.619   0.491  16.187  0.3360 -0.1552 -0.4836
  164DOPC   O3219835   1.731   0.468  16.229 -0.6846 -0.0982 -0.0598
  164DOPC   C3219836   1.583   0.493  16.032 -0.4044  0.3285  0.4618
  164DOPC   H2X19837   1.568   0.390  15.992  2.2606 -0.0339  0.2341
  164DOPC   H2Y19838   1.487   0.546  16.016 -0.6848 -0.7248 -1.6739
  164DOPC   C2319839   1.402   0.921  16.129 -0.1498 -0.3988 -0.5583
  164DOPC   H3R19840   1.322   0.855  16.171 -1.0148  1.0273  0.1236
  164DOPC   H3S19841   1.446   0.865  16.044  1.5929 -0.3546  0.2635
  164DOPC   C2419842   1.322   1.041  16.071 -0.6511 -0.0433 -0.1914
  164DOPC   H4R19843   1.297   1.109  16.155  1.2083 -1.6073  1.7331
  164DOPC   H4S19844   1.220   1.024  16.029 -1.6929  1.7767  1.4442
  164DOPC   C2519845   1.403   1.125  15.971 -0.1998  0.1089  0.3018
  164DOPC   H5R19846   1.488   1.178  16.018 -1.4056  1.4319  1.0877
  164DOPC   H5S19847   1.347   1.211  15.927  1.9227  1.0122 -0.7386
  164DOPC   C2619848   1.456   1.049  15.851  0.0256 -0.1319 -0.0633
  164DOPC   H6R19849   1.387   0.972  15.811  1.3231 -2.5718  2.0992
  164DOPC   H6S19850   1.543   0.981  15.868  0.1826 -0.0278 -0.4321
  164DOPC   C2719851   1.500   1.138  15.737 -0.1783 -0.2092  0.0015
  164DOPC   H7R19852   1.589   1.201  15.761 -1.5144  1.0850  1.8263
  164DOPC   H7S19853   1.416   1.207  15.712  0.4647  0.6733  0.1999
  164DOPC   C2819854   1.536   1.051  15.614 -0.3740 -0.2984 -0.0824
  164DOPC   H8R19855   1.464   0.967  15.609 -0.4366 -0.1791 -1.9157
  164DOPC   H8S19856   1.642   1.019  15.628  0.3186  0.7711 -2.4351
  164DOPC   C2919857   1.543   1.119  15.476 -0.4286 -1.0145  0.3693
  164DOPC   H9R19858   1.642   1.144  15.436 -1.0257 -1.9381 -1.8118
  164DOPC  C21019859   1.437   1.152  15.409 -0.4960 -0.0265 -0.0421
  164DOPC  H10R19860   1.460   1.193  15.310  0.5311 -1.2548 -0.3289
  164DOPC  C21119861   1.292   1.138  15.443  0.4574  0.2298 -0.1921
  164DOPC  H11R19862   1.294   1.083  15.540  2.0324  1.1449  0.3318
  164DOPC  H11S19863   1.235   1.086  15.364 -0.4273  1.3004 -0.2759
  164DOPC  C21219864   1.224   1.276  15.459 -0.4238 -0.5534 -0.1964
  164DOPC  H12R19865   1.280   1.343  15.528 -2.8556 -0.3239  1.7040
  164DOPC  H12S19866   1.122   1.256  15.499 -0.2076 -2.0066 -0.3361
  164DOPC  C21319867   1.204   1.364  15.333  0.4993 -0.2489  0.1752
  164DOPC  H13R19868   1.302   1.390  15.288  0.2820  1.8926  0.8384
  164DOPC  H13S19869   1.162   1.463  15.361 -0.5919 -0.5391 -0.3620
  164DOPC  C21419870   1.108   1.295  15.241 -0.0350  0.5746 -0.8769
  164DOPC  H14R19871   1.025   1.245  15.295  0.4483  2.0646  1.4112
  164DOPC  H14S19872   1.164   1.211  15.194  0.5867  1.4320 -1.7312
  164DOPC  C21519873   1.054   1.390  15.130  0.4009  0.2854  0.5027
  164DOPC  H15R19874   1.140   1.431  15.074 -0.4786  1.3686 -0.0748
  164DOPC  H15S19875   1.009   1.478  15.182 -0.0181 -0.6811  1.8555
  164DOPC  C21619876   0.956   1.319  15.030 -0.1372  0.1190  0.3127
  164DOPC  H16R19877   0.864   1.279  15.079  0.8667 -1.3058  1.1157
  164DOPC  H16S19878   1.020   1.235  14.995  1.3171  2.2845 -2.6914
  164DOPC  C21719879   0.927   1.418  14.910 -0.0429  0.5247  0.0558
  164DOPC  H17R19880   1.016   1.438  14.846 -1.4254  3.4672 -1.1764
  164DOPC  H17S19881   0.886   1.513  14.950 -0.3039  0.3959  0.0944
  164DOPC  C21819882   0.814   1.356  14.824 -0.6868 -0.5869 -0.4051
  164DOPC  H18R19883   0.765   1.432  14.759 -1.0843 -0.8483 -0.4110
  164DOPC  H18S19884   0.741   1.324  14.901 -0.9511 -1.8023 -1.1460
  164DOPC  H18T19885   0.842   1.268  14.762 -0.5735 -0.2841 -0.7917
  164DOPC   C3319886   1.699   0.560  15.949  0.1357 -0.5560 -0.5130
  164DOPC   H3X19887   1.793   0.506  15.971 -0.7765 -1.7345  0.6543
  164DOPC   H3Y19888   1.703   0.669  15.968 -2.2439 -0.2893 -1.1923
  164DOPC   C3419889   1.675   0.539  15.796 -0.5646 -0.1012  0.1583
  164DOPC   H4X19890   1.629   0.442  15.769 -1.1507  1.0473 -3.4613
  164DOPC   H4Y19891   1.772   0.523  15.745 -0.4272 -1.9934  0.9206
  164DOPC   C3519892   1.599   0.665  15.741  0.2312 -0.2491 -0.4015
  164DOPC   H5X19893   1.628   0.756  15.797 -0.4786  0.6387 -1.4384
  164DOPC   H5Y19894   1.495   0.646  15.776  0.4841  0.7559  0.9716
  164DOPC   C3619895   1.617   0.686  15.592 -0.1517  0.0231  0.2777
  164DOPC   H6X19896   1.553   0.764  15.544 -2.8221 -2.7144 -0.9590
  164DOPC   H6Y19897   1.720   0.717  15.566  0.7293 -1.2157  2.0445
  164DOPC   C3719898   1.596   0.555  15.514 -0.4266 -0.6521  0.0532
  164DOPC   H7X19899   1.669   0.477  15.545 -1.2989 -2.0848 -1.3514
  164DOPC   H7Y19900   1.495   0.520  15.544 -0.8040 -1.8956 -2.4445
  164DOPC   C3819901   1.604   0.566  15.361 -0.7795  0.1119  0.3013
  164DOPC   H8X19902   1.698   0.613  15.326 -0.1627 -1.1539  0.1823
  164DOPC   H8Y19903   1.524   0.637  15.331  0.8139  1.5130 -0.7776
  164DOPC   C3919904   1.574   0.437  15.285 -0.5499  0.2298 -0.3848
  164DOPC   H9X19905   1.466   0.415  15.275 -0.9760  2.0138  0.0088
  164DOPC  C31019906   1.664   0.345  15.246 -0.0999  0.5975 -0.3410
  164DOPC  H10X19907   1.630   0.255  15.191  1.2094  0.2630 -0.6297
  164DOPC  C31119908   1.816   0.350  15.261  0.4345 -0.4374  0.3328
  164DOPC  H11X19909   1.853   0.307  15.357 -0.6348 -0.3090  0.8255
  164DOPC  H11Y19910   1.854   0.454  15.252  0.1479 -0.2713  0.9399
  164DOPC  C31219911   1.879   0.267  15.147 -0.0292 -0.3925  0.6105
  164DOPC  H12X19912   1.861   0.307  15.045 -2.5848 -2.5869  0.1040
  164DOPC  H12Y19913   1.845   0.162  15.149 -1.2977 -0.1457 -2.6130
  164DOPC  C31319914   2.039   0.260  15.174 -0.1685 -0.2904  0.0513
  164DOPC  H13X19915   2.082   0.359  15.146 -1.3937  0.8619  1.9713
  164DOPC  H13Y19916   2.059   0.246  15.283 -1.3830  0.0057  0.3301
  164DOPC  C31419917   2.098   0.139  15.098 -0.0238  0.4240  0.2722
  164DOPC  H14X19918   2.208   0.128  15.097 -0.2141 -2.3920 -0.2570
  164DOPC  H14Y19919   2.073   0.148  14.990  1.7441  0.4351 -0.1610
  164DOPC  C31519920   2.065  -0.005  15.145  0.0882 -0.3770 -0.3768
  164DOPC  H15X19921   1.972  -0.032  15.090  0.1293  0.3204 -0.7882
  164DOPC  H15Y19922   2.051  -0.008  15.255  1.4492  1.1381 -0.1384
  164DOPC  C31619923   2.172  -0.119  15.107 -0.4865 -0.5433 -0.5335
  164DOPC  H16X19924   2.188  -0.127  14.997  0.7413 -1.2999 -0.3189
  164DOPC  H16Y19925   2.264  -0.082  15.156 -0.9554  1.7967 -1.2950
  164DOPC  C31719926   2.138  -0.261  15.154  0.7383 -0.6025  0.0585
  164DOPC  H17X19927   2.226  -0.317  15.117  1.4133  0.9972 -0.8885
  164DOPC  H17Y19928   2.160  -0.264  15.263  2.4140  0.4227 -0.2040
  164DOPC  C31819929   2.002  -0.332  15.110  0.3802 -0.4768  0.4790
  164DOPC  H18X19930   2.006  -0.328  14.999 -0.1537 -0.4367  0.4590
  164DOPC  H18Y19931   1.997  -0.438  15.144 -1.1397  0.0751  2.1300
  164DOPC  H18Z19932   1.920  -0.266  15.144  0.2111 -0.9083  0.9064
  165DOPC     N19933   5.592   0.576  16.993  0.2743  0.1576  0.1764
  165DOPC   C1219934   5.577   0.589  16.841 -0.2222  0.3141  0.0338
  165DOPC  H12A19935   5.584   0.695  16.819  0.3137 -0.1466 -2.1906
  165DOPC  H12B19936   5.474   0.562  16.821 -0.4428  1.8385 -1.0921
  165DOPC   C1319937   5.550   0.442  17.034  0.4574  0.0838 -0.0904
  165DOPC  H13A19938   5.618   0.366  16.998 -1.4732 -2.0596  0.5744
  165DOPC  H13B19939   5.549   0.439  17.142 -0.4307 -2.6578 -0.1043
  165DOPC  H13C19940   5.447   0.421  17.008  0.7800 -0.4399 -0.9908
  165DOPC   C1419941   5.510   0.679  17.056  0.6385  0.6122 -0.5798
  165DOPC  H14A19942   5.549   0.777  17.031 -1.0005  0.9284 -2.1372
  165DOPC  H14B19943   5.406   0.673  17.026  1.1523 -1.8440 -2.2201
  165DOPC  H14C19944   5.508   0.665  17.163  0.7349  2.2324 -0.3382
  165DOPC   C1519945   5.732   0.599  17.034 -0.2222  0.0024  0.3888
  165DOPC  H15A19946   5.755   0.705  17.033 -1.3681  0.2728  1.0675
  165DOPC  H15B19947   5.804   0.553  16.968  0.3975 -1.2506  1.8864
  165DOPC  H15C19948   5.756   0.548  17.126  0.7305 -1.6677 -0.7410
  165DOPC   C1119949   5.674   0.511  16.746  0.0068  0.0132  0.1268
  165DOPC  H11A19950   5.661   0.400  16.743 -1.1664  0.0237  2.2858
  165DOPC  H11B19951   5.641   0.538  16.644  1.9177  0.5159 -0.4007
  165DOPC     P19952   5.852   0.685  16.711  0.1609  0.2484 -0.1323
  165DOPC   O1319953   6.002   0.688  16.716  0.5097  0.4430  0.4649
  165DOPC   O1419954   5.774   0.791  16.781  0.4644  0.5555 -0.0419
  165DOPC   O1219955   5.813   0.536  16.757  0.2002  0.0128  0.3407
  165DOPC   O1119956   5.809   0.693  16.556  0.5476  0.2114 -0.7227
  165DOPC    C119957   5.901   0.649  16.458  0.1716 -0.5239  0.3281
  165DOPC    HA19958   5.843   0.635  16.364 -0.3023  1.1258  0.3437
  165DOPC    HB19959   5.953   0.556  16.489  2.1166  0.1063 -0.8790
  165DOPC    C219960   6.013   0.752  16.421  0.3292  0.4061 -0.1587
  165DOPC    HS19961   6.040   0.803  16.516  0.7074 -2.6464  1.4777
  165DOPC   O2119962   5.967   0.830  16.309 -0.7447 -0.1536  0.1018
  165DOPC   C2119963   5.987   0.962  16.322 -0.3184  0.2141  0.0034
  165DOPC   O2219964   6.022   1.014  16.428 -0.4873  0.7761  0.5997
  165DOPC   C2219965   5.983   1.036  16.193 -0.6055  0.7717 -0.1875
  165DOPC   H2R19966   6.070   0.996  16.136 -1.2394  2.2323 -2.3237
  165DOPC   H2S19967   6.009   1.141  16.218 -0.7463  0.3943  1.6699
  165DOPC    C319968   6.151   0.692  16.380 -0.1114 -0.3262  0.2353
  165DOPC    HX19969   6.134   0.616  16.301 -3.4465 -1.6309  1.9857
  165DOPC    HY19970   6.183   0.641  16.474  1.1742 -0.8614 -0.4676
  165DOPC   O3119971   6.236   0.799  16.334 -0.5986 -0.0271 -0.0699
  165DOPC   C3119972   6.343   0.837  16.410 -0.2352 -0.3085 -0.4727
  165DOPC   O3219973   6.374   0.777  16.514 -0.0979 -0.1438 -0.3360
  165DOPC   C3219974   6.423   0.962  16.349  0.3170 -0.6422 -0.4068
  165DOPC   H2X19975   6.371   1.053  16.385  0.9433 -0.1139 -0.8132
  165DOPC   H2Y19976   6.522   0.960  16.400 -1.6277 -0.7753  3.7714
  165DOPC   C2319977   5.856   1.034  16.108  0.1255 -0.4077  0.3883
  165DOPC   H3R19978   5.764   1.057  16.166 -1.5134 -0.9769 -1.8383
  165DOPC   H3S19979   5.834   0.933  16.067 -1.8755  0.2164 -0.1871
  165DOPC   C2419980   5.869   1.127  15.981  0.5521  0.3032 -0.4275
  165DOPC   H4R19981   5.883   1.233  16.010  3.1944 -0.4429  1.4424
  165DOPC   H4S19982   5.772   1.121  15.928 -0.8230  0.7240  1.9084
  165DOPC   C2519983   5.988   1.087  15.884  0.7299 -0.5407 -0.6311
  165DOPC   H5R19984   5.974   0.977  15.880 -0.5778 -0.3870 -0.6543
  165DOPC   H5S19985   6.089   1.085  15.931  0.2414  0.2088  0.4652
  165DOPC   C2619986   5.985   1.153  15.752  0.0917  0.3137 -0.4803
  165DOPC   H6R19987   5.995   1.262  15.764 -3.4556  0.8261 -1.2203
  165DOPC   H6S19988   5.885   1.142  15.705  0.7283 -0.2876 -1.7780
  165DOPC   C2719989   6.085   1.095  15.654 -0.5985 -0.3865  0.2807
  165DOPC   H7R19990   6.067   0.985  15.649 -2.7334 -0.0237 -2.2080
  165DOPC   H7S19991   6.185   1.130  15.684 -1.0462  0.8484  0.3652
  165DOPC   C2819992   6.058   1.144  15.512 -0.0873  0.4056  0.3450
  165DOPC   H8R19993   6.071   1.253  15.498 -1.4040  0.4933 -0.2891
  165DOPC   H8S19994   5.954   1.127  15.478  0.0414  1.8703 -0.9249
  165DOPC   C2919995   6.151   1.084  15.415 -0.0727  0.2233  0.2369
  165DOPC   H9R19996   6.249   1.129  15.392  0.7629 -1.9902 -0.7393
  165DOPC  C21019997   6.121   0.971  15.349  0.2195 -0.5596  0.3722
  165DOPC  H10R19998   6.188   0.946  15.266 -0.7766 -0.0189 -0.6282
  165DOPC  C21119999   5.995   0.886  15.358 -0.2192 -0.6494  0.0489
  165DOPC  H11R20000   5.933   0.919  15.443 -0.4387  1.1224 -0.7603
  165DOPC  H11S20001   6.026   0.780  15.369  0.3080 -0.4846  0.2285
  165DOPC  C21220002   5.920   0.904  15.222 -0.0229 -0.4065  0.3736
  165DOPC  H12R20003   5.977   0.865  15.136  0.9858 -0.0231  0.8553
  165DOPC  H12S20004   5.909   1.014  15.212  0.3756 -0.2222  1.7166
  165DOPC  C21320005   5.774   0.848  15.220 -0.4572 -0.1191  0.2581
  165DOPC  H13R20006   5.727   0.888  15.128  0.3105 -0.8546 -0.4676
  165DOPC  H13S20007   5.716   0.890  15.305 -0.0393  2.3611 -0.6047
  165DOPC  C21420008   5.776   0.698  15.234  0.5484 -0.1332  0.4998
  165DOPC  H14R20009   5.826   0.686  15.333  2.4419  1.8216 -0.1613
  165DOPC  H14S20010   5.845   0.661  15.156 -1.7036  0.2058 -1.7973
  165DOPC  C21520011   5.641   0.623  15.226  0.5562 -0.2341 -0.4369
  165DOPC  H15R20012   5.612   0.647  15.122  1.2471  0.9423 -0.3714
  165DOPC  H15S20013   5.570   0.665  15.301  1.3077  1.2794 -0.5400
  165DOPC  C21620014   5.673   0.473  15.245 -0.0462  0.3705  0.0583
  165DOPC  H16R20015   5.726   0.468  15.343  0.7087  0.9751 -0.3084
  165DOPC  H16S20016   5.749   0.442  15.170  0.6187  0.5327  0.6496
  165DOPC  C21720017   5.559   0.374  15.243 -0.2692  0.0304 -0.4010
  165DOPC  H17R20018   5.491   0.404  15.326  0.7820  0.5005  0.3201
  165DOPC  H17S20019   5.589   0.269  15.262 -1.0032 -0.1902 -0.4284
  165DOPC  C21820020   5.473   0.377  15.113  0.7404  0.0944  0.3765
  165DOPC  H18R20021   5.392   0.301  15.119  2.1097 -1.3545  1.9602
  165DOPC  H18S20022   5.530   0.336  15.027  1.8907  0.6678  0.8409
  165DOPC  H18T20023   5.431   0.479  15.100 -1.0523 -0.6257  0.3026
  165DOPC   C3320024   6.430   0.971  16.201 -0.6718 -0.0479 -0.0038
  165DOPC   H3X20025   6.325   0.977  16.164 -1.4721 -0.0100  2.1396
  165DOPC   H3Y20026   6.473   0.878  16.157 -0.7619  0.0825 -0.3706
  165DOPC   C3420027   6.509   1.084  16.140  0.3388 -0.1025 -0.7605
  165DOPC   H4X20028   6.460   1.179  16.172 -2.9665 -2.4364  1.8942
  165DOPC   H4Y20029   6.503   1.074  16.030 -1.1586  2.9101 -1.0629
  165DOPC   C3520030   6.655   1.103  16.183 -0.0903  1.1719  0.5853
  165DOPC   H5X20031   6.719   1.030  16.130 -0.8053  1.4944 -0.7983
  165DOPC   H5Y20032   6.675   1.088  16.291  0.4074 -0.7096  0.2621
  165DOPC   C3620033   6.714   1.241  16.138 -0.1655  0.4246  0.3514
  165DOPC   H6X20034   6.711   1.250  16.027  0.3307 -0.2872  0.2738
  165DOPC   H6Y20035   6.660   1.330  16.177 -1.2857 -0.7828  1.6678
  165DOPC   C3720036   6.872   1.257  16.174 -0.2446 -0.2877  0.1607
  165DOPC   H7X20037   6.897   1.334  16.097 -0.6649  0.9675  1.2428
  165DOPC   H7Y20038   6.935   1.166  16.171 -0.1776 -0.2862  1.1792
  165DOPC   C3820039   6.896   1.316  16.321 -0.7799 -0.4227  0.4219
  165DOPC   H8X20040   7.002   1.289  16.338 -1.2936 -2.3532  0.7966
  165DOPC   H8Y20041   6.827   1.256  16.383 -1.9560  1.2188  0.7822
  165DOPC   C3920042   6.868   1.463  16.344  0.5213  0.2511  0.6192
  165DOPC   H9X20043   6.765   1.480  16.379 -1.0261 -3.0868 -1.7235
  165DOPC  C31020044   6.959   1.559  16.315  0.4930  0.1778 -0.0859
  165DOPC  H10X20045   6.928   1.663  16.330 -1.7405 -0.4313 -0.0031
  165DOPC  C31120046   7.099   1.548  16.259  0.1569 -0.4812 -0.2646
  165DOPC  H11X20047   7.106   1.447  16.213 -2.7829  0.0270 -2.0701
  165DOPC  H11Y20048   7.174   1.551  16.341 -0.9681 -0.0411  0.7614
  165DOPC  C31220049   7.139   1.654  16.160 -0.4524 -0.4872  0.0311
  165DOPC  H12X20050   7.233   1.623  16.107 -0.2605 -0.1054  0.1458
  165DOPC  H12Y20051   7.170   1.740  16.223 -0.8474 -0.6804  0.4922
  165DOPC  C31320052   7.041   1.691  16.045  0.1676  0.5528  0.2169
  165DOPC  H13X20053   7.004   1.596  16.000 -2.9860  2.3870 -1.4036
  165DOPC  H13Y20054   6.955   1.751  16.081  0.3694  2.6107 -2.4361
  165DOPC  C31420055   7.108   1.755  15.921 -0.4505 -0.3730  0.8271
  165DOPC  H14X20056   7.202   1.701  15.899  0.7658  1.8101  0.3931
  165DOPC  H14Y20057   7.044   1.757  15.830  0.4197  1.3271  0.2141
  165DOPC  C31520058   7.151   1.899  15.947 -0.3806  0.0175  0.4938
  165DOPC  H15X20059   7.218   1.916  16.035  1.5492 -0.5517 -0.7903
  165DOPC  H15Y20060   7.050   1.943  15.959 -1.0169 -1.1033 -0.5428
  165DOPC  C31620061   7.228   1.965  15.831  0.2394 -0.2048 -0.4788
  165DOPC  H16X20062   7.337   1.946  15.842  0.1273 -0.5528  0.0813
  165DOPC  H16Y20063   7.195   1.937  15.729 -0.4848  2.9178 -1.2207
  165DOPC  C31720064   7.217   2.119  15.821 -0.4065 -0.1883 -0.1143
  165DOPC  H17X20065   7.272   2.155  15.732 -1.5629 -1.6203 -1.4729
  165DOPC  H17Y20066   7.109   2.141  15.810 -0.7723 -0.3354  2.4551
  165DOPC  C31820067   7.264   2.183  15.954 -0.5162 -0.0568 -0.1264
  165DOPC  H18X20068   7.267   2.294  15.949  3.9912  0.1178  1.8301
  165DOPC  H18Y20069   7.194   2.155  16.036 -1.3911  0.3250 -0.7310
  165DOPC  H18Z20070   7.366   2.149  15.982 -0.4058 -0.8629 -1.4375
  166DOPC     N20071   0.207   2.430  16.928  0.2309  0.8281 -0.1200
  166DOPC   C1220072   0.085   2.368  16.854  0.8602  0.7655  0.8966
  166DOPC  H12A20073   0.125   2.333  16.760  2.1179  0.7096  1.4364
  166DOPC  H12B20074   0.017   2.450  16.841 -1.3985 -0.9914  1.0748
  166DOPC   C1320075   0.159   2.470  17.058 -0.1352 -0.0716  0.1556
  166DOPC  H13A20076   0.125   2.379  17.104  1.0238 -1.4418 -1.5636
  166DOPC  H13B20077   0.241   2.514  17.114  0.7255  0.6015 -1.5551
  166DOPC  H13C20078   0.078   2.541  17.051 -0.2497  0.1498  2.7809
  166DOPC   C1420079   0.259   2.541  16.845  0.2148  0.4824  0.1138
  166DOPC  H14A20080   0.179   2.612  16.835 -0.4112 -0.0090  1.3746
  166DOPC  H14B20081   0.338   2.589  16.901 -0.2832  0.7928  0.5628
  166DOPC  H14C20082   0.294   2.515  16.747 -0.7970 -0.2697 -0.0602
  166DOPC   C1520083   0.316   2.326  16.944  0.5099  0.0692  0.1042
  166DOPC  H15A20084   0.286   2.236  16.995  2.3477 -1.4327 -1.3333
  166DOPC  H15B20085   0.409   2.370  16.976  0.3106  0.5993 -0.0197
  166DOPC  H15C20086   0.335   2.285  16.846  0.7323  1.4864 -0.4765
  166DOPC   C1120087   0.014   2.247  16.912 -0.1565  0.5306 -0.2480
  166DOPC  H11A20088  -0.024   2.276  17.013  1.1515 -0.6761  0.6288
  166DOPC  H11B20089  -0.069   2.231  16.840 -0.7806  1.6921  0.1866
  166DOPC     P20090   0.052   1.992  16.877  0.0507  0.4118  0.4783
  166DOPC   O1320091  -0.075   1.945  16.939  0.0301  0.0533  0.0190
  166DOPC   O1420092   0.172   1.904  16.892 -0.5355  0.0310  0.5489
  166DOPC   O1220093   0.094   2.132  16.934 -0.2529 -0.5775  0.2096
  166DOPC   O1120094   0.036   2.024  16.721  0.1229 -0.9570 -0.2918
  166DOPC    C120095   0.137   2.082  16.637 -0.4962  0.3316  0.7595
  166DOPC    HA20096   0.235   2.078  16.690  0.8937 -0.2557 -1.6956
  166DOPC    HB20097   0.124   2.192  16.626  3.1721  1.1005  2.6995
  166DOPC    C220098   0.149   2.003  16.501  0.1687 -0.0520  0.0712
  166DOPC    HS20099   0.242   2.037  16.450 -1.1558  1.8310 -1.2303
  166DOPC   O2120100   0.043   2.049  16.411  0.3841  0.3785 -0.6044
  166DOPC   C2120101   0.050   2.162  16.345  0.7563  0.1535  0.2639
  166DOPC   O2220102   0.139   2.246  16.354  0.0290 -0.5932 -0.1115
  166DOPC   C2220103  -0.075   2.178  16.258  0.2623 -0.4363  0.1096
  166DOPC   H2R20104  -0.117   2.281  16.259  1.6850  0.2505 -2.2802
  166DOPC   H2S20105  -0.157   2.110  16.290 -0.6298  0.4122 -0.3237
  166DOPC    C320106   0.151   1.855  16.514  0.0351  0.2432 -1.0173
  166DOPC    HX20107   0.067   1.828  16.582 -0.3252  0.3727 -1.4014
  166DOPC    HY20108   0.239   1.835  16.578 -1.2101  3.1641  1.8592
  166DOPC   O3120109   0.157   1.778  16.394 -0.0375 -0.3794  0.0926
  166DOPC   C3120110   0.042   1.727  16.346 -0.0917  0.6041  0.6257
  166DOPC   O3220111  -0.073   1.743  16.389  0.2336  0.4031  0.6574
  166DOPC   C3220112   0.067   1.667  16.206  0.6531 -0.6173  0.2757
  166DOPC   H2X20113   0.094   1.755  16.144 -0.5248 -0.4388 -0.0067
  166DOPC   H2Y20114   0.152   1.596  16.211  1.6045  0.3940 -1.1259
  166DOPC   C2320115  -0.051   2.144  16.107  0.0731 -0.5862  0.8852
  166DOPC   H3R20116   0.037   2.199  16.067 -1.1090 -0.8094 -2.3262
  166DOPC   H3S20117  -0.143   2.187  16.062  0.1648 -0.6640  0.6237
  166DOPC   C2420118  -0.046   1.999  16.067 -0.4013  0.2930  0.2859
  166DOPC   H4R20119  -0.133   1.943  16.107  1.0335 -0.1343  3.0930
  166DOPC   H4S20120   0.046   1.952  16.110 -0.2449  1.2144  0.9769
  166DOPC   C2520121  -0.048   1.977  15.917  0.4106 -0.1072 -0.7328
  166DOPC   H5R20122  -0.116   2.055  15.877  0.6390  1.0186  0.9957
  166DOPC   H5S20123  -0.094   1.876  15.904  0.0141 -0.3133  1.7387
  166DOPC   C2620124   0.085   1.994  15.842 -0.1654  0.2621 -0.1127
  166DOPC   H6R20125   0.153   1.906  15.849  0.7397  0.7299 -2.1768
  166DOPC   H6S20126   0.142   2.077  15.888 -0.5395 -0.4971  1.7944
  166DOPC   C2720127   0.058   2.021  15.688  0.2083 -0.0517 -0.5389
  166DOPC   H7R20128   0.159   2.009  15.642  1.1964 -1.2902  1.8196
  166DOPC   H7S20129   0.031   2.127  15.668  0.5184 -0.1519 -1.5667
  166DOPC   C2820130  -0.038   1.922  15.625  0.0222  0.3304 -1.0451
  166DOPC   H8R20131  -0.137   1.944  15.670  0.6853  1.3974 -0.0679
  166DOPC   H8S20132  -0.005   1.819  15.653 -0.2497  0.5563  0.1590
  166DOPC   C2920133  -0.055   1.926  15.471 -0.1729  0.2420  0.0296
  166DOPC   H9R20134   0.041   1.935  15.416  0.1504 -0.9550  0.3479
  166DOPC  C21020135  -0.165   1.894  15.402  0.0588 -0.3577 -0.2547
  166DOPC  H10R20136  -0.161   1.901  15.292 -1.0787 -0.5763 -0.3195
  166DOPC  C21120137  -0.295   1.850  15.456 -0.1610  0.1935  0.2057
  166DOPC  H11R20138  -0.319   1.900  15.552  1.2163  2.3493 -0.5015
  166DOPC  H11S20139  -0.290   1.742  15.480 -2.1489 -0.1787 -0.7833
  166DOPC  C21220140  -0.425   1.872  15.370 -0.0714 -0.0748  0.4944
  166DOPC  H12R20141  -0.517   1.842  15.424 -0.8934 -0.4346 -1.0729
  166DOPC  H12S20142  -0.421   1.816  15.275  0.6518  2.4454 -1.0744
  166DOPC  C21320143  -0.449   2.016  15.326 -0.2765  0.8450  0.2332
  166DOPC  H13R20144  -0.358   2.065  15.287  1.0448 -2.1182 -0.6852
  166DOPC  H13S20145  -0.478   2.076  15.415 -2.0111  1.3160 -0.6031
  166DOPC  C21420146  -0.559   2.028  15.223  0.6556  0.3775  0.0959
  166DOPC  H14R20147  -0.586   2.136  15.217  0.3302  0.2741 -0.3973
  166DOPC  H14S20148  -0.650   1.972  15.251  0.1534  0.6309 -0.9604
  166DOPC  C21520149  -0.534   1.974  15.081  0.1932 -0.1762 -0.3416
  166DOPC  H15R20150  -0.550   1.865  15.092 -2.8739  0.2711  0.5294
  166DOPC  H15S20151  -0.428   1.986  15.049  0.9591  3.8023  2.8159
  166DOPC  C21620152  -0.634   2.014  14.970 -0.3235 -0.2055  0.0988
  166DOPC  H16R20153  -0.568   2.007  14.881  2.6229  1.2780  2.0347
  166DOPC  H16S20154  -0.664   2.120  14.985 -0.3163 -0.2968  0.7783
  166DOPC  C21720155  -0.768   1.937  14.954 -0.0976 -0.4473 -0.2282
  166DOPC  H17R20156  -0.748   1.830  14.933 -2.3472 -1.1974  1.1376
  166DOPC  H17S20157  -0.812   1.973  14.859 -2.0733  0.6916  1.0299
  166DOPC  C21820158  -0.869   1.923  15.070 -0.9644 -0.5691 -0.0480
  166DOPC  H18R20159  -0.823   1.871  15.157 -0.1148  0.2447  0.0056
  166DOPC  H18S20160  -0.968   1.883  15.040 -1.3088 -0.1009  0.4535
  166DOPC  H18T20161  -0.887   2.028  15.103 -1.2919 -0.9200  0.9349
  166DOPC   C3320162  -0.055   1.580  16.160  0.7100 -0.2171 -0.0844
  166DOPC   H3X20163  -0.154   1.625  16.184 -0.1248 -2.2537  0.5289
  166DOPC   H3Y20164  -0.044   1.481  16.209 -0.1520  0.3219  1.2516
  166DOPC   C3420165  -0.048   1.570  16.007  0.3678  0.4441 -0.0450
  166DOPC   H4X20166   0.047   1.522  15.975 -1.1071 -1.7554 -1.3693
  166DOPC   H4Y20167  -0.052   1.668  15.955 -1.3753  0.1118 -0.6013
  166DOPC   C3520168  -0.155   1.468  15.955  0.0226 -0.1926  0.5455
  166DOPC   H5X20169  -0.260   1.502  15.951 -0.0836 -0.5922 -0.6384
  166DOPC   H5Y20170  -0.148   1.377  16.019 -0.3159  1.3637  2.9067
  166DOPC   C3620171  -0.145   1.430  15.805 -0.3621  0.1476 -0.0286
  166DOPC   H6X20172  -0.192   1.515  15.752 -1.0692  0.7723  1.5688
  166DOPC   H6Y20173  -0.042   1.400  15.773 -0.7246 -2.6508  1.1019
  166DOPC   C3720174  -0.234   1.309  15.778 -0.3974  0.8796 -0.4233
  166DOPC   H7X20175  -0.186   1.226  15.833 -1.5623  0.7415  0.4096
  166DOPC   H7Y20176  -0.329   1.333  15.828 -1.4859 -3.1665 -0.1744
  166DOPC   C3820177  -0.258   1.279  15.632  0.6835  0.0847  0.7659
  166DOPC   H8X20178  -0.308   1.180  15.634 -2.4196  1.5550  1.2574
  166DOPC   H8Y20179  -0.171   1.260  15.566 -0.0495  1.1645 -0.5726
  166DOPC   C3920180  -0.347   1.382  15.576  0.3414  0.1147  0.1024
  166DOPC   H9X20181  -0.449   1.396  15.613  0.4108  2.6176 -0.4671
  166DOPC  C31020182  -0.304   1.469  15.483 -0.8298 -0.5764  0.0012
  166DOPC  H10X20183  -0.371   1.541  15.433 -1.6759  0.1034  2.0243
  166DOPC  C31120184  -0.173   1.475  15.412  0.4213  0.3801  0.2112
  166DOPC  H11X20185  -0.101   1.489  15.495  1.0317  0.2438 -0.2855
  166DOPC  H11Y20186  -0.164   1.568  15.351 -0.6748  1.7407  2.0352
  166DOPC  C31220187  -0.122   1.347  15.340 -0.1520  0.1931 -0.2205
  166DOPC  H12X20188  -0.124   1.244  15.383 -0.2663  0.6700  0.9726
  166DOPC  H12Y20189  -0.013   1.367  15.332 -0.0070 -1.1165 -1.9690
  166DOPC  C31320190  -0.172   1.340  15.198  0.3694 -0.0839  0.2894
  166DOPC  H13X20191  -0.263   1.276  15.189 -0.3046  0.8907 -0.1014
  166DOPC  H13Y20192  -0.196   1.440  15.155 -2.0418 -1.8486 -2.9665
  166DOPC  C31420193  -0.072   1.275  15.105 -0.6335 -0.1612  0.3843
  166DOPC  H14X20194   0.019   1.338  15.117 -2.0348  2.3498 -1.1636
  166DOPC  H14Y20195  -0.055   1.171  15.141 -2.5934 -0.8699 -0.6031
  166DOPC  C31520196  -0.115   1.273  14.959 -0.1592 -0.2583 -0.1388
  166DOPC  H15X20197  -0.030   1.298  14.892  1.8501  0.7661  2.5592
  166DOPC  H15Y20198  -0.208   1.333  14.949  0.6971  0.9865 -0.9724
  166DOPC  C31620199  -0.133   1.136  14.898  1.1635  0.0014 -0.1013
  166DOPC  H16X20200  -0.049   1.069  14.924  1.5527  1.4929  2.8425
  166DOPC  H16Y20201  -0.233   1.098  14.929  0.4260  3.6351  2.5527
  166DOPC  C31720202  -0.145   1.132  14.746  0.3019 -0.3482 -0.6064
  166DOPC  H17X20203  -0.049   1.158  14.696  0.1150 -1.5129 -1.6235
  166DOPC  H17Y20204  -0.158   1.026  14.716  0.3139 -0.8440  1.0422
  166DOPC  C31820205  -0.241   1.231  14.680  1.1440 -0.1343 -0.3770
  166DOPC  H18X20206  -0.245   1.209  14.571 -1.8927 -1.7325 -0.0675
  166DOPC  H18Y20207  -0.341   1.230  14.728  0.2595  3.6264 -1.8182
  166DOPC  H18Z20208  -0.192   1.330  14.691  0.9369 -0.1609  0.9443
  167DOPC     N20209   7.330   1.042  17.261 -0.9808 -0.0666  0.3156
  167DOPC   C1220210   7.232   1.091  17.157 -0.0692 -0.3654 -0.1382
  167DOPC  H12A20211   7.191   1.181  17.201  0.3458 -0.0399 -0.4165
  167DOPC  H12B20212   7.145   1.028  17.144  0.6945 -1.7999  1.2491
  167DOPC   C1320213   7.266   1.030  17.397 -0.3319  0.1095 -0.9869
  167DOPC  H13A20214   7.188   0.956  17.390  0.6355 -1.0941  0.2273
  167DOPC  H13B20215   7.337   0.986  17.466 -2.5386 -1.0302  0.7026
  167DOPC  H13C20216   7.229   1.128  17.421 -0.5645  0.1149 -1.3633
  167DOPC   C1420217   7.440   1.136  17.274  0.5053  0.2591 -0.9040
  167DOPC  H14A20218   7.517   1.111  17.346 -0.1067  3.8174  1.2082
  167DOPC  H14B20219   7.477   1.141  17.173 -0.8550  0.3577 -1.4211
  167DOPC  H14C20220   7.402   1.228  17.315  0.0112  0.0732 -0.9433
  167DOPC   C1520221   7.384   0.903  17.219 -0.6149 -0.2866  0.0027
  167DOPC  H15A20222   7.448   0.872  17.301 -0.9312  1.4954  0.9826
  167DOPC  H15B20223   7.431   0.914  17.123 -0.1444 -0.4365  0.2147
  167DOPC  H15C20224   7.306   0.827  17.221  0.6634 -1.6393  0.9667
  167DOPC   C1120225   7.280   1.128  17.021 -0.3534 -0.2358  0.3981
  167DOPC  H11A20226   7.335   1.044  16.974 -1.2291 -0.5522 -0.0733
  167DOPC  H11B20227   7.193   1.139  16.953  0.8076  2.2817 -0.8475
  167DOPC     P20228   7.287   1.385  17.016  0.0120 -0.3467  0.0017
  167DOPC   O1320229   7.380   1.493  16.993  0.3028  0.7339 -0.4018
  167DOPC   O1420230   7.211   1.407  17.135  0.2691  0.3306  0.9598
  167DOPC   O1220231   7.364   1.247  17.021  0.4155  0.2168 -0.2478
  167DOPC   O1120232   7.193   1.367  16.894  0.0721  0.3630 -0.4909
  167DOPC    C120233   7.248   1.372  16.764  0.3750 -0.7163  0.1408
  167DOPC    HA20234   7.355   1.401  16.750  0.1077  0.1339 -0.1775
  167DOPC    HB20235   7.197   1.448  16.702 -1.9702 -2.4851 -0.2567
  167DOPC    C220236   7.210   1.249  16.680  0.2457  0.9419  0.2091
  167DOPC    HS20237   7.265   1.158  16.713  0.7968  0.6315 -1.4441
  167DOPC   O2120238   7.245   1.281  16.544  0.1575 -0.0611  0.5146
  167DOPC   C2120239   7.362   1.240  16.504 -0.1450 -0.1510 -0.3758
  167DOPC   O2220240   7.442   1.168  16.558  0.1044 -0.1348  0.4723
  167DOPC   C2220241   7.387   1.305  16.372 -0.8207 -0.6110 -0.2169
  167DOPC   H2R20242   7.474   1.373  16.388  0.1349 -1.3930 -1.8985
  167DOPC   H2S20243   7.310   1.382  16.351 -1.0371 -0.6776  0.2917
  167DOPC    C320244   7.061   1.205  16.688  0.5493  0.4477  0.3072
  167DOPC    HX20245   7.011   1.299  16.653  1.0502  0.6089  0.0178
  167DOPC    HY20246   7.047   1.185  16.797  1.9857 -0.0305  0.4180
  167DOPC   O3120247   7.042   1.095  16.603 -0.2933  0.1249  0.1071
  167DOPC   C3120248   6.960   1.005  16.654 -0.2801 -0.0322  0.1982
  167DOPC   O3220249   6.899   1.014  16.758  0.0922 -0.4219 -0.0098
  167DOPC   C3220250   6.938   0.890  16.551 -0.4498  0.1507 -0.3506
  167DOPC   H2X20251   6.957   0.929  16.449  0.5587 -0.1804 -0.2959
  167DOPC   H2Y20252   7.014   0.811  16.567 -0.9195 -0.7413 -2.2510
  167DOPC   C2320253   7.406   1.210  16.253 -0.0574 -0.4033  0.1193
  167DOPC   H3R20254   7.488   1.139  16.280  0.3317  0.3292  0.9159
  167DOPC   H3S20255   7.462   1.265  16.175  3.1739 -2.1762  0.9907
  167DOPC   C2420256   7.278   1.159  16.205 -0.2061 -0.2002  0.0914
  167DOPC   H4R20257   7.208   1.238  16.169 -0.9862 -0.7942  0.2690
  167DOPC   H4S20258   7.230   1.086  16.274 -0.4807 -0.8625 -0.7660
  167DOPC   C2520259   7.299   1.078  16.074  0.0388  0.1454 -0.2266
  167DOPC   H5R20260   7.361   0.987  16.094 -0.0499  0.1828  0.2379
  167DOPC   H5S20261   7.356   1.142  16.004  0.3981  2.5323  2.0824
  167DOPC   C2620262   7.172   1.026  16.005 -0.4489  0.0836  0.3353
  167DOPC   H6R20263   7.101   1.111  15.993  0.1872  0.5736 -0.0211
  167DOPC   H6S20264   7.120   0.949  16.065 -0.1896 -0.6802 -0.4040
  167DOPC   C2720265   7.197   0.959  15.862 -0.1908 -0.8583 -0.1663
  167DOPC   H7R20266   7.237   0.857  15.882  1.0944  0.0142  2.1493
  167DOPC   H7S20267   7.271   1.017  15.803 -0.9258 -0.4741 -0.7309
  167DOPC   C2820268   7.069   0.975  15.786 -0.2882  0.0850  0.4981
  167DOPC   H8R20269   7.088   0.950  15.679  0.5902  0.6476  0.5132
  167DOPC   H8S20270   7.049   1.084  15.787  0.4387  0.2913 -1.5895
  167DOPC   C2920271   6.964   0.891  15.841 -0.6770  0.4021 -0.0719
  167DOPC   H9R20272   7.002   0.823  15.919  0.9051  0.4181 -0.8023
  167DOPC  C21020273   6.834   0.902  15.827 -0.0860  0.1282 -0.0224
  167DOPC  H10R20274   6.772   0.827  15.878 -0.9125  2.4393  2.5551
  167DOPC  C21120275   6.775   1.007  15.744  0.6242 -0.3323  0.2474
  167DOPC  H11R20276   6.847   1.089  15.724  0.0350  0.3041  0.6628
  167DOPC  H11S20277   6.689   1.057  15.794  0.8942 -0.3028  0.6890
  167DOPC  C21220278   6.704   0.968  15.618  0.6186 -0.2843 -0.0291
  167DOPC  H12R20279   6.650   1.053  15.571 -1.1311 -2.1591 -1.6110
  167DOPC  H12S20280   6.767   0.917  15.542  0.8810  0.3490 -0.2393
  167DOPC  C21320281   6.579   0.867  15.632  0.2374 -0.2101  0.4196
  167DOPC  H13R20282   6.508   0.910  15.706  1.9917  2.6321  0.5987
  167DOPC  H13S20283   6.613   0.772  15.679  2.6006  0.9830  1.2629
  167DOPC  C21420284   6.518   0.829  15.500 -0.2164  0.2708 -0.2223
  167DOPC  H14R20285   6.606   0.800  15.439  0.6578  0.5133  0.9012
  167DOPC  H14S20286   6.466   0.916  15.455 -1.6156 -0.0852  0.6390
  167DOPC  C21520287   6.426   0.707  15.500 -0.0912 -0.2174 -0.7036
  167DOPC  H15R20288   6.336   0.726  15.562 -1.4586 -0.9386 -2.3708
  167DOPC  H15S20289   6.476   0.624  15.554  0.1244 -0.9385 -1.9706
  167DOPC  C21620290   6.369   0.661  15.356 -0.3713  0.0533 -0.1809
  167DOPC  H16R20291   6.413   0.727  15.278  0.1223 -0.6781 -0.5321
  167DOPC  H16S20292   6.259   0.668  15.359 -0.3464  0.1325  0.7656
  167DOPC  C21720293   6.391   0.514  15.331  0.1111 -0.3732 -0.5467
  167DOPC  H17R20294   6.348   0.462  15.420 -0.3462  1.2411  0.2005
  167DOPC  H17S20295   6.498   0.485  15.325  0.3572  0.8297 -5.4546
  167DOPC  C21820296   6.316   0.473  15.206 -0.7430 -0.2981  0.2624
  167DOPC  H18R20297   6.353   0.542  15.127 -0.5153 -0.5197  0.1742
  167DOPC  H18S20298   6.205   0.475  15.215 -0.8007  4.3962  0.6986
  167DOPC  H18T20299   6.348   0.370  15.179 -0.6288 -0.1606 -0.1416
  167DOPC   C3320300   6.793   0.835  16.555  0.7630 -0.6659  0.1270
  167DOPC   H3X20301   6.720   0.903  16.506  0.8961 -1.3116 -1.0029
  167DOPC   H3Y20302   6.765   0.836  16.662 -0.1723  2.1091 -0.0742
  167DOPC   C3420303   6.792   0.689  16.507 -0.0337  0.2758  0.1883
  167DOPC   H4X20304   6.698   0.641  16.541 -1.7114  2.2124 -1.3971
  167DOPC   H4Y20305   6.880   0.636  16.548 -0.4731 -1.0549 -0.5207
  167DOPC   C3520306   6.798   0.669  16.358 -0.4334 -0.0642  0.4692
  167DOPC   H5X20307   6.900   0.699  16.326 -0.0457  0.8455  2.3858
  167DOPC   H5Y20308   6.722   0.734  16.310  0.5012  0.6015 -0.1665
  167DOPC   C3620309   6.758   0.525  16.312  0.0894  0.1093 -0.0472
  167DOPC   H6X20310   6.841   0.462  16.350 -0.9097  0.9756  4.0413
  167DOPC   H6Y20311   6.668   0.492  16.368 -0.6757  0.6313 -0.9332
  167DOPC   C3720312   6.751   0.503  16.158 -0.5648  0.9266 -0.9347
  167DOPC   H7X20313   6.854   0.509  16.117  0.3394 -1.6982  0.6943
  167DOPC   H7Y20314   6.732   0.394  16.145  0.9415  0.3147  1.3365
  167DOPC   C3820315   6.651   0.590  16.081 -0.6891  0.3929 -0.3189
  167DOPC   H8X20316   6.673   0.698  16.097 -2.7377  0.8144 -0.0735
  167DOPC   H8Y20317   6.547   0.569  16.116  0.6349 -1.6767  2.7391
  167DOPC   C3920318   6.651   0.556  15.936  0.2381 -0.3214 -0.0781
  167DOPC   H9X20319   6.752   0.572  15.895 -0.1991  0.0699 -1.0284
  167DOPC  C31020320   6.552   0.538  15.849 -0.2730 -0.0377 -0.8870
  167DOPC  H10X20321   6.576   0.507  15.746 -3.4485 -1.2446 -1.3887
  167DOPC  C31120322   6.405   0.548  15.878 -1.0372  0.6999 -0.2050
  167DOPC  H11X20323   6.363   0.636  15.826  0.6319  1.9855  0.5279
  167DOPC  H11Y20324   6.377   0.556  15.985  1.2419  0.7218  0.4497
  167DOPC  C31220325   6.329   0.419  15.830 -0.4098 -0.6589  0.1442
  167DOPC  H12X20326   6.221   0.419  15.854 -0.2946 -0.6254  0.6879
  167DOPC  H12Y20327   6.369   0.336  15.892  1.4263  0.4838  0.5827
  167DOPC  C31320328   6.351   0.368  15.692  0.1689 -0.0048  0.2030
  167DOPC  H13X20329   6.293   0.439  15.629  0.8630  1.8712  1.5749
  167DOPC  H13Y20330   6.456   0.373  15.654 -0.4952  1.7079 -1.5928
  167DOPC  C31420331   6.306   0.231  15.678  0.3314 -0.4105  0.4095
  167DOPC  H14X20332   6.380   0.149  15.694  0.8772 -0.5647 -2.3779
  167DOPC  H14Y20333   6.224   0.232  15.753 -1.3002  1.0095 -1.3044
  167DOPC  C31520334   6.241   0.185  15.543 -0.6640  0.0059  0.3981
  167DOPC  H15X20335   6.227   0.075  15.550  2.7247 -0.7541 -1.8725
  167DOPC  H15Y20336   6.317   0.193  15.462  0.7756 -1.4784  1.5419
  167DOPC  C31620337   6.109   0.246  15.505 -0.2576 -0.3623  0.2012
  167DOPC  H16X20338   6.037   0.207  15.581  2.9023 -1.2914  2.9801
  167DOPC  H16Y20339   6.117   0.356  15.495  2.4646 -0.3433  1.6480
  167DOPC  C31720340   6.059   0.187  15.373 -0.9056 -0.0011 -1.0329
  167DOPC  H17X20341   6.093   0.255  15.292 -1.2594  0.7737 -0.5449
  167DOPC  H17Y20342   6.085   0.080  15.360  1.7128  0.7482 -2.6533
  167DOPC  C31820343   5.909   0.204  15.353  0.0130 -0.0485  0.0211
  167DOPC  H18X20344   5.893   0.314  15.348  0.9483  0.0287 -2.5819
  167DOPC  H18Y20345   5.869   0.162  15.259 -1.8537  1.8431 -0.1210
  167DOPC  H18Z20346   5.856   0.148  15.433  0.1454 -2.4252 -1.4851
  168DOPC     N20347   2.491   7.579  16.992 -0.1577  0.4584 -0.2688
  168DOPC   C1220348   2.510   7.701  17.083 -0.5282  0.2379  0.2464
  168DOPC  H12A20349   2.615   7.724  17.085 -1.1070  3.2065  2.2185
  168DOPC  H12B20350   2.492   7.667  17.184 -1.3697  1.5304  0.5529
  168DOPC   C1320351   2.525   7.588  16.848 -0.1786  0.1486  0.3981
  168DOPC  H13A20352   2.453   7.657  16.805  1.2683  0.9475 -0.8105
  168DOPC  H13B20353   2.628   7.615  16.833 -0.2456 -0.7246 -2.0527
  168DOPC  H13C20354   2.512   7.491  16.804  1.5269 -0.1298  0.4615
  168DOPC   C1420355   2.347   7.548  16.993 -0.1477  0.4095  0.1966
  168DOPC  H14A20356   2.300   7.539  17.089 -0.0638  0.7993  0.2748
  168DOPC  H14B20357   2.294   7.619  16.931 -2.1550  1.5890  3.0582
  168DOPC  H14C20358   2.323   7.451  16.952 -1.7597  0.3659  1.1856
  168DOPC   C1520359   2.568   7.464  17.045  0.3693  0.1561  0.1134
  168DOPC  H15A20360   2.538   7.370  17.003 -1.7798 -0.5803  2.9361
  168DOPC  H15B20361   2.551   7.463  17.152 -0.4784  1.2626  0.0079
  168DOPC  H15C20362   2.674   7.477  17.029  0.1264  0.6259 -1.2292
  168DOPC   C1120363   2.431   7.830  17.042  0.1335 -0.2686  0.2591
  168DOPC  H11A20364   2.323   7.803  17.046 -0.0742  0.6655  2.8733
  168DOPC  H11B20365   2.443   7.915  17.112 -1.2692 -0.1164  0.3546
  168DOPC     P20366   2.593   7.958  16.888  0.4078 -0.4453  0.3299
  168DOPC   O1320367   2.713   7.898  16.954  0.0775 -0.1691  0.2829
  168DOPC   O1420368   2.567   8.101  16.926 -0.0253  0.5136 -0.0711
  168DOPC   O1220369   2.460   7.873  16.910 -0.5133  0.1844 -0.0313
  168DOPC   O1120370   2.612   7.955  16.728  0.0461  0.2658 -0.0570
  168DOPC    C120371   2.517   8.018  16.647  0.4028  0.3229  0.3943
  168DOPC    HA20372   2.570   8.063  16.561  1.8949 -0.9990  0.5773
  168DOPC    HB20373   2.458   8.100  16.694  0.5214  0.6861 -0.0825
  168DOPC    C220374   2.415   7.918  16.583  0.0919  0.0238 -0.0973
  168DOPC    HS20375   2.379   7.849  16.662 -0.5136  1.7372  1.2086
  168DOPC   O2120376   2.487   7.832  16.489 -0.0841 -0.4270 -0.2725
  168DOPC   C2120377   2.420   7.734  16.435 -0.3790 -0.3480 -0.3039
  168DOPC   O2220378   2.308   7.703  16.466  0.3617 -0.2673 -0.1992
  168DOPC   C2220379   2.499   7.664  16.326 -0.3099  1.3090  0.1144
  168DOPC   H2R20380   2.442   7.579  16.283  0.8661 -1.4105  3.4359
  168DOPC   H2S20381   2.596   7.632  16.371 -0.9008 -2.4863 -0.9627
  168DOPC    C320382   2.294   7.991  16.514  0.1923  0.1152 -0.3896
  168DOPC    HX20383   2.238   8.048  16.591  1.2988  0.3576  0.2614
  168DOPC    HY20384   2.220   7.923  16.467  0.2662 -0.3494  0.1615
  168DOPC   O3120385   2.344   8.081  16.415 -0.4880  0.1558  0.6324
  168DOPC   C3120386   2.339   8.216  16.436 -0.1622 -0.5753 -0.1914
  168DOPC   O3220387   2.296   8.265  16.538  0.1195 -0.5990  0.1628
  168DOPC   C3220388   2.401   8.288  16.320 -0.3100 -0.2606  0.0259
  168DOPC   H2X20389   2.511   8.296  16.329 -0.3147 -0.0152 -0.1045
  168DOPC   H2Y20390   2.375   8.226  16.232  1.2365  0.0501 -0.6869
  168DOPC   C2320391   2.538   7.761  16.209  0.7126  0.3119 -0.7509
  168DOPC   H3R20392   2.610   7.711  16.141  1.1092  1.8020 -1.4719
  168DOPC   H3S20393   2.592   7.850  16.250  0.1990  0.2502  0.0966
  168DOPC   C2420394   2.417   7.798  16.125  0.1732  0.4255 -0.0474
  168DOPC   H4R20395   2.337   7.844  16.187  0.9313  1.7344  0.0010
  168DOPC   H4S20396   2.371   7.706  16.085  1.9763 -1.9480  2.8935
  168DOPC   C2520397   2.459   7.883  16.001  0.1745 -1.1041  0.1057
  168DOPC   H5R20398   2.531   7.824  15.940  2.3113  1.0141  0.4277
  168DOPC   H5S20399   2.524   7.970  16.024  0.4007 -0.6633 -2.0343
  168DOPC   C2620400   2.337   7.927  15.912  0.4971  0.3811  0.7515
  168DOPC   H6R20401   2.262   7.845  15.916 -1.4362  2.0615  0.4518
  168DOPC   H6S20402   2.360   7.945  15.805 -3.0602  1.9532  0.1021
  168DOPC   C2720403   2.277   8.061  15.964  0.9960 -0.0103  0.5966
  168DOPC   H7R20404   2.354   8.140  15.952  0.7004 -0.0138 -1.8138
  168DOPC   H7S20405   2.248   8.046  16.071  0.8629  0.6428  0.6571
  168DOPC   C2820406   2.160   8.107  15.879 -0.5803  0.1443  0.4274
  168DOPC   H8R20407   2.090   8.022  15.864 -1.9157  0.5154  3.7244
  168DOPC   H8S20408   2.211   8.118  15.781 -1.5990 -1.0753 -0.2709
  168DOPC   C2920409   2.102   8.238  15.925 -0.1782 -0.2922  0.1757
  168DOPC   H9R20410   2.070   8.235  16.030 -0.3971  0.3714  0.1298
  168DOPC  C21020411   2.082   8.350  15.851 -0.5539 -0.4299 -0.7501
  168DOPC  H10R20412   2.021   8.427  15.902 -1.6544 -2.4735  1.2059
  168DOPC  C21120413   2.116   8.377  15.710  0.4616  0.1628 -0.5536
  168DOPC  H11R20414   2.163   8.297  15.649  0.8642  0.0744 -0.1365
  168DOPC  H11S20415   2.186   8.463  15.702 -1.0210  1.5098  0.2778
  168DOPC  C21220416   1.993   8.408  15.620  0.8811 -0.2007 -0.9722
  168DOPC  H12R20417   1.922   8.476  15.671  2.6536  0.0991  1.2253
  168DOPC  H12S20418   1.927   8.318  15.611 -0.0470 -0.0160  2.4939
  168DOPC  C21320419   2.026   8.460  15.478  0.2012 -0.3476 -0.8392
  168DOPC  H13R20420   2.084   8.381  15.426  0.9681 -0.1868 -0.2515
  168DOPC  H13S20421   2.095   8.545  15.497  1.6966 -1.7067  0.0612
  168DOPC  C21420422   1.912   8.498  15.390 -0.4074 -0.8448 -0.6449
  168DOPC  H14R20423   1.847   8.572  15.442  1.2696 -0.3140  0.7949
  168DOPC  H14S20424   1.860   8.403  15.369 -1.4208 -1.2396  2.9794
  168DOPC  C21520425   1.956   8.574  15.261  0.5123 -0.5858 -0.5486
  168DOPC  H15R20426   1.879   8.559  15.182  0.5691 -0.2916 -0.6627
  168DOPC  H15S20427   2.043   8.520  15.218  1.1503 -0.9403  1.1162
  168DOPC  C21620428   1.988   8.726  15.269  0.8287  0.1530  0.4334
  168DOPC  H16R20429   2.063   8.743  15.349  0.6311  0.4446  0.5587
  168DOPC  H16S20430   1.891   8.774  15.293  0.2907 -0.1835 -0.9878
  168DOPC  C21720431   2.054   8.774  15.142  1.3662  0.8100 -0.2766
  168DOPC  H17R20432   2.156   8.730  15.143  1.9038  1.6866 -3.6631
  168DOPC  H17S20433   2.076   8.882  15.142  1.7982  0.7279 -0.6537
  168DOPC  C21820434   1.992   8.730  15.009 -0.2647  0.1199 -0.0909
  168DOPC  H18R20435   1.992   8.620  14.991  1.7523  0.3400 -1.8971
  168DOPC  H18S20436   2.048   8.758  14.917  2.1116 -2.9158  0.2428
  168DOPC  H18T20437   1.887   8.764  15.003 -1.0962 -2.2380 -0.1563
  168DOPC   C3320438   2.362   8.438  16.308  0.9406 -0.0603 -0.1965
  168DOPC   H3X20439   2.392   8.480  16.406 -0.6628  1.3411 -0.2486
  168DOPC   H3Y20440   2.251   8.443  16.300  0.8768 -2.5498 -2.0000
  168DOPC   C3420441   2.407   8.520  16.189  0.6794 -0.1844 -0.5225
  168DOPC   H4X20442   2.516   8.527  16.206  0.6766  1.1269 -0.9645
  168DOPC   H4Y20443   2.372   8.624  16.207  0.0178 -0.8756  2.9760
  168DOPC   C3520444   2.360   8.452  16.059 -0.2704  0.8131  0.0301
  168DOPC   H5X20445   2.250   8.466  16.060 -0.7115 -1.9975  1.6333
  168DOPC   H5Y20446   2.382   8.343  16.067  0.4683  0.7887 -1.7785
  168DOPC   C3620447   2.428   8.498  15.931 -0.0919 -0.1442  0.0265
  168DOPC   H6X20448   2.532   8.460  15.927 -0.5345 -1.5698  1.1298
  168DOPC   H6Y20449   2.370   8.449  15.850  0.3407  0.4589 -0.6600
  168DOPC   C3720450   2.417   8.651  15.931  0.2461  0.4180  0.3498
  168DOPC   H7X20451   2.311   8.672  15.956  0.3383 -0.1446  1.3021
  168DOPC   H7Y20452   2.471   8.704  16.013 -0.5239  0.4531  0.8446
  168DOPC   C3820453   2.452   8.707  15.790  0.1706  0.4436  0.0977
  168DOPC   H8X20454   2.418   8.813  15.780 -1.2114  0.0323  0.2616
  168DOPC   H8Y20455   2.404   8.652  15.707  0.8485  2.5539 -1.8147
  168DOPC   C3920456   2.602   8.686  15.777 -0.3746 -0.0814 -0.6293
  168DOPC   H9X20457   2.665   8.741  15.849  1.9686 -1.2549 -1.6598
  168DOPC  C31020458   2.660   8.600  15.690 -0.0560  0.2435  0.7735
  168DOPC  H10X20459   2.769   8.587  15.695 -0.0855  0.4692  3.3711
  168DOPC  C31120460   2.608   8.513  15.581  0.1972 -0.3723 -0.3937
  168DOPC  H11X20461   2.498   8.528  15.567  0.3689  1.9484  0.4076
  168DOPC  H11Y20462   2.617   8.405  15.607  1.3873  0.0745  1.1657
  168DOPC  C31220463   2.676   8.542  15.447 -0.9307  0.2314  1.0409
  168DOPC  H12X20464   2.776   8.494  15.453 -0.8055  0.4503  0.7389
  168DOPC  H12Y20465   2.699   8.649  15.428  3.4662 -0.7815 -0.6437
  168DOPC  C31320466   2.610   8.480  15.321  0.2243 -0.3765 -0.1695
  168DOPC  H13X20467   2.594   8.373  15.344 -0.3399 -0.0545  1.0656
  168DOPC  H13Y20468   2.510   8.525  15.306 -0.0371 -0.6675  0.6349
  168DOPC  C31420469   2.694   8.513  15.191  0.0787 -0.2455  0.2802
  168DOPC  H14X20470   2.702   8.622  15.173 -0.2885 -0.1465  0.6973
  168DOPC  H14Y20471   2.792   8.461  15.200 -1.8074 -4.2329  0.1839
  168DOPC  C31520472   2.644   8.438  15.074 -0.5191 -0.1829  0.6320
  168DOPC  H15X20473   2.535   8.458  15.063 -0.3133  0.2311 -0.8045
  168DOPC  H15Y20474   2.665   8.330  15.088  1.5177  0.2685  1.3977
  168DOPC  C31620475   2.720   8.486  14.947  0.0604  0.4813 -0.0860
  168DOPC  H16X20476   2.700   8.595  14.941  0.6706  0.6300  0.4857
  168DOPC  H16Y20477   2.829   8.480  14.968 -0.2371 -0.0916  1.4556
  168DOPC  C31720478   2.682   8.420  14.815 -0.4368  0.4280  0.0955
  168DOPC  H17X20479   2.706   8.312  14.804  0.4399  0.5737  0.4778
  168DOPC  H17Y20480   2.571   8.421  14.812 -0.6647 -0.4444  3.6413
  168DOPC  C31820481   2.747   8.484  14.690 -0.6430 -0.4113  0.5988
  168DOPC  H18X20482   2.770   8.405  14.615  1.1364 -0.5402  1.2149
  168DOPC  H18Y20483   2.692   8.565  14.639  2.3102  1.3684  0.0162
  168DOPC  H18Z20484   2.846   8.523  14.724 -1.5685  0.3018  2.6824
  169DOPC     N20485   0.988   1.352  17.176 -0.6590  0.2970  0.6499
  169DOPC   C1220486   0.866   1.315  17.088 -0.2892 -0.0837 -0.3723
  169DOPC  H12A20487   0.876   1.364  16.992  0.2262  0.1960 -0.1822
  169DOPC  H12B20488   0.779   1.349  17.141 -1.7333 -0.9758 -2.0780
  169DOPC   C1320489   1.123   1.320  17.121 -1.2632 -0.5390  0.0734
  169DOPC  H13A20490   1.145   1.218  17.093  0.7948 -0.0449 -0.3055
  169DOPC  H13B20491   1.137   1.385  17.036  2.1622  2.0271  2.3135
  169DOPC  H13C20492   1.208   1.353  17.178  0.1806 -1.2244 -1.5914
  169DOPC   C1420493   0.978   1.260  17.300 -0.4454 -0.0372  0.5983
  169DOPC  H14A20494   1.053   1.284  17.374 -0.6642  0.8711  0.5350
  169DOPC  H14B20495   0.881   1.282  17.342 -0.2425 -1.1691  1.6996
  169DOPC  H14C20496   0.983   1.153  17.283 -0.2682 -0.2046  1.6157
  169DOPC   C1520497   0.973   1.496  17.209  0.4309  0.1958  0.2132
  169DOPC  H15A20498   0.877   1.508  17.256  0.6370  0.9966  0.4362
  169DOPC  H15B20499   0.964   1.542  17.112 -3.2565  2.6819  1.5424
  169DOPC  H15C20500   1.053   1.548  17.259  0.5737  0.3279 -0.1440
  169DOPC   C1120501   0.820   1.173  17.071  0.0803  0.4498 -0.1419
  169DOPC  H11A20502   0.789   1.129  17.168  0.2703  0.5255 -0.0483
  169DOPC  H11B20503   0.732   1.166  17.003  1.0931 -1.2599 -1.3450
  169DOPC     P20504   0.980   1.090  16.876 -0.4752 -0.2795  0.2027
  169DOPC   O1320505   0.929   0.972  16.804  0.0601  0.0120  0.1791
  169DOPC   O1420506   1.130   1.106  16.890  0.2505 -0.3575 -0.1202
  169DOPC   O1220507   0.929   1.097  17.025 -0.3977  0.4001 -0.3714
  169DOPC   O1120508   0.915   1.221  16.816 -0.4501 -0.2105 -0.5930
  169DOPC    C120509   0.791   1.219  16.744 -0.1109  0.1902  0.4818
  169DOPC    HA20510   0.736   1.315  16.754 -2.4978 -0.9736 -0.5525
  169DOPC    HB20511   0.728   1.133  16.776 -0.3036 -0.5864 -1.7800
  169DOPC    C220512   0.821   1.199  16.592 -0.3745 -0.5104 -0.1450
  169DOPC    HS20513   0.910   1.134  16.580  0.4676  0.5144  0.3712
  169DOPC   O2120514   0.852   1.327  16.536 -0.1367  0.1436 -0.7562
  169DOPC   C2120515   0.949   1.332  16.439 -0.3561 -0.1880  1.0264
  169DOPC   O2220516   1.022   1.234  16.410  0.1395 -0.1602 -0.1802
  169DOPC   C2220517   0.959   1.480  16.387  0.1185  0.1760  0.0114
  169DOPC   H2R20518   1.043   1.524  16.446 -0.4811 -1.9474  2.6085
  169DOPC   H2S20519   0.857   1.518  16.408 -1.2195 -3.3918  0.5259
  169DOPC    C320520   0.707   1.135  16.515 -0.1090 -0.4411  0.0898
  169DOPC    HX20521   0.628   1.211  16.530  0.9248  0.1450  3.4052
  169DOPC    HY20522   0.681   1.040  16.566  3.4421 -1.3094  0.5774
  169DOPC   O3120523   0.732   1.112  16.372  0.6630 -0.8370 -0.1305
  169DOPC   C3120524   0.808   1.006  16.350  0.2777  0.6533  0.6664
  169DOPC   O3220525   0.829   0.922  16.433  0.4611 -0.6941 -1.0501
  169DOPC   C3220526   0.863   1.013  16.202  0.2960 -0.0601  0.6205
  169DOPC   H2X20527   0.851   1.117  16.162  0.7766 -0.5223 -0.8085
  169DOPC   H2Y20528   0.973   0.998  16.207  0.1771 -1.0023  0.5960
  169DOPC   C2320529   1.006   1.480  16.241  0.1850  0.2537  0.4860
  169DOPC   H3R20530   1.090   1.412  16.215  0.0750  0.8142 -1.4721
  169DOPC   H3S20531   1.050   1.577  16.209  1.6652 -1.2015 -2.2629
  169DOPC   C2420532   0.898   1.446  16.137  0.0454 -0.0131 -0.1630
  169DOPC   H4R20533   0.835   1.538  16.138 -0.6408 -0.4689  1.5214
  169DOPC   H4S20534   0.836   1.361  16.172 -0.2139 -0.5178 -1.7713
  169DOPC   C2520535   0.954   1.414  15.999 -0.2083 -0.4156  0.6044
  169DOPC   H5R20536   1.026   1.333  16.022  1.4872  0.3255 -1.7153
  169DOPC   H5S20537   1.014   1.501  15.962  0.2349 -1.0066 -0.0866
  169DOPC   C2620538   0.851   1.382  15.891  0.4149 -0.3073  0.2208
  169DOPC   H6R20539   0.816   1.483  15.860  0.6749  0.5942  2.6162
  169DOPC   H6S20540   0.762   1.336  15.939 -0.1242 -1.9908 -2.2198
  169DOPC   C2720541   0.882   1.279  15.785 -0.3059  0.1422 -0.3793
  169DOPC   H7R20542   0.911   1.190  15.846  0.4181  0.1047 -0.7706
  169DOPC   H7S20543   0.957   1.310  15.709 -0.4113 -2.2186 -1.5413
  169DOPC   C2820544   0.758   1.234  15.707 -1.1508  1.2246 -0.2323
  169DOPC   H8R20545   0.711   1.329  15.675 -1.1480  1.9002  1.6710
  169DOPC   H8S20546   0.689   1.176  15.772 -2.9943  3.5806  0.0632
  169DOPC   C2920547   0.796   1.148  15.592 -0.7946  0.2243 -0.1716
  169DOPC   H9R20548   0.864   1.067  15.623 -0.2254  1.3314  1.5771
  169DOPC  C21020549   0.753   1.154  15.469  0.9081  0.2312 -0.1521
  169DOPC  H10R20550   0.801   1.101  15.385  1.9588  2.9727 -1.4325
  169DOPC  C21120551   0.654   1.250  15.415 -0.3913  1.0719 -0.3493
  169DOPC  H11R20552   0.678   1.359  15.417 -1.7161  1.3805  0.2348
  169DOPC  H11S20553   0.551   1.236  15.455 -0.1707 -0.3767 -0.2419
  169DOPC  C21220554   0.637   1.200  15.272  0.3694  0.2968  0.8766
  169DOPC  H12R20555   0.615   1.091  15.273 -0.4100  0.4380  0.0915
  169DOPC  H12S20556   0.725   1.223  15.209  0.0088 -0.4566  0.0759
  169DOPC  C21320557   0.500   1.252  15.212 -0.5023  0.1630 -0.6987
  169DOPC  H13R20558   0.520   1.359  15.190 -0.9624  0.1484 -1.1903
  169DOPC  H13S20559   0.409   1.251  15.275  0.2372  3.4877  0.6732
  169DOPC  C21420560   0.469   1.179  15.076  0.1416 -0.0965 -0.3232
  169DOPC  H14R20561   0.415   1.083  15.087  1.3405 -0.8301 -0.6170
  169DOPC  H14S20562   0.568   1.154  15.032  0.2199 -0.9938  0.3376
  169DOPC  C21520563   0.392   1.271  14.990  0.5915 -0.2499 -0.3814
  169DOPC  H15R20564   0.429   1.375  14.982  0.3809 -0.2760 -1.9106
  169DOPC  H15S20565   0.293   1.275  15.041  2.1992 -0.9041  3.0733
  169DOPC  C21620566   0.359   1.220  14.846  0.4087  0.0114 -0.6290
  169DOPC  H16R20567   0.296   1.299  14.799  0.9737  0.5896 -0.4348
  169DOPC  H16S20568   0.299   1.127  14.846 -0.4650  0.5572 -0.9722
  169DOPC  C21720569   0.475   1.180  14.750 -0.5474  0.3678 -0.8204
  169DOPC  H17R20570   0.520   1.083  14.780  1.1289  0.3875 -3.0204
  169DOPC  H17S20571   0.552   1.258  14.735 -1.2683  1.5281  1.1626
  169DOPC  C21820572   0.414   1.132  14.618  0.7152 -0.5093 -0.5568
  169DOPC  H18R20573   0.351   1.215  14.580 -0.1356 -1.1223 -0.5140
  169DOPC  H18S20574   0.352   1.043  14.642  0.8131 -0.5347 -0.3934
  169DOPC  H18T20575   0.501   1.110  14.552  1.3239  0.3240 -0.0615
  169DOPC   C3320576   0.793   0.906  16.108 -0.6131 -0.4445 -0.8724
  169DOPC   H3X20577   0.823   0.936  16.006 -0.4662  1.3509 -0.3290
  169DOPC   H3Y20578   0.683   0.921  16.114 -0.5361  1.1924 -2.6848
  169DOPC   C3420579   0.826   0.757  16.145 -0.0955 -0.4235 -0.0660
  169DOPC   H4X20580   0.758   0.690  16.089  0.5346 -2.3069  1.3069
  169DOPC   H4Y20581   0.794   0.735  16.250  0.0219 -0.2631  0.0025
  169DOPC   C3520582   0.959   0.699  16.118 -0.0827  0.1650 -1.0341
  169DOPC   H5X20583   0.947   0.590  16.136  2.2418  0.2932  2.0195
  169DOPC   H5Y20584   1.037   0.737  16.188 -0.7017 -1.3640  0.5448
  169DOPC   C3620585   1.014   0.714  15.977 -0.0223 -0.7528  0.2832
  169DOPC   H6X20586   0.937   0.669  15.910  0.6319 -1.2519 -0.1415
  169DOPC   H6Y20587   1.033   0.822  15.959  0.3052 -0.8735 -0.1107
  169DOPC   C3720588   1.145   0.640  15.946  0.0590 -0.5530 -0.2036
  169DOPC   H7X20589   1.232   0.685  15.998 -1.6224  2.4015  0.2830
  169DOPC   H7Y20590   1.123   0.536  15.975  1.1651 -1.6264 -2.8066
  169DOPC   C3820591   1.169   0.621  15.794  0.1460 -0.0636  0.1418
  169DOPC   H8X20592   1.078   0.575  15.749 -0.7454  1.0746  0.7396
  169DOPC   H8Y20593   1.247   0.544  15.777  0.6757  0.2062  1.2455
  169DOPC   C3920594   1.196   0.758  15.731 -0.0434  0.2214  0.6985
  169DOPC   H9X20595   1.280   0.815  15.773 -0.0753  0.6717  0.1711
  169DOPC  C31020596   1.145   0.803  15.612 -0.8720  0.0814  0.4039
  169DOPC  H10X20597   1.194   0.894  15.574  0.0025 -0.7314 -0.4597
  169DOPC  C31120598   1.054   0.736  15.515  0.3341  0.5699  0.1536
  169DOPC  H11X20599   0.971   0.802  15.482 -0.9746 -1.5955 -1.1365
  169DOPC  H11Y20600   1.010   0.641  15.551  1.0179 -0.6924 -2.1017
  169DOPC  C31220601   1.125   0.694  15.381  0.8709 -0.1279  0.3212
  169DOPC  H12X20602   1.040   0.658  15.319 -0.0271 -0.5127  1.7082
  169DOPC  H12Y20603   1.180   0.598  15.379  0.8553 -0.1267 -0.6302
  169DOPC  C31320604   1.190   0.811  15.316 -0.2181  0.3847 -0.0047
  169DOPC  H13X20605   1.117   0.894  15.303  1.2178  1.6457 -0.2889
  169DOPC  H13Y20606   1.281   0.850  15.366 -0.6338 -0.3588  1.3565
  169DOPC  C31420607   1.237   0.772  15.174  0.5017 -0.3938  0.2058
  169DOPC  H14X20608   1.284   0.671  15.170 -2.0816 -1.8420  2.6885
  169DOPC  H14Y20609   1.146   0.755  15.113  1.1533  0.8777 -1.1922
  169DOPC  C31520610   1.307   0.892  15.098 -0.7949  0.2007  0.2245
  169DOPC  H15X20611   1.273   0.987  15.145 -1.4862 -0.4520  1.0692
  169DOPC  H15Y20612   1.269   0.895  14.993 -0.9002  1.6224  0.2776
  169DOPC  C31620613   1.460   0.899  15.105 -0.3202 -0.0174  0.4483
  169DOPC  H16X20614   1.482   1.007  15.122 -1.7736  0.5262 -0.8602
  169DOPC  H16Y20615   1.487   0.862  15.206 -1.4694  0.5508  0.9990
  169DOPC  C31720616   1.541   0.847  14.985  0.1767 -0.0536 -0.1698
  169DOPC  H17X20617   1.500   0.881  14.888 -2.3569  1.2727  1.2665
  169DOPC  H17Y20618   1.646   0.882  14.983  0.0750  0.2373 -1.1940
  169DOPC  C31820619   1.560   0.695  14.994 -0.5353  0.0424  0.1453
  169DOPC  H18X20620   1.638   0.665  14.921  0.2504 -0.1151  1.0390
  169DOPC  H18Y20621   1.591   0.662  15.095 -0.2934 -0.9640 -0.2468
  169DOPC  H18Z20622   1.463   0.642  14.978  0.0328 -0.7296 -0.8512
  170DOPC     N20623   6.792   0.384  17.226  0.7631 -0.0618  0.3610
  170DOPC   C1220624   6.846   0.262  17.152 -0.1809 -0.0501 -0.2699
  170DOPC  H12A20625   6.868   0.188  17.227 -0.3312  0.8138  0.6595
  170DOPC  H12B20626   6.937   0.285  17.099  0.0100 -0.8769 -0.3129
  170DOPC   C1320627   6.900   0.423  17.323  0.6844 -0.3026 -0.0083
  170DOPC  H13A20628   6.923   0.336  17.383  2.0092 -0.7108 -1.0463
  170DOPC  H13B20629   6.987   0.449  17.264 -0.8205  1.7701 -1.4568
  170DOPC  H13C20630   6.869   0.501  17.390  0.4096  1.0304 -1.6351
  170DOPC   C1420631   6.672   0.334  17.296  0.0866 -0.0099  0.4466
  170DOPC  H14A20632   6.701   0.281  17.385 -2.5838 -2.4919 -0.0279
  170DOPC  H14B20633   6.608   0.416  17.323  0.1936  0.0041  0.6589
  170DOPC  H14C20634   6.612   0.266  17.238  0.8754  1.0002 -1.6648
  170DOPC   C1520635   6.757   0.495  17.124  0.1029 -0.4329 -0.9637
  170DOPC  H15A20636   6.675   0.460  17.063  0.8397 -1.9536 -1.1472
  170DOPC  H15B20637   6.846   0.527  17.072  1.2759 -1.0219  0.5939
  170DOPC  H15C20638   6.706   0.568  17.184 -1.8724 -2.7759  0.4165
  170DOPC   C1120639   6.751   0.200  17.043  0.0917  0.8425  0.3292
  170DOPC  H11A20640   6.744   0.282  16.969 -2.1197  1.1177  0.7692
  170DOPC  H11B20641   6.815   0.115  17.011 -0.0155  0.5846  0.7867
  170DOPC     P20642   6.487   0.177  17.012  0.1777 -0.0039 -0.1057
  170DOPC   O1320643   6.422   0.282  17.091  0.0457  0.3908 -0.0582
  170DOPC   O1420644   6.405   0.054  17.004  0.4502 -0.1703 -0.0506
  170DOPC   O1220645   6.625   0.148  17.085  0.0595  0.2722  0.0074
  170DOPC   O1120646   6.528   0.225  16.871  0.0731 -0.2983  0.3610
  170DOPC    C120647   6.520   0.363  16.820 -0.3538  0.3954  0.5259
  170DOPC    HA20648   6.591   0.425  16.879  0.2177 -0.1226  0.4050
  170DOPC    HB20649   6.416   0.400  16.825 -0.1180  0.9300  4.1787
  170DOPC    C220650   6.568   0.381  16.667  0.4931  0.1082 -0.9875
  170DOPC    HS20651   6.558   0.489  16.644  1.0708  0.7363  1.4134
  170DOPC   O2120652   6.484   0.302  16.581 -0.7041  0.2414 -0.3067
  170DOPC   C2120653   6.371   0.357  16.547 -0.2219 -0.6605  0.7556
  170DOPC   O2220654   6.333   0.466  16.576 -0.1169  0.0899 -0.5757
  170DOPC   C2220655   6.313   0.270  16.438  0.0599  1.1106 -0.9935
  170DOPC   H2R20656   6.214   0.317  16.419  0.0028  0.5812 -2.1070
  170DOPC   H2S20657   6.291   0.175  16.492 -3.0303  2.0075 -0.4413
  170DOPC    C320658   6.724   0.338  16.660 -0.0692  0.0165  0.4532
  170DOPC    HX20659   6.743   0.262  16.739 -0.7705  0.8810  1.4764
  170DOPC    HY20660   6.782   0.428  16.687  2.4403 -1.1785 -0.6014
  170DOPC   O3120661   6.770   0.304  16.531 -0.1754 -0.3815 -1.0518
  170DOPC   C3120662   6.836   0.193  16.524 -0.3976  0.2823  0.0942
  170DOPC   O3220663   6.877   0.128  16.615 -0.3077 -0.0456 -0.1345
  170DOPC   C3220664   6.844   0.149  16.375 -0.1029 -0.8815  0.5590
  170DOPC   H2X20665   6.740   0.140  16.338 -0.0572  0.6360 -0.0246
  170DOPC   H2Y20666   6.905   0.228  16.325  2.2686 -0.2464  4.0747
  170DOPC   C2320667   6.396   0.262  16.312  0.0188 -0.0885 -0.3892
  170DOPC   H3R20668   6.495   0.214  16.330  0.3677  1.4635  2.3342
  170DOPC   H3S20669   6.405   0.366  16.275 -0.5526  0.3815  0.7742
  170DOPC   C2420670   6.321   0.184  16.204 -0.0037 -0.1074 -0.7118
  170DOPC   H4R20671   6.392   0.195  16.119  1.5933  1.8772  0.7636
  170DOPC   H4S20672   6.228   0.242  16.183 -1.0554 -1.3985  0.2732
  170DOPC   C2520673   6.290   0.043  16.248 -0.1440 -0.0025 -0.3093
  170DOPC   H5R20674   6.220   0.045  16.335  0.7858  1.8484  0.4648
  170DOPC   H5S20675   6.388  -0.007  16.267 -1.6024 -2.4168  1.3476
  170DOPC   C2620676   6.215  -0.042  16.141 -0.0356  0.5413 -0.5706
  170DOPC   H6R20677   6.114   0.001  16.125  0.8634  3.3846  0.8161
  170DOPC   H6S20678   6.208  -0.143  16.188 -1.3395 -0.3348 -2.5285
  170DOPC   C2720679   6.271  -0.067  16.002 -0.0486  0.8138  0.3312
  170DOPC   H7R20680   6.369  -0.118  16.011  1.8377  3.8536 -1.2122
  170DOPC   H7S20681   6.298   0.027  15.949  1.8641  0.8476  1.3172
  170DOPC   C2820682   6.165  -0.144  15.910 -0.2117 -0.0828 -0.0726
  170DOPC   H8R20683   6.079  -0.074  15.908  0.6734  0.9987 -1.5417
  170DOPC   H8S20684   6.114  -0.225  15.968 -0.8024  1.4268  1.6076
  170DOPC   C2920685   6.228  -0.181  15.780  0.2238  0.5772  0.0863
  170DOPC   H9R20686   6.209  -0.109  15.698 -0.8284 -2.1288 -2.2112
  170DOPC  C21020687   6.283  -0.297  15.756 -0.1416  0.4912 -0.3790
  170DOPC  H10R20688   6.337  -0.313  15.661  0.3099 -0.7556  0.0652
  170DOPC  C21120689   6.297  -0.424  15.839  0.3454  1.1225 -0.0174
  170DOPC  H11R20690   6.243  -0.509  15.794  0.4747  0.5503  0.8962
  170DOPC  H11S20691   6.263  -0.413  15.944  1.3703  2.1091  0.2386
  170DOPC  C21220692   6.444  -0.464  15.832 -0.5079 -0.3520  0.2541
  170DOPC  H12R20693   6.484  -0.487  15.731 -0.5667  2.4132 -0.4900
  170DOPC  H12S20694   6.434  -0.550  15.902 -3.2946 -0.1288  0.2251
  170DOPC  C21320695   6.541  -0.355  15.889 -0.0206  0.2360 -0.0956
  170DOPC  H13R20696   6.524  -0.334  15.997  1.8799 -0.0610  0.3031
  170DOPC  H13S20697   6.544  -0.266  15.822 -0.7042 -0.7249 -1.4421
  170DOPC  C21420698   6.687  -0.415  15.896  0.2540  0.7760  1.0188
  170DOPC  H14R20699   6.719  -0.441  15.792  0.3101  1.2332  0.9209
  170DOPC  H14S20700   6.672  -0.512  15.948 -0.4689  0.2196 -0.1736
  170DOPC  C21520701   6.784  -0.324  15.971 -0.0097 -0.9533 -0.3195
  170DOPC  H15R20702   6.731  -0.262  16.046 -1.2959 -0.4012 -1.6523
  170DOPC  H15S20703   6.836  -0.253  15.904  1.2655 -1.3550  0.2088
  170DOPC  C21620704   6.886  -0.395  16.058 -0.3500  0.2715  0.3959
  170DOPC  H16R20705   6.953  -0.319  16.104  0.0247 -1.6933  3.3973
  170DOPC  H16S20706   6.956  -0.458  15.999  2.2799  1.4707  2.0240
  170DOPC  C21720707   6.826  -0.474  16.180 -0.6442  0.7098 -0.3850
  170DOPC  H17R20708   6.747  -0.543  16.144  0.0253 -1.3538  1.8460
  170DOPC  H17S20709   6.791  -0.409  16.264  0.9306 -0.3277  1.1401
  170DOPC  C21820710   6.937  -0.559  16.253  0.1793  0.2556  0.2684
  170DOPC  H18R20711   7.004  -0.494  16.313 -0.9571  1.6612  0.0796
  170DOPC  H18S20712   6.999  -0.604  16.173 -0.3387 -0.9563  0.5327
  170DOPC  H18T20713   6.903  -0.641  16.320 -0.9904  0.8837  0.4747
  170DOPC   C3320714   6.925   0.024  16.337 -0.0871  0.3656  0.2625
  170DOPC   H3X20715   6.866  -0.063  16.372  1.1213  0.1769  1.9595
  170DOPC   H3Y20716   7.021   0.014  16.392  0.5862  0.7576 -0.8059
  170DOPC   C3420717   6.955   0.010  16.187 -0.3382  0.6712 -0.2837
  170DOPC   H4X20718   6.993  -0.093  16.171  1.6123  1.3983 -0.5902
  170DOPC   H4Y20719   7.036   0.084  16.166 -0.0119  0.7633  1.1732
  170DOPC   C3520720   6.837   0.037  16.095 -0.2122 -0.0606  0.2753
  170DOPC   H5X20721   6.789   0.131  16.129  0.9511 -0.1370  2.2718
  170DOPC   H5Y20722   6.763  -0.045  16.109  0.9356 -1.0577  0.6211
  170DOPC   C3620723   6.875   0.031  15.947 -0.0709 -0.1569 -0.0710
  170DOPC   H6X20724   6.914   0.133  15.923  0.8161 -0.1741  1.1614
  170DOPC   H6Y20725   6.941  -0.054  15.921 -1.7162 -1.2012 -0.9925
  170DOPC   C3720726   6.754   0.017  15.849  0.0317 -0.2821 -0.6948
  170DOPC   H7X20727   6.688  -0.067  15.878 -0.3105 -0.1736 -1.1392
  170DOPC   H7Y20728   6.696   0.111  15.862 -1.7041 -1.5794  1.9062
  170DOPC   C3820729   6.800   0.026  15.696 -0.0639 -0.5300  0.1579
  170DOPC   H8X20730   6.880   0.103  15.694 -0.3299 -0.2557  0.1985
  170DOPC   H8Y20731   6.715   0.053  15.631 -0.3331 -1.5839  0.0591
  170DOPC   C3920732   6.855  -0.117  15.656  0.0122  0.6060  0.1237
  170DOPC   H9X20733   6.915  -0.169  15.731 -1.3014 -1.1553  0.0110
  170DOPC  C31020734   6.808  -0.191  15.557 -0.8923  0.3013  0.0149
  170DOPC  H10X20735   6.832  -0.298  15.552  0.6864  0.6798 -0.9901
  170DOPC  C31120736   6.694  -0.143  15.467  0.4108  0.4704 -0.2018
  170DOPC  H11X20737   6.712  -0.175  15.362  2.4204 -1.6637  0.7163
  170DOPC  H11Y20738   6.686  -0.032  15.457  0.7451  0.4545 -0.6582
  170DOPC  C31220739   6.553  -0.206  15.500  0.0194 -0.3598  0.4634
  170DOPC  H12X20740   6.505  -0.151  15.584  0.2186 -0.7523  0.8385
  170DOPC  H12Y20741   6.564  -0.314  15.522 -1.2557 -0.6644 -0.3379
  170DOPC  C31320742   6.470  -0.198  15.371  1.0217 -0.3202 -1.0568
  170DOPC  H13X20743   6.525  -0.249  15.290  0.8958 -0.2086 -1.2127
  170DOPC  H13Y20744   6.373  -0.252  15.381  0.9885 -0.1038 -0.0616
  170DOPC  C31420745   6.437  -0.063  15.302  0.5875  0.3196  0.4011
  170DOPC  H14X20746   6.403   0.014  15.376  1.9457  0.0247  1.3752
  170DOPC  H14Y20747   6.532  -0.035  15.251 -0.2843  0.2370 -1.3336
  170DOPC  C31520748   6.324  -0.086  15.199 -0.0228 -1.0773 -0.4132
  170DOPC  H15X20749   6.231  -0.129  15.243 -0.5962  0.6838  0.2018
  170DOPC  H15Y20750   6.349  -0.156  15.117  1.5973 -1.1688  0.1394
  170DOPC  C31620751   6.308   0.049  15.125  0.0607  0.3947 -0.2538
  170DOPC  H16X20752   6.281   0.130  15.196 -1.9326 -0.9169  0.5748
  170DOPC  H16Y20753   6.408   0.089  15.098  0.6132  0.1484  1.3025
  170DOPC  C31720754   6.198   0.053  15.019 -0.6551 -0.4488  0.1489
  170DOPC  H17X20755   6.238   0.006  14.926  0.0750 -0.2146  0.3374
  170DOPC  H17Y20756   6.119  -0.004  15.072  0.7931 -1.1219  1.7073
  170DOPC  C31820757   6.144   0.191  14.990 -1.1311 -0.1709  0.6908
  170DOPC  H18X20758   6.228   0.259  14.966 -0.2047 -0.9108  1.7443
  170DOPC  H18Y20759   6.075   0.191  14.902 -1.9129  3.9228  1.0770
  170DOPC  H18Z20760   6.087   0.221  15.081  0.6066  2.2417  1.0660
  171DOPC     N20761   3.492   3.349  12.806  0.5826  0.2087 -0.1245
  171DOPC   C1220762   3.551   3.281  12.929 -0.0398  0.6352  0.0863
  171DOPC  H12A20763   3.517   3.328  13.019  0.9225  0.1021  0.7521
  171DOPC  H12B20764   3.656   3.304  12.939 -0.1185  1.2199 -0.3848
  171DOPC   C1320765   3.509   3.500  12.816 -0.4180  0.0217 -0.0035
  171DOPC  H13A20766   3.462   3.539  12.905 -2.1196 -2.6884  0.4100
  171DOPC  H13B20767   3.614   3.523  12.814 -0.2365 -0.6829  0.8987
  171DOPC  H13C20768   3.467   3.549  12.729  1.6582 -1.1267 -1.7410
  171DOPC   C1420769   3.343   3.328  12.798  0.1006 -0.0780  0.1259
  171DOPC  H14A20770   3.310   3.368  12.704  1.0761  0.2601 -0.0831
  171DOPC  H14B20771   3.323   3.222  12.793 -0.5281 -0.0378  1.2695
  171DOPC  H14C20772   3.283   3.377  12.874 -3.1931 -0.6471 -1.8794
  171DOPC   C1520773   3.535   3.288  12.675 -0.1403 -0.5762 -0.3286
  171DOPC  H15A20774   3.523   3.181  12.688 -1.7555 -0.2727  0.9005
  171DOPC  H15B20775   3.639   3.316  12.661 -0.1625  1.2482  2.4965
  171DOPC  H15C20776   3.468   3.309  12.593 -1.3005  2.0731  1.1777
  171DOPC   C1120777   3.523   3.124  12.944 -0.5097  0.5167  0.3894
  171DOPC  H11A20778   3.550   3.071  12.851 -1.6664  0.8327 -0.1434
  171DOPC  H11B20779   3.585   3.090  13.030 -0.1033  1.3956  0.4582
  171DOPC     P20780   3.327   3.111  13.113  0.6606  0.0421  0.6052
  171DOPC   O1320781   3.179   3.109  13.102 -0.2531 -0.7558  0.2576
  171DOPC   O1420782   3.391   3.231  13.172  0.3822  0.1767  0.5579
  171DOPC   O1220783   3.386   3.091  12.969  0.2296 -0.1376 -0.6757
  171DOPC   O1120784   3.388   2.977  13.175 -0.0107  0.1534  0.0800
  171DOPC    C120785   3.438   2.980  13.311  0.5922  0.3218  0.6559
  171DOPC    HA20786   3.398   2.899  13.375  0.8913 -1.1912 -1.0127
  171DOPC    HB20787   3.419   3.077  13.362 -2.6507 -0.0433  0.3417
  171DOPC    C220788   3.594   2.961  13.314  0.2321  0.4517  0.2829
  171DOPC    HS20789   3.641   3.032  13.243 -0.1590  0.7144  0.2808
  171DOPC   O2120790   3.626   2.820  13.281  0.3164 -0.0832 -0.0882
  171DOPC   C2120791   3.752   2.807  13.243 -0.6427 -0.5842 -0.1397
  171DOPC   O2220792   3.822   2.904  13.221 -0.6776 -0.1819  0.0601
  171DOPC   C2220793   3.801   2.660  13.237  0.0237  0.6850  0.3318
  171DOPC   H2R20794   3.803   2.623  13.132 -0.0375 -0.9307  0.8743
  171DOPC   H2S20795   3.739   2.595  13.302 -1.5730  1.2039 -0.5982
  171DOPC    C320796   3.656   3.005  13.451 -0.1434 -1.0204  0.5602
  171DOPC    HX20797   3.612   3.106  13.466 -1.8827 -1.4854 -0.9036
  171DOPC    HY20798   3.765   3.019  13.437 -0.4926 -1.0796 -3.4465
  171DOPC   O3120799   3.607   2.919  13.554 -0.1378 -0.3572  0.1066
  171DOPC   C3120800   3.667   2.963  13.668  0.4359  0.0709  1.0064
  171DOPC   O3220801   3.739   3.057  13.676 -0.4385 -0.2596  0.2371
  171DOPC   C3220802   3.615   2.884  13.787 -0.3257  0.0230  0.3571
  171DOPC   H2X20803   3.509   2.916  13.800 -0.6371  0.3391 -2.2502
  171DOPC   H2Y20804   3.634   2.778  13.758  1.1438  0.5517 -0.7119
  171DOPC   C2320805   3.940   2.658  13.301 -0.4625 -0.5199  0.3541
  171DOPC   H3R20806   4.004   2.735  13.253  1.8246 -1.1363  2.2444
  171DOPC   H3S20807   3.990   2.560  13.282  1.0338  0.0166  1.3656
  171DOPC   C2420808   3.953   2.669  13.450  0.5021 -0.7401 -0.0244
  171DOPC   H4R20809   3.871   2.604  13.488 -1.0024  0.4401 -1.0872
  171DOPC   H4S20810   3.938   2.776  13.475  1.7000 -0.1751 -1.5790
  171DOPC   C2520811   4.090   2.639  13.503  0.5205 -0.4779 -0.3974
  171DOPC   H5R20812   4.167   2.691  13.442 -0.9018 -0.7276 -2.5293
  171DOPC   H5S20813   4.087   2.528  13.492 -0.4069 -0.2964 -2.5130
  171DOPC   C2620814   4.108   2.677  13.657  0.1451 -0.6134  0.6556
  171DOPC   H6R20815   4.083   2.785  13.664  2.7743  0.2555 -1.4620
  171DOPC   H6S20816   4.215   2.663  13.685  0.2078 -0.1964  0.6340
  171DOPC   C2720817   4.019   2.598  13.754 -0.7150  0.0391 -0.0208
  171DOPC   H7R20818   4.027   2.490  13.731  2.5173  0.7569 -3.2728
  171DOPC   H7S20819   3.909   2.609  13.744 -0.7365  1.4120  1.2984
  171DOPC   C2820820   4.054   2.616  13.905 -0.2690 -0.1449 -0.0158
  171DOPC   H8R20821   3.983   2.577  13.981 -0.9788  1.1800  0.0434
  171DOPC   H8S20822   4.051   2.725  13.925 -0.2270 -0.1517  0.0258
  171DOPC   C2920823   4.191   2.565  13.944 -0.2741 -0.6011  0.0100
  171DOPC   H9R20824   4.190   2.455  13.947 -1.8355 -0.6295 -0.6374
  171DOPC  C21020825   4.307   2.632  13.965 -0.3190 -0.0846  0.0954
  171DOPC  H10R20826   4.400   2.586  14.002  0.7068  1.0304 -0.9785
  171DOPC  C21120827   4.325   2.780  13.947 -0.1877  0.2589 -0.5291
  171DOPC  H11R20828   4.240   2.823  13.889  0.0053  1.4513  0.0445
  171DOPC  H11S20829   4.409   2.805  13.879  0.5470 -0.9294 -0.0846
  171DOPC  C21220830   4.337   2.853  14.081  0.8611 -0.2203  1.1080
  171DOPC  H12R20831   4.366   2.960  14.079 -0.0483  0.0188  0.0875
  171DOPC  H12S20832   4.406   2.802  14.152  0.2836  0.3229  2.0874
  171DOPC  C21320833   4.200   2.854  14.166  0.7781 -0.0483  0.7682
  171DOPC  H13R20834   4.125   2.831  14.087 -0.1858 -0.6803  1.8151
  171DOPC  H13S20835   4.188   2.955  14.211  0.4043 -0.0015  0.5684
  171DOPC  C21420836   4.189   2.751  14.279  0.5700  0.2559 -0.3142
  171DOPC  H14R20837   4.237   2.784  14.374  1.3518 -1.3680 -0.1139
  171DOPC  H14S20838   4.245   2.665  14.237 -0.3188  0.6410 -2.3973
  171DOPC  C21520839   4.042   2.718  14.326  0.1710 -0.4841  0.4271
  171DOPC  H15R20840   3.995   2.641  14.261 -1.6668  0.7841  0.1726
  171DOPC  H15S20841   3.999   2.820  14.315  0.3755 -0.4864 -0.5286
  171DOPC  C21620842   4.022   2.672  14.472  0.9308 -0.0862  0.6648
  171DOPC  H16R20843   4.119   2.636  14.512 -0.2198 -0.3934  3.4351
  171DOPC  H16S20844   3.954   2.585  14.482  0.4943  0.3636  1.8748
  171DOPC  C21720845   3.977   2.780  14.574  0.2193 -0.0958 -0.6813
  171DOPC  H17R20846   3.874   2.806  14.543 -0.2996 -2.1389 -0.8128
  171DOPC  H17S20847   4.042   2.870  14.570 -0.3132  0.3084 -0.3044
  171DOPC  C21820848   3.975   2.719  14.714  1.0144 -0.2071 -0.1317
  171DOPC  H18R20849   3.915   2.625  14.720  1.2136 -0.3112  0.2487
  171DOPC  H18S20850   3.936   2.794  14.786 -1.0213 -1.7345  0.4724
  171DOPC  H18T20851   4.077   2.689  14.745  0.7154  0.1061  1.2318
  171DOPC   C3320852   3.693   2.910  13.919  0.5679  0.5433  0.2313
  171DOPC   H3X20853   3.695   3.015  13.954 -0.9751  0.4380  0.6858
  171DOPC   H3Y20854   3.799   2.877  13.914  0.4572  0.3273 -0.8410
  171DOPC   C3420855   3.630   2.817  14.020  0.0139 -0.0273  0.4097
  171DOPC   H4X20856   3.638   2.709  13.995  0.4392 -0.6374  2.9162
  171DOPC   H4Y20857   3.521   2.842  14.023  0.6446  2.9526  1.6756
  171DOPC   C3520858   3.698   2.834  14.157  0.2637 -0.7360  0.4411
  171DOPC   H5X20859   3.695   2.944  14.172 -0.2207 -0.6408 -0.3014
  171DOPC   H5Y20860   3.804   2.801  14.159  0.7275  0.7441  1.9092
  171DOPC   C3620861   3.623   2.769  14.275  0.0174 -0.4635 -0.0161
  171DOPC   H6X20862   3.677   2.807  14.364 -0.3764 -0.7669  0.3550
  171DOPC   H6Y20863   3.519   2.807  14.274 -0.0641 -0.6243  1.0409
  171DOPC   C3720864   3.639   2.616  14.269 -0.0698  0.7504  0.1062
  171DOPC   H7X20865   3.599   2.578  14.172 -2.0948 -0.8327  1.4788
  171DOPC   H7Y20866   3.745   2.591  14.289 -0.2928  0.5577  1.1039
  171DOPC   C3820867   3.554   2.557  14.387 -0.6748  0.0626  0.2135
  171DOPC   H8X20868   3.450   2.558  14.349 -1.0221 -0.1852  1.1330
  171DOPC   H8Y20869   3.567   2.626  14.473  1.8140 -0.7724  0.5975
  171DOPC   C3920870   3.592   2.408  14.421 -0.8451 -0.1232  0.1675
  171DOPC   H9X20871   3.606   2.334  14.341 -0.1886  1.2237 -1.0101
  171DOPC  C31020872   3.621   2.361  14.546  0.0868 -0.0451  0.0668
  171DOPC  H10X20873   3.626   2.252  14.562  0.6958 -0.2731 -1.5080
  171DOPC  C31120874   3.627   2.447  14.672 -0.1644  0.0183 -0.8973
  171DOPC  H11X20875   3.630   2.554  14.644  1.3987  0.6569  1.4760
  171DOPC  H11Y20876   3.731   2.440  14.710 -1.0126 -1.5877  1.3099
  171DOPC  C31220877   3.528   2.415  14.782  0.4970  0.5125  0.3271
  171DOPC  H12X20878   3.529   2.306  14.799 -1.0044  0.8747  3.4060
  171DOPC  H12Y20879   3.423   2.432  14.749  0.6716 -0.4254 -0.7814
  171DOPC  C31320880   3.559   2.468  14.930 -1.2484 -0.2461 -0.3633
  171DOPC  H13X20881   3.645   2.410  14.970 -2.2870 -2.5219 -1.2335
  171DOPC  H13Y20882   3.581   2.576  14.917  3.7802 -1.0727 -0.7496
  171DOPC  C31420883   3.452   2.443  15.043  0.1457  0.1357  0.5078
  171DOPC  H14X20884   3.484   2.494  15.136  0.5147 -0.3179  0.6302
  171DOPC  H14Y20885   3.358   2.485  15.001 -1.4933 -1.8656  1.9949
  171DOPC  C31520886   3.418   2.295  15.072  0.7861  0.4694  0.2227
  171DOPC  H15X20887   3.509   2.252  15.119  1.4319  1.1114 -0.4103
  171DOPC  H15Y20888   3.385   2.247  14.978  3.4197 -0.9380 -0.0619
  171DOPC  C31620889   3.302   2.275  15.172  0.7442  0.3572  0.6518
  171DOPC  H16X20890   3.302   2.351  15.253 -0.1069  0.3201  0.6941
  171DOPC  H16Y20891   3.209   2.302  15.116  0.3369  2.3095  2.1726
  171DOPC  C31720892   3.275   2.137  15.222  0.6423  0.6280  0.5221
  171DOPC  H17X20893   3.175   2.122  15.268 -0.3986  1.1118 -1.4538
  171DOPC  H17Y20894   3.281   2.081  15.126  0.4618  2.6180 -0.6955
  171DOPC  C31820895   3.379   2.062  15.306  0.0436  0.1710  0.2529
  171DOPC  H18X20896   3.481   2.079  15.264  0.9032 -0.4682  1.9594
  171DOPC  H18Y20897   3.377   2.104  15.409  1.5966  1.3382 -0.1401
  171DOPC  H18Z20898   3.355   1.954  15.314  3.5186 -0.8311 -0.9266
  172DOPC     N20899   2.804   4.786  12.697  0.5863 -0.1399 -0.0606
  172DOPC   C1220900   2.773   4.668  12.789  0.5242  0.6016  0.4200
  172DOPC  H12A20901   2.808   4.578  12.741  0.3731  1.2716 -0.9938
  172DOPC  H12B20902   2.665   4.662  12.796  0.6885 -1.8589  1.6411
  172DOPC   C1320903   2.724   4.906  12.731  0.6271  0.7379 -0.2415
  172DOPC  H13A20904   2.621   4.875  12.719  1.0442 -2.2274  2.5796
  172DOPC  H13B20905   2.739   4.928  12.835  0.0128  0.8729 -0.1740
  172DOPC  H13C20906   2.754   4.993  12.675  1.4795  1.6193  1.5218
  172DOPC   C1420907   2.757   4.743  12.562 -0.4748 -0.3496  0.3352
  172DOPC  H14A20908   2.654   4.714  12.578 -0.6691 -0.1244 -0.4553
  172DOPC  H14B20909   2.760   4.819  12.485 -3.5744 -1.4339 -1.0212
  172DOPC  H14C20910   2.812   4.660  12.520 -2.2250 -0.1539 -2.5945
  172DOPC   C1520911   2.951   4.822  12.690  0.1596 -0.0752  0.5177
  172DOPC  H15A20912   2.964   4.896  12.612  0.0427 -1.4857 -0.8964
  172DOPC  H15B20913   3.002   4.731  12.662  1.7298  0.8966  0.0576
  172DOPC  H15C20914   2.979   4.857  12.788  0.1521 -0.8273  0.7951
  172DOPC   C1120915   2.828   4.683  12.926 -0.8309  0.1813 -0.5407
  172DOPC  H11A20916   2.831   4.580  12.967  0.0458  0.0552 -0.9028
  172DOPC  H11B20917   2.935   4.713  12.930 -0.3264 -1.6071  1.2707
  172DOPC     P20918   2.630   4.734  13.087  0.1289 -0.2553  0.0296
  172DOPC   O1320919   2.541   4.645  13.011  0.6534 -0.5079  0.0407
  172DOPC   O1420920   2.567   4.859  13.129  0.0110 -0.4604 -0.2362
  172DOPC   O1220921   2.755   4.776  13.003 -0.0257  0.3135  0.0095
  172DOPC   O1120922   2.699   4.651  13.209 -0.2948 -0.3437 -0.1612
  172DOPC    C120923   2.805   4.714  13.288  0.2832  0.5522 -0.7529
  172DOPC    HA20924   2.776   4.697  13.394  0.8017 -0.7326 -0.7981
  172DOPC    HB20925   2.809   4.824  13.274  1.6543  0.9794  2.1224
  172DOPC    C220926   2.935   4.646  13.282 -0.3142  0.5526  0.3950
  172DOPC    HS20927   2.965   4.638  13.175  0.2613  0.8302  0.5275
  172DOPC   O2120928   2.929   4.514  13.343 -0.3861 -0.5113 -0.5322
  172DOPC   C2120929   3.017   4.430  13.305  0.2278  0.5474  0.2259
  172DOPC   O2220930   3.109   4.442  13.225 -0.3356  0.5537 -0.3293
  172DOPC   C2220931   2.985   4.291  13.364  0.2687 -0.2790 -0.0071
  172DOPC   H2R20932   2.956   4.232  13.274  0.3040 -0.7519  0.2881
  172DOPC   H2S20933   2.889   4.298  13.421 -0.1764  0.2706 -0.8110
  172DOPC    C320934   3.047   4.732  13.358 -0.1697  0.3775 -0.4082
  172DOPC    HX20935   3.047   4.842  13.342  1.4072  0.4371 -0.1456
  172DOPC    HY20936   3.140   4.706  13.304 -0.0018  0.6190 -0.2393
  172DOPC   O3120937   3.066   4.688  13.503  0.5461  0.4324  0.5114
  172DOPC   C3120938   2.979   4.752  13.582  0.1954 -0.3229  0.2330
  172DOPC   O3220939   2.905   4.841  13.549 -0.2851 -0.4489 -0.2893
  172DOPC   C3220940   2.998   4.716  13.728 -0.1272  0.1198 -0.1314
  172DOPC   H2X20941   2.920   4.645  13.762  1.6773 -1.4846  0.8743
  172DOPC   H2Y20942   3.093   4.658  13.732  0.3359  0.9083  0.7221
  172DOPC   C2320943   3.093   4.217  13.445  0.8572 -0.1081 -0.0617
  172DOPC   H3R20944   3.166   4.170  13.376  0.3489  1.7750 -1.9860
  172DOPC   H3S20945   3.049   4.137  13.508 -0.7224  2.3422  2.1555
  172DOPC   C2420946   3.144   4.306  13.557 -0.4042 -0.0704 -0.1671
  172DOPC   H4R20947   3.059   4.351  13.612  1.2064  3.4983 -0.3679
  172DOPC   H4S20948   3.202   4.392  13.517 -1.1946  1.4930  1.8700
  172DOPC   C2520949   3.227   4.228  13.662 -0.1705 -0.1313 -0.1465
  172DOPC   H5R20950   3.321   4.194  13.614 -0.3873 -2.1294  0.7313
  172DOPC   H5S20951   3.178   4.142  13.712  0.1858 -0.6142 -0.6169
  172DOPC   C2620952   3.264   4.321  13.778  0.2321  0.3718  0.6807
  172DOPC   H6R20953   3.288   4.424  13.744 -0.9313  0.5094  0.2275
  172DOPC   H6S20954   3.346   4.276  13.838 -1.9157 -3.2073  1.2605
  172DOPC   C2720955   3.148   4.333  13.883  0.4165 -0.2653 -0.2199
  172DOPC   H7R20956   3.119   4.229  13.911  3.9012 -0.6558  2.5012
  172DOPC   H7S20957   3.064   4.391  13.840  1.0632  0.3547 -0.6623
  172DOPC   C2820958   3.191   4.418  14.005 -0.1314 -0.4960  0.1497
  172DOPC   H8R20959   3.102   4.449  14.063 -0.1640 -0.4872  0.0953
  172DOPC   H8S20960   3.228   4.511  13.956 -0.3812 -0.2102  0.5057
  172DOPC   C2920961   3.303   4.384  14.104  0.5261  0.8205 -0.7290
  172DOPC   H9R20962   3.396   4.443  14.102 -0.1966  2.0920  0.8401
  172DOPC  C21020963   3.293   4.275  14.185  1.1750 -1.5054 -0.3098
  172DOPC  H10R20964   3.376   4.258  14.256  1.5522 -0.3444 -0.4446
  172DOPC  C21120965   3.170   4.187  14.191 -0.4846  0.2618  0.5552
  172DOPC  H11R20966   3.191   4.100  14.125 -1.1624  0.8977 -0.5281
  172DOPC  H11S20967   3.079   4.233  14.148 -0.7319  0.1432  0.9454
  172DOPC  C21220968   3.139   4.121  14.331  0.9237 -0.3740  0.5183
  172DOPC  H12R20969   3.222   4.061  14.374 -0.0586 -1.5431  0.8641
  172DOPC  H12S20970   3.055   4.059  14.291 -0.3397  1.5450  0.0237
  172DOPC  C21320971   3.081   4.218  14.433  0.2249 -0.3342 -0.1463
  172DOPC  H13R20972   3.015   4.291  14.381 -1.2252 -2.2028 -1.0505
  172DOPC  H13S20973   3.163   4.279  14.477  0.6035 -0.5749 -0.5027
  172DOPC  C21420974   3.001   4.149  14.539  0.3723  0.0994  0.0633
  172DOPC  H14R20975   3.073   4.070  14.570  2.8633  1.2548 -2.3884
  172DOPC  H14S20976   2.914   4.109  14.483  1.0445  1.0651 -1.7537
  172DOPC  C21520977   2.953   4.239  14.653 -0.3313  0.5817  0.4231
  172DOPC  H15R20978   2.863   4.190  14.696 -0.3727 -0.3729 -0.6943
  172DOPC  H15S20979   2.915   4.327  14.598 -1.1084 -0.4427 -0.7321
  172DOPC  C21620980   3.061   4.291  14.753 -0.0215 -0.1468 -0.1467
  172DOPC  H16R20981   3.136   4.359  14.708  0.2723 -0.4229 -0.0790
  172DOPC  H16S20982   3.130   4.207  14.779  1.4992  0.7263 -1.2360
  172DOPC  C21720983   3.007   4.367  14.877  0.4447  0.0723  0.2118
  172DOPC  H17R20984   2.973   4.288  14.946 -0.5396  1.0390  0.8659
  172DOPC  H17S20985   2.920   4.434  14.861  0.2347 -0.6097 -1.8112
  172DOPC  C21820986   3.110   4.445  14.959 -0.2248  0.5831 -0.4046
  172DOPC  H18R20987   3.194   4.375  14.980  0.3682  1.1191 -0.9506
  172DOPC  H18S20988   3.055   4.478  15.050 -1.3773 -0.1306 -0.8169
  172DOPC  H18T20989   3.158   4.531  14.908 -1.5886 -0.1639 -3.1675
  172DOPC   C3320990   3.007   4.847  13.817 -0.0781  0.9541 -0.1120
  172DOPC   H3X20991   2.907   4.897  13.812 -1.9632 -2.6073 -2.4745
  172DOPC   H3Y20992   3.073   4.927  13.777 -0.7582  1.1287 -0.9304
  172DOPC   C3420993   3.048   4.815  13.956 -0.2899 -0.5221  0.0929
  172DOPC   H4X20994   3.155   4.785  13.946  0.5204  1.6833  1.4550
  172DOPC   H4Y20995   2.999   4.721  13.988 -0.3720 -0.7278 -0.6224
  172DOPC   C3520996   3.047   4.925  14.059  0.2306 -0.0648 -0.7987
  172DOPC   H5X20997   2.941   4.958  14.067  0.2900 -0.2029  1.0210
  172DOPC   H5Y20998   3.105   5.004  14.006  1.2917 -2.8036 -4.1233
  172DOPC   C3620999   3.092   4.888  14.197  0.3880 -0.2821  0.3362
  172DOPC   H6X21000   3.190   4.836  14.190 -0.2432 -1.4536 -0.1064
  172DOPC   H6Y21001   3.106   4.989  14.241  0.6924  1.2243 -2.9177
  172DOPC   C3721002   2.980   4.808  14.275 -0.6631 -0.3404  0.4696
  172DOPC   H7X21003   2.881   4.859  14.267 -0.3306  0.2579  0.0356
  172DOPC   H7Y21004   2.969   4.727  14.200  2.2736  1.1546 -1.8186
  172DOPC   C3821005   3.020   4.764  14.417  0.0032  0.8112 -0.3368
  172DOPC   H8X21006   2.936   4.698  14.448 -0.2333 -0.2700 -2.9490
  172DOPC   H8Y21007   3.028   4.857  14.477  2.1001  0.1210  0.5188
  172DOPC   C3921008   3.150   4.677  14.421  0.3391 -0.4356 -0.1909
  172DOPC   H9X21009   3.147   4.573  14.386 -1.1062 -0.7624  0.8015
  172DOPC  C31021010   3.266   4.735  14.464  0.0204 -0.8197  0.1041
  172DOPC  H10X21011   3.361   4.681  14.457  0.6989  0.3234  0.2475
  172DOPC  C31121012   3.280   4.880  14.508  0.0378 -1.1867  0.2282
  172DOPC  H11X21013   3.202   4.940  14.457  1.9389  0.4562 -0.8395
  172DOPC  H11Y21014   3.374   4.927  14.475  0.8347 -2.9815 -0.1840
  172DOPC  C31221015   3.263   4.900  14.661  0.3008 -0.2463  0.5911
  172DOPC  H12X21016   3.157   4.880  14.689  0.7673 -0.8292  2.0301
  172DOPC  H12Y21017   3.294   5.004  14.685  0.3798 -0.0481 -0.3307
  172DOPC  C31321018   3.362   4.802  14.733  0.7368  0.4658 -0.7184
  172DOPC  H13X21019   3.323   4.699  14.719  0.2391  0.5239  0.1614
  172DOPC  H13Y21020   3.464   4.803  14.689  0.3914 -1.9326 -1.7159
  172DOPC  C31421021   3.369   4.839  14.881 -0.3731  0.5026 -0.1278
  172DOPC  H14X21022   3.433   4.930  14.884 -0.7459  0.8160 -1.4456
  172DOPC  H14Y21023   3.270   4.859  14.926  0.2323  0.4254  1.3256
  172DOPC  C31521024   3.433   4.723  14.972  0.6474 -0.1167 -0.6276
  172DOPC  H15X21025   3.354   4.646  14.984 -1.0401  1.9468  3.7080
  172DOPC  H15Y21026   3.439   4.773  15.071  0.5986  3.0227 -2.0754
  172DOPC  C31621027   3.568   4.684  14.914  0.2729 -0.1207 -0.3634
  172DOPC  H16X21028   3.614   4.615  14.988 -1.8078  0.4254  1.5477
  172DOPC  H16Y21029   3.553   4.616  14.826 -2.3211  2.1472 -1.8183
  172DOPC  C31721030   3.669   4.798  14.899 -0.0781 -0.3917 -0.4268
  172DOPC  H17X21031   3.654   4.842  14.798  0.1177  0.4254 -0.1025
  172DOPC  H17Y21032   3.661   4.885  14.967  0.2205 -1.4616  1.0180
  172DOPC  C31821033   3.813   4.744  14.900  0.2473  0.4886  0.6659
  172DOPC  H18X21034   3.890   4.824  14.892  1.2557 -0.6466 -3.3688
  172DOPC  H18Y21035   3.832   4.685  14.992 -2.4251  0.7638  1.4825
  172DOPC  H18Z21036   3.823   4.690  14.803 -2.2684  1.5536 -0.2727
  173DOPC     N21037   1.884   3.108  12.904 -0.5285  0.2631 -0.1909
  173DOPC   C1221038   1.944   3.107  13.042  0.0524 -0.0947  0.4905
  173DOPC  H12A21039   2.052   3.102  13.033  0.0478 -1.6029  1.0363
  173DOPC  H12B21040   1.912   3.019  13.095  1.5173 -0.4428  0.8388
  173DOPC   C1321041   1.863   3.252  12.861  0.2598  0.3111 -0.0429
  173DOPC  H13A21042   1.787   3.296  12.923 -1.2799  0.1403 -1.7304
  173DOPC  H13B21043   1.955   3.307  12.869 -0.2314  1.0039  1.0796
  173DOPC  H13C21044   1.824   3.253  12.760 -1.0145 -0.7046  0.3997
  173DOPC   C1421045   1.756   3.040  12.898 -1.3236 -0.9632  0.6047
  173DOPC  H14A21046   1.764   2.939  12.936 -0.6802 -1.0495  0.2436
  173DOPC  H14B21047   1.682   3.088  12.960 -0.7261  0.2665  0.4013
  173DOPC  H14C21048   1.715   3.027  12.799 -1.1293  0.8813  0.2492
  173DOPC   C1521049   1.970   3.050  12.797 -0.0038  0.2569 -0.2181
  173DOPC  H15A21050   1.996   2.948  12.823 -1.3689 -0.9108 -2.9558
  173DOPC  H15B21051   2.063   3.105  12.790  0.4525  0.0238  2.6576
  173DOPC  H15C21052   1.921   3.058  12.701  0.6041  0.5443 -0.5151
  173DOPC   C1121053   1.902   3.215  13.144  0.0027 -0.1101 -0.1866
  173DOPC  H11A21054   1.956   3.191  13.238  0.8800  1.7497 -0.1506
  173DOPC  H11B21055   1.938   3.316  13.112 -2.0504  0.7122 -0.0548
  173DOPC     P21056   1.677   3.324  13.234 -0.2200  0.2530  0.4428
  173DOPC   O1321057   1.569   3.366  13.139 -0.1149 -0.4840  0.3639
  173DOPC   O1421058   1.767   3.430  13.280 -0.4811 -0.5281  0.4410
  173DOPC   O1221059   1.766   3.210  13.172  0.1398  0.6096  0.3290
  173DOPC   O1121060   1.614   3.251  13.355  0.7210  0.5666 -0.0751
  173DOPC    C121061   1.497   3.175  13.349 -0.3471  0.1666  0.8359
  173DOPC    HA21062   1.507   3.077  13.402  2.8895 -0.5661 -0.8769
  173DOPC    HB21063   1.465   3.138  13.249  1.5034 -1.5846  0.8195
  173DOPC    C221064   1.382   3.255  13.416 -0.0552 -0.4501 -0.1770
  173DOPC    HS21065   1.340   3.322  13.338 -0.8476 -1.3976 -0.5978
  173DOPC   O2121066   1.439   3.321  13.540 -0.1225  0.1418 -0.6148
  173DOPC   C2121067   1.365   3.431  13.569 -0.5626  0.4407  0.0027
  173DOPC   O2221068   1.270   3.468  13.506  0.6644 -0.4971  0.2802
  173DOPC   C2221069   1.421   3.508  13.695  0.9171 -0.4725 -0.5169
  173DOPC   H2R21070   1.348   3.494  13.778 -2.0876  2.2089 -2.4683
  173DOPC   H2S21071   1.420   3.616  13.669  1.5713  0.0541  1.4913
  173DOPC    C321072   1.250   3.171  13.445  0.1288 -0.3779 -0.0803
  173DOPC    HX21073   1.210   3.143  13.345  2.1326  1.2296 -1.4205
  173DOPC    HY21074   1.189   3.253  13.489  1.0732  0.2744  0.0351
  173DOPC   O3121075   1.263   3.056  13.536 -0.2953 -0.3138  0.5826
  173DOPC   C3121076   1.273   3.085  13.665 -0.2057 -1.1195 -0.1703
  173DOPC   O3221077   1.249   3.194  13.715  0.4394 -0.1992  0.5559
  173DOPC   C3221078   1.308   2.959  13.749  0.8540  0.0318  0.1579
  173DOPC   H2X21079   1.243   2.877  13.713 -0.9525  1.7355 -0.7072
  173DOPC   H2Y21080   1.412   2.927  13.728  0.3572 -1.6183  0.1055
  173DOPC   C2321081   1.569   3.462  13.717  0.7255 -0.9318 -0.6996
  173DOPC   H3R21082   1.634   3.479  13.629  2.6070 -0.4496  0.7143
  173DOPC   H3S21083   1.569   3.352  13.735  0.6693 -0.8592 -0.2411
  173DOPC   C2421084   1.629   3.524  13.838  0.1320 -0.1675  1.1602
  173DOPC   H4R21085   1.580   3.618  13.873  1.9227  0.2996  2.5516
  173DOPC   H4S21086   1.738   3.544  13.823 -0.3647  2.4067  0.3794
  173DOPC   C2521087   1.610   3.443  13.973 -0.0162 -0.1524  0.2526
  173DOPC   H5R21088   1.661   3.345  13.961  1.8515  0.7490  0.5078
  173DOPC   H5S21089   1.502   3.423  13.989 -0.1923  0.6016  0.0681
  173DOPC   C2621090   1.665   3.524  14.089 -0.6320 -0.8098  0.6851
  173DOPC   H6R21091   1.603   3.614  14.110  0.8575  0.4169  0.0334
  173DOPC   H6S21092   1.755   3.579  14.056 -0.3764  0.2747  3.0018
  173DOPC   C2721093   1.697   3.463  14.225  0.0935  0.6031 -0.2156
  173DOPC   H7R21094   1.623   3.383  14.249  0.1916  0.1050 -1.5104
  173DOPC   H7S21095   1.676   3.540  14.301 -1.4779 -0.5343  0.5605
  173DOPC   C2821096   1.838   3.421  14.243 -0.6153  0.5244 -0.5396
  173DOPC   H8R21097   1.873   3.376  14.148  0.6797  0.3136  0.0217
  173DOPC   H8S21098   1.844   3.339  14.318 -2.4358 -0.3531 -1.2718
  173DOPC   C2921099   1.937   3.536  14.258  0.0539  0.9649  0.0232
  173DOPC   H9R21100   1.919   3.622  14.192 -0.9524  1.0614  0.4096
  173DOPC  C21021101   2.044   3.532  14.338  0.2045  0.3584  0.0184
  173DOPC  H10R21102   2.110   3.619  14.321 -0.0987  0.3840 -1.0970
  173DOPC  C21121103   2.086   3.419  14.426 -0.3566  0.5096  0.2432
  173DOPC  H11R21104   2.192   3.389  14.411 -0.6555 -0.6372  0.3628
  173DOPC  H11S21105   2.027   3.329  14.399  0.9089  0.4104 -2.5827
  173DOPC  C21221106   2.065   3.441  14.574 -0.8408  0.1794 -0.5622
  173DOPC  H12R21107   2.120   3.537  14.586 -0.0218 -0.4440  1.0423
  173DOPC  H12S21108   2.120   3.365  14.633 -0.6604 -0.2778 -1.3101
  173DOPC  C21321109   1.923   3.433  14.630  0.2491  0.3773 -0.9890
  173DOPC  H13R21110   1.886   3.328  14.622 -1.5025  0.8554  0.2751
  173DOPC  H13S21111   1.862   3.508  14.577 -0.5750 -0.0258 -0.6390
  173DOPC  C21421112   1.924   3.465  14.785 -0.0924 -0.3537  0.6063
  173DOPC  H14R21113   1.933   3.575  14.792 -1.1630 -0.1901 -0.3176
  173DOPC  H14S21114   2.020   3.421  14.820  0.9648  0.4555 -1.1535
  173DOPC  C21521115   1.804   3.409  14.869  0.2024  0.2096 -0.0525
  173DOPC  H15R21116   1.751   3.332  14.808  1.3073 -0.6722  0.0717
  173DOPC  H15S21117   1.737   3.496  14.887  0.2129  0.2197 -0.0623
  173DOPC  C21621118   1.842   3.343  15.002  0.3603  0.2923  0.3944
  173DOPC  H16R21119   1.922   3.269  14.981 -0.4798 -1.2250  2.2056
  173DOPC  H16S21120   1.758   3.282  15.042 -1.2827  1.1759 -1.5673
  173DOPC  C21721121   1.890   3.442  15.102  0.0147 -0.8828  0.3523
  173DOPC  H17R21122   1.809   3.512  15.131 -0.3522 -0.6126 -1.2264
  173DOPC  H17S21123   1.973   3.505  15.062 -0.1847  0.1885  1.5805
  173DOPC  C21821124   1.934   3.371  15.226 -0.8748  0.0211 -0.8462
  173DOPC  H18R21125   1.972   3.452  15.293 -0.9903  0.1324 -0.9137
  173DOPC  H18S21126   2.011   3.292  15.215 -1.9418 -0.8883 -2.0838
  173DOPC  H18T21127   1.848   3.332  15.284 -0.1823 -3.8795 -2.1460
  173DOPC   C3321128   1.288   2.980  13.893 -0.5579 -0.3477 -0.7697
  173DOPC   H3X21129   1.195   3.040  13.902  1.2674  2.4865  0.5974
  173DOPC   H3Y21130   1.364   3.056  13.923 -0.3968 -0.0527 -1.8794
  173DOPC   C3421131   1.303   2.859  13.979 -0.1296 -0.1028  0.6340
  173DOPC   H4X21132   1.411   2.843  13.959 -0.8103 -0.2516 -4.1968
  173DOPC   H4Y21133   1.254   2.776  13.924 -2.4288  0.5271  1.5959
  173DOPC   C3521134   1.260   2.884  14.122  1.1283  0.3242 -0.0077
  173DOPC   H5X21135   1.151   2.892  14.106  1.4666 -0.0646 -3.2533
  173DOPC   H5Y21136   1.302   2.980  14.158  1.3306 -0.1798  1.1476
  173DOPC   C3621137   1.286   2.769  14.215  0.1743  0.3499 -0.1654
  173DOPC   H6X21138   1.224   2.680  14.189  1.5209 -1.4490  2.3146
  173DOPC   H6Y21139   1.392   2.739  14.198 -0.0303 -0.1895 -0.5314
  173DOPC   C3721140   1.259   2.811  14.362 -0.6161 -0.2310  0.1509
  173DOPC   H7X21141   1.304   2.913  14.365 -1.6814  0.3783 -2.0172
  173DOPC   H7Y21142   1.153   2.826  14.390 -0.3540  2.4789 -0.0408
  173DOPC   C3821143   1.329   2.731  14.470  0.9986  0.2720 -1.1634
  173DOPC   H8X21144   1.435   2.702  14.453  0.7864 -1.1337 -0.2643
  173DOPC   H8Y21145   1.280   2.632  14.471 -0.9641  1.1947 -0.2038
  173DOPC   C3921146   1.317   2.803  14.600 -0.2176  0.4332  0.0524
  173DOPC   H9X21147   1.213   2.806  14.637 -0.0197 -1.1794  0.8055
  173DOPC  C31021148   1.418   2.861  14.664  0.1706  0.4624 -0.0717
  173DOPC  H10X21149   1.397   2.902  14.764 -1.1162 -1.1160  0.3562
  173DOPC  C31121150   1.569   2.861  14.635 -0.1147  0.5192 -0.6447
  173DOPC  H11X21151   1.592   2.907  14.536 -1.7288  2.7789 -0.0361
  173DOPC  H11Y21152   1.612   2.759  14.633 -2.4973 -0.5689 -0.0678
  173DOPC  C31221153   1.633   2.958  14.735 -0.7967 -0.4549  0.7157
  173DOPC  H12X21154   1.575   3.052  14.748  0.5425  0.2073  2.1788
  173DOPC  H12Y21155   1.734   2.994  14.707 -0.2109 -1.1760  1.8429
  173DOPC  C31321156   1.650   2.899  14.878  0.2028  0.0319  0.5612
  173DOPC  H13X21157   1.556   2.906  14.936  0.8536 -1.0257  1.7809
  173DOPC  H13Y21158   1.683   2.793  14.876 -1.4309 -0.4952  0.3356
  173DOPC  C31421159   1.756   2.975  14.954  0.1151 -0.3098  0.5173
  173DOPC  H14X21160   1.851   2.987  14.898  0.2764 -1.4580  0.5119
  173DOPC  H14Y21161   1.721   3.078  14.978 -0.5311 -0.7635  1.6264
  173DOPC  C31521162   1.797   2.910  15.085 -0.1013  0.2218  0.4744
  173DOPC  H15X21163   1.858   2.826  15.045  1.9476  2.9731 -2.8503
  173DOPC  H15Y21164   1.708   2.876  15.141  0.4964 -2.7234 -0.1766
  173DOPC  C31621165   1.895   3.002  15.171  0.4367  0.0832  0.1717
  173DOPC  H16X21166   1.991   3.021  15.120  0.1375  0.4539 -0.2602
  173DOPC  H16Y21167   1.838   3.097  15.175 -1.5952 -0.9962 -0.9122
  173DOPC  C31721168   1.920   2.955  15.307  0.8484  0.1221 -0.1453
  173DOPC  H17X21169   1.825   2.936  15.362  0.4681 -0.3908 -0.9781
  173DOPC  H17Y21170   1.980   2.863  15.293  0.7846  0.1187 -0.3819
  173DOPC  C31821171   2.002   3.046  15.402  0.2161  0.5170 -0.2619
  173DOPC  H18X21172   1.990   3.024  15.511  0.4763 -0.1556 -0.3632
  173DOPC  H18Y21173   2.111   3.043  15.379  0.0449 -1.3336 -1.0398
  173DOPC  H18Z21174   1.963   3.150  15.399 -0.7679  0.1407 -0.7838
  174DOPC     N21175   4.945   2.194  12.819  0.4110 -0.1534 -0.4951
  174DOPC   C1221176   5.005   2.181  12.957  0.4181  0.5066 -0.2193
  174DOPC  H12A21177   5.007   2.075  12.978 -0.1621  0.5292 -0.0319
  174DOPC  H12B21178   4.936   2.219  13.030 -0.8212 -1.8129 -0.0824
  174DOPC   C1321179   4.931   2.331  12.768  0.4934 -0.1409  0.1159
  174DOPC  H13A21180   5.026   2.383  12.777  1.0110 -0.4177 -2.7535
  174DOPC  H13B21181   4.892   2.328  12.667  1.1186  1.4255 -0.2114
  174DOPC  H13C21182   4.864   2.392  12.826 -0.4080  0.5205 -1.5490
  174DOPC   C1421183   4.809   2.127  12.816 -1.0176  0.2294 -0.4207
  174DOPC  H14A21184   4.738   2.191  12.866 -2.7078  1.4978 -4.1303
  174DOPC  H14B21185   4.770   2.119  12.716 -0.5491  1.4900 -0.7276
  174DOPC  H14C21186   4.813   2.029  12.861  0.8177  0.9978  1.2808
  174DOPC   C1521187   5.035   2.121  12.724 -0.0018 -0.0429 -0.0204
  174DOPC  H15A21188   5.129   2.174  12.716  0.3779 -0.7733 -0.5234
  174DOPC  H15B21189   4.996   2.122  12.624 -1.3022  1.8987  0.4569
  174DOPC  H15C21190   5.043   2.019  12.758 -3.1639 -0.6110 -0.7121
  174DOPC   C1121191   5.148   2.233  12.986 -0.4615  0.0103 -0.4965
  174DOPC  H11A21192   5.227   2.185  12.924 -0.8487  0.7588 -1.6083
  174DOPC  H11B21193   5.158   2.341  12.962  4.7394 -0.2860 -0.8850
  174DOPC     P21194   5.200   2.346  13.219  0.3977 -0.1493  0.2408
  174DOPC   O1321195   5.080   2.426  13.245  0.2071  0.0773  1.0764
  174DOPC   O1421196   5.311   2.419  13.154 -0.2778 -0.0804 -0.3145
  174DOPC   O1221197   5.164   2.218  13.130 -0.7362  0.0286  0.2967
  174DOPC   O1121198   5.237   2.294  13.361 -0.0474 -0.5922 -0.7073
  174DOPC    C121199   5.215   2.156  13.401 -0.5502 -0.0604 -0.4743
  174DOPC    HA21200   5.304   2.103  13.360  0.7123  0.8082  1.0049
  174DOPC    HB21201   5.116   2.113  13.375 -1.3639  0.6179  1.2904
  174DOPC    C221202   5.228   2.133  13.555  0.9673  0.7447 -0.1137
  174DOPC    HS21203   5.123   2.126  13.591  0.6268 -1.8226 -1.4033
  174DOPC   O2121204   5.294   2.245  13.620  0.1309 -0.2917  0.5129
  174DOPC   C2121205   5.211   2.346  13.645  0.0837  0.5569  0.5568
  174DOPC   O2221206   5.093   2.347  13.631 -0.0345 -0.2602  0.0369
  174DOPC   C2221207   5.287   2.463  13.695  0.1078 -0.0462  0.2951
  174DOPC   H2R21208   5.223   2.551  13.672 -0.0281  0.5944  2.8218
  174DOPC   H2S21209   5.382   2.484  13.641  0.8242  0.2978  1.6342
  174DOPC    C321210   5.296   1.989  13.583  0.2126 -0.3312 -0.2249
  174DOPC    HX21211   5.407   1.997  13.581  0.3859 -1.5353  1.7215
  174DOPC    HY21212   5.268   1.915  13.506  0.8275 -0.8434  0.0393
  174DOPC   O3121213   5.253   1.947  13.712  0.2479 -0.6875  0.0872
  174DOPC   C3121214   5.334   1.858  13.773  0.7401 -0.1878  0.1940
  174DOPC   O3221215   5.441   1.825  13.729 -0.5094 -0.1310 -0.4592
  174DOPC   C3221216   5.272   1.811  13.909 -0.4674  0.0263 -0.1819
  174DOPC   H2X21217   5.258   1.896  13.979  2.7390 -1.3096  2.3782
  174DOPC   H2Y21218   5.173   1.769  13.880 -2.3769  2.7338  1.8522
  174DOPC   C2321219   5.315   2.460  13.848 -0.6009  0.7316 -0.2063
  174DOPC   H3R21220   5.224   2.466  13.911 -0.6110  1.8486 -0.3104
  174DOPC   H3S21221   5.380   2.547  13.872  0.3050 -0.1156  0.4992
  174DOPC   C2421222   5.393   2.338  13.894  0.1193 -0.4090 -0.1694
  174DOPC   H4R21223   5.486   2.325  13.834 -0.3199 -0.4094 -0.8580
  174DOPC   H4S21224   5.333   2.247  13.875 -1.3095  0.6414 -0.8504
  174DOPC   C2521225   5.411   2.337  14.046  0.1803 -0.7961 -1.0174
  174DOPC   H5R21226   5.466   2.429  14.073 -0.2118 -0.7390 -0.3755
  174DOPC   H5S21227   5.477   2.249  14.061  0.8571 -0.1953 -0.3899
  174DOPC   C2621228   5.286   2.339  14.146  0.6490  0.6142  1.0120
  174DOPC   H6R21229   5.213   2.263  14.112  0.0697  1.6746 -0.2215
  174DOPC   H6S21230   5.238   2.439  14.140  1.2985  0.8752  0.0131
  174DOPC   C2721231   5.321   2.318  14.288  0.1946 -0.4695  0.1779
  174DOPC   H7R21232   5.385   2.398  14.331  1.2617 -3.1243  4.0361
  174DOPC   H7S21233   5.380   2.226  14.306 -0.9113 -0.9197  1.7351
  174DOPC   C2821234   5.199   2.293  14.376 -0.6504 -0.2414  0.1791
  174DOPC   H8R21235   5.238   2.255  14.473  0.5309  2.3917  0.8432
  174DOPC   H8S21236   5.134   2.221  14.322  2.0646 -1.2793 -1.9387
  174DOPC   C2921237   5.129   2.419  14.411 -0.1668 -0.5537  0.3963
  174DOPC   H9R21238   5.177   2.482  14.487  1.5054  2.1725 -2.6209
  174DOPC  C21021239   5.012   2.464  14.362 -0.0735 -0.0493 -1.1145
  174DOPC  H10R21240   4.986   2.562  14.404 -0.7828 -0.6118 -0.2142
  174DOPC  C21121241   4.922   2.405  14.266 -0.3695  0.4776  0.2580
  174DOPC  H11R21242   4.824   2.404  14.319 -0.2489  0.7588  0.4863
  174DOPC  H11S21243   4.949   2.301  14.239  1.2534  0.5695  1.4012
  174DOPC  C21221244   4.906   2.490  14.143 -0.1429 -0.5633  0.6876
  174DOPC  H12R21245   4.996   2.490  14.077 -1.0402  0.9830 -0.6167
  174DOPC  H12S21246   4.894   2.599  14.161 -0.7412 -0.2667 -1.2082
  174DOPC  C21321247   4.787   2.459  14.052  0.0817  0.0765 -0.3343
  174DOPC  H13R21248   4.693   2.506  14.090 -0.4814 -0.5727 -0.8956
  174DOPC  H13S21249   4.775   2.348  14.061  0.8197  0.0951  1.2584
  174DOPC  C21421250   4.810   2.505  13.908  0.1042  0.1016 -0.2714
  174DOPC  H14R21251   4.912   2.484  13.868  0.0152  0.6250 -0.7945
  174DOPC  H14S21252   4.784   2.613  13.898 -0.1192  0.1218  0.4498
  174DOPC  C21521253   4.715   2.428  13.814 -0.3404  0.1494 -0.0898
  174DOPC  H15R21254   4.609   2.418  13.846 -0.7934  0.7240 -1.3527
  174DOPC  H15S21255   4.736   2.320  13.831 -2.9029 -0.5007 -0.5828
  174DOPC  C21621256   4.734   2.464  13.666 -0.4377  0.3010 -0.1010
  174DOPC  H16R21257   4.697   2.369  13.621 -0.6337 -0.6318  1.9006
  174DOPC  H16S21258   4.841   2.476  13.640 -0.4898  2.4014  0.4881
  174DOPC  C21721259   4.662   2.591  13.623  0.0733 -0.1661 -0.6891
  174DOPC  H17R21260   4.709   2.684  13.661  1.5211 -0.8436 -0.7694
  174DOPC  H17S21261   4.560   2.583  13.667  0.0203  2.2316 -0.2588
  174DOPC  C21821262   4.655   2.613  13.469 -0.3009  0.4765  0.7375
  174DOPC  H18R21263   4.757   2.614  13.425 -1.4437  0.9156 -2.1214
  174DOPC  H18S21264   4.607   2.710  13.445  1.0876  1.0479  0.1629
  174DOPC  H18T21265   4.611   2.528  13.412  0.2197  0.2661  0.6427
  174DOPC   C3321266   5.360   1.705  13.991  0.1928 -0.1063 -0.8035
  174DOPC   H3X21267   5.398   1.633  13.916  0.2621  0.8029 -1.6580
  174DOPC   H3Y21268   5.308   1.648  14.071 -0.1099  0.3016 -0.7071
  174DOPC   C3421269   5.477   1.765  14.064 -0.5576 -0.4360  0.0274
  174DOPC   H4X21270   5.446   1.846  14.133  0.3752 -0.1009  0.0692
  174DOPC   H4Y21271   5.553   1.800  13.990 -2.1950 -2.0640 -2.5884
  174DOPC   C3521272   5.549   1.659  14.142 -0.8490 -0.2913  0.1085
  174DOPC   H5X21273   5.563   1.570  14.077  0.3968  0.1226 -0.2069
  174DOPC   H5Y21274   5.506   1.627  14.240 -1.7281 -0.3107 -0.2734
  174DOPC   C3621275   5.695   1.718  14.180 -0.0573  0.2611 -0.0347
  174DOPC   H6X21276   5.751   1.731  14.084  2.0333 -0.1268  1.0755
  174DOPC   H6Y21277   5.687   1.814  14.235  0.6224 -0.3969  1.2608
  174DOPC   C3721278   5.769   1.623  14.271  0.3013  0.3351  0.1568
  174DOPC   H7X21279   5.780   1.525  14.219 -1.4699  0.8688 -1.3212
  174DOPC   H7Y21280   5.876   1.654  14.262 -0.1420  1.4083 -2.0144
  174DOPC   C3821281   5.715   1.616  14.412 -0.5181  0.6120  0.2587
  174DOPC   H8X21282   5.611   1.576  14.418 -0.0541 -0.5463  0.9350
  174DOPC   H8Y21283   5.717   1.720  14.450 -1.4619  0.5366  0.5459
  174DOPC   C3921284   5.819   1.536  14.490  0.3460 -0.0182 -0.4693
  174DOPC   H9X21285   5.808   1.429  14.464 -1.0665 -0.4223  1.6001
  174DOPC  C31021286   5.927   1.577  14.567 -0.4854  1.0872  0.5503
  174DOPC  H10X21287   6.002   1.504  14.601  0.4784  0.4514 -2.6186
  174DOPC  C31121288   5.962   1.715  14.598  0.6595 -0.4871 -0.8213
  174DOPC  H11X21289   5.897   1.790  14.549  0.7822  0.5337  0.4951
  174DOPC  H11Y21290   6.066   1.735  14.564  0.6597  0.4677 -0.3151
  174DOPC  C31221291   5.944   1.750  14.745 -0.0293  0.3686  0.4419
  174DOPC  H12X21292   5.938   1.857  14.774 -0.0927 -0.1792  2.5661
  174DOPC  H12Y21293   6.033   1.698  14.785 -0.1544 -0.7583 -0.6630
  174DOPC  C31321294   5.817   1.692  14.816 -0.4380 -0.7161  0.0488
  174DOPC  H13X21295   5.727   1.747  14.784 -0.2152 -1.2349 -1.5431
  174DOPC  H13Y21296   5.795   1.585  14.797 -0.6902 -1.2431  2.8151
  174DOPC  C31421297   5.824   1.715  14.970 -0.0530 -0.2833  0.1673
  174DOPC  H14X21298   5.896   1.641  15.011  3.4845  1.5344 -2.2184
  174DOPC  H14Y21299   5.865   1.818  14.981  2.3549 -0.9590 -1.6584
  174DOPC  C31521300   5.679   1.688  15.022  0.3968 -0.3102 -0.1404
  174DOPC  H15X21301   5.627   1.607  14.967 -0.5520  1.4297 -1.9311
  174DOPC  H15Y21302   5.611   1.775  15.010  1.3620  0.3982 -0.6193
  174DOPC  C31621303   5.668   1.673  15.173 -0.3527 -0.5236 -0.2959
  174DOPC  H16X21304   5.730   1.584  15.199  0.2796 -0.1572 -0.5375
  174DOPC  H16Y21305   5.712   1.763  15.222  1.9119 -1.4362 -0.5134
  174DOPC  C31721306   5.528   1.650  15.226  0.1640  0.2160  0.0196
  174DOPC  H17X21307   5.478   1.559  15.187 -0.4681  0.4092  0.3794
  174DOPC  H17Y21308   5.535   1.636  15.335  0.3510 -0.7296 -0.1100
  174DOPC  C31821309   5.426   1.760  15.199  0.0885  0.0375 -0.5491
  174DOPC  H18X21310   5.465   1.861  15.226  1.6270 -0.6630 -0.0367
  174DOPC  H18Y21311   5.397   1.761  15.092 -0.2485 -1.6447 -0.5020
  174DOPC  H18Z21312   5.338   1.745  15.264 -1.2358  3.5361 -1.2849
  175DOPC     N21313   2.961   5.743  12.729 -0.5651  0.3895 -0.4411
  175DOPC   C1221314   2.894   5.730  12.866  0.6940  0.9911 -0.4141
  175DOPC  H12A21315   2.848   5.633  12.876  1.1127  0.6866 -1.3304
  175DOPC  H12B21316   2.804   5.791  12.863 -2.0159 -2.6799 -0.8074
  175DOPC   C1321317   3.019   5.883  12.717 -0.1106 -0.2477  0.4015
  175DOPC  H13A21318   2.944   5.951  12.756  0.3008 -0.1828  1.0940
  175DOPC  H13B21319   3.114   5.892  12.767  0.1699 -0.2359 -0.1294
  175DOPC  H13C21320   3.042   5.919  12.618 -1.1390  1.7899  0.8316
  175DOPC   C1421321   2.848   5.727  12.634  0.0906  0.3201 -0.6707
  175DOPC  H14A21322   2.766   5.789  12.669  0.2010 -0.4657  1.1266
  175DOPC  H14B21323   2.862   5.757  12.532 -0.6664 -1.6988 -1.4372
  175DOPC  H14C21324   2.816   5.624  12.620 -2.7717  1.1832 -1.1008
  175DOPC   C1521325   3.064   5.640  12.695  0.4302 -0.0403 -0.6763
  175DOPC  H15A21326   3.153   5.648  12.757  0.9258  1.1326 -1.5023
  175DOPC  H15B21327   3.094   5.637  12.592  0.6967 -1.1064 -0.5801
  175DOPC  H15C21328   3.036   5.537  12.715  0.0639  0.1174 -0.3543
  175DOPC   C1121329   2.971   5.769  12.997  0.5682 -0.4632 -0.0503
  175DOPC  H11A21330   3.016   5.869  12.985  0.8504 -0.3341  1.7989
  175DOPC  H11B21331   2.903   5.785  13.084  0.6166  0.7274 -0.2239
  175DOPC     P21332   3.031   5.537  13.076 -0.3830 -0.0387  0.3650
  175DOPC   O1321333   3.078   5.433  12.979 -0.4573  0.1940 -0.2675
  175DOPC   O1421334   2.889   5.527  13.106  0.0423 -0.1041  0.0988
  175DOPC   O1221335   3.074   5.678  13.027  0.2854 -0.1310 -0.3448
  175DOPC   O1121336   3.109   5.514  13.216  0.2684  0.4605  0.1599
  175DOPC    C121337   3.037   5.536  13.337  1.2443  0.2689  0.2039
  175DOPC    HA21338   3.090   5.487  13.422 -0.9462  0.8383  2.0216
  175DOPC    HB21339   2.937   5.487  13.334  2.6001 -2.6811 -0.2849
  175DOPC    C221340   3.020   5.691  13.363 -0.5210 -0.0657 -0.5143
  175DOPC    HS21341   2.961   5.736  13.280 -1.5928  1.3160  0.9505
  175DOPC   O2121342   3.153   5.753  13.361  0.5266  0.4022  0.2584
  175DOPC   C2121343   3.155   5.881  13.323 -0.6603 -0.7382  0.2214
  175DOPC   O2221344   3.062   5.936  13.274 -0.0506 -0.4654 -0.7463
  175DOPC   C2221345   3.291   5.934  13.344 -0.5362 -1.1671  0.4197
  175DOPC   H2R21346   3.369   5.856  13.331 -3.4836 -4.2019 -0.4300
  175DOPC   H2S21347   3.282   5.977  13.446 -3.6238  2.7735 -1.2298
  175DOPC    C321348   2.939   5.715  13.493 -1.1081  0.0650  0.1803
  175DOPC    HX21349   2.846   5.657  13.477 -0.9393  0.1680 -1.2686
  175DOPC    HY21350   2.913   5.822  13.504 -0.5301  0.1769  0.5411
  175DOPC   O3121351   3.010   5.667  13.613  0.1676  0.4279  0.1545
  175DOPC   C3121352   3.095   5.748  13.670 -0.1327 -0.4612 -0.3380
  175DOPC   O3221353   3.130   5.860  13.631 -0.2447  0.3471  0.1254
  175DOPC   C3221354   3.146   5.679  13.797 -0.1025  0.4488  0.2082
  175DOPC   H2X21355   3.079   5.687  13.884  1.5234  1.5972  1.4246
  175DOPC   H2Y21356   3.136   5.569  13.780 -1.4243  0.7447 -1.1457
  175DOPC   C2321357   3.313   6.063  13.264  0.0865 -0.2273 -0.4718
  175DOPC   H3R21358   3.233   6.139  13.282 -2.1575 -2.6729  0.4328
  175DOPC   H3S21359   3.308   6.034  13.157  1.0401  1.4528 -1.0146
  175DOPC   C2421360   3.437   6.154  13.279 -0.6820  0.2018  0.2148
  175DOPC   H4R21361   3.413   6.240  13.214 -0.8463  0.1772  0.2401
  175DOPC   H4S21362   3.527   6.096  13.250 -1.3599 -0.0497 -1.4779
  175DOPC   C2521363   3.447   6.212  13.418 -0.1711  0.0927 -0.6193
  175DOPC   H5R21364   3.352   6.220  13.474 -0.4401 -1.8381 -0.7628
  175DOPC   H5S21365   3.465   6.322  13.408  1.3602  0.2295  2.4237
  175DOPC   C2621366   3.560   6.145  13.509 -0.3698 -0.4077 -0.3244
  175DOPC   H6R21367   3.663   6.180  13.486  0.1175 -1.5873  0.0051
  175DOPC   H6S21368   3.557   6.039  13.478  0.7728  0.2853 -3.0974
  175DOPC   C2721369   3.538   6.161  13.657 -0.2023 -0.3743  0.6051
  175DOPC   H7R21370   3.508   6.265  13.684  2.4535  0.3237  1.1707
  175DOPC   H7S21371   3.638   6.143  13.702 -0.2454  0.8505  1.2395
  175DOPC   C2821372   3.446   6.048  13.715 -0.1195  0.0909  0.2443
  175DOPC   H8R21373   3.488   5.949  13.688  2.9257  0.9568  1.3863
  175DOPC   H8S21374   3.347   6.075  13.672 -0.3216 -1.4917 -0.3545
  175DOPC   C2921375   3.447   6.064  13.864 -0.0324  0.0312  0.5869
  175DOPC   H9R21376   3.533   6.016  13.913 -0.8779 -0.6700  1.3991
  175DOPC  C21021377   3.353   6.127  13.938  0.7572  0.3000 -0.4133
  175DOPC  H10R21378   3.362   6.125  14.048  1.7977 -3.8889 -0.4024
  175DOPC  C21121379   3.233   6.206  13.889 -0.2346 -0.1750  0.1044
  175DOPC  H11R21380   3.137   6.151  13.896  0.7670 -2.0609 -0.2863
  175DOPC  H11S21381   3.240   6.233  13.781 -3.2081  0.8286  0.0483
  175DOPC  C21221382   3.215   6.330  13.981 -0.1215 -0.4310 -0.6194
  175DOPC  H12R21383   3.308   6.390  13.992 -2.2656  2.7633  2.1606
  175DOPC  H12S21384   3.179   6.296  14.080  0.3290 -0.4968 -0.4758
  175DOPC  C21321385   3.118   6.434  13.923  0.2126  0.2132  0.3806
  175DOPC  H13R21386   3.158   6.457  13.822  0.7525  1.2226  0.8059
  175DOPC  H13S21387   3.121   6.526  13.985  1.1057  0.5415 -0.1240
  175DOPC  C21421388   2.973   6.380  13.912  0.7436  0.4402  1.2649
  175DOPC  H14R21389   2.972   6.298  13.837  0.8983  1.1986  0.4266
  175DOPC  H14S21390   2.902   6.460  13.883 -0.1976 -1.0956 -0.9782
  175DOPC  C21521391   2.915   6.323  14.042 -0.2113 -0.6369  0.0899
  175DOPC  H15R21392   2.979   6.239  14.078  0.6461 -0.5254 -1.1188
  175DOPC  H15S21393   2.814   6.279  14.025 -1.1497  1.6472 -0.5535
  175DOPC  C21621394   2.896   6.431  14.149 -0.0647  0.6895 -0.1677
  175DOPC  H16R21395   2.828   6.513  14.117 -1.3331 -0.0401  0.5786
  175DOPC  H16S21396   2.994   6.481  14.161  0.0367  0.4605 -0.0372
  175DOPC  C21721397   2.848   6.366  14.277 -0.1349 -0.2761  0.4285
  175DOPC  H17R21398   2.935   6.352  14.344 -0.9280 -2.2163  1.1527
  175DOPC  H17S21399   2.807   6.263  14.263 -1.7030  0.5893 -1.9967
  175DOPC  C21821400   2.740   6.455  14.348 -0.4992  0.1529  0.0185
  175DOPC  H18R21401   2.722   6.412  14.449  0.8330  0.9137  0.6121
  175DOPC  H18S21402   2.655   6.458  14.277  1.0967  0.5813 -1.9516
  175DOPC  H18T21403   2.784   6.555  14.371 -1.0137  0.1220  1.2032
  175DOPC   C3321404   3.292   5.723  13.839  1.0877 -0.0998  0.6774
  175DOPC   H3X21405   3.306   5.833  13.835  0.0988  0.0104 -1.9624
  175DOPC   H3Y21406   3.366   5.674  13.772  0.3371  1.2673 -1.2347
  175DOPC   C3421407   3.316   5.689  13.990 -0.2455 -0.6850 -0.4165
  175DOPC   H4X21408   3.290   5.588  14.028  3.4567 -0.4591  3.3530
  175DOPC   H4Y21409   3.253   5.757  14.051  0.2845 -2.1331  1.8605
  175DOPC   C3521410   3.456   5.719  14.035 -0.0046 -0.2166 -0.5243
  175DOPC   H5X21411   3.484   5.811  13.978  1.3525 -0.9936 -1.1721
  175DOPC   H5Y21412   3.527   5.634  14.020 -0.3132 -0.6630  0.5177
  175DOPC   C3621413   3.479   5.767  14.183 -0.5374  0.4099  0.2492
  175DOPC   H6X21414   3.588   5.787  14.180 -0.2960 -0.8803 -0.1469
  175DOPC   H6Y21415   3.420   5.859  14.202 -0.5397  0.0584  2.1569
  175DOPC   C3721416   3.456   5.662  14.292 -0.7733  0.1686  0.0625
  175DOPC   H7X21417   3.349   5.633  14.301 -0.8385  0.7251  1.1708
  175DOPC   H7Y21418   3.516   5.582  14.243  1.3052  2.3279 -1.1677
  175DOPC   C3821419   3.517   5.708  14.424 -0.4667  0.9587  1.1021
  175DOPC   H8X21420   3.621   5.732  14.393 -1.0007  1.5608 -0.3049
  175DOPC   H8Y21421   3.509   5.622  14.494 -1.0062 -0.6379 -0.7843
  175DOPC   C3921422   3.465   5.835  14.473  0.2299 -0.0185  0.3708
  175DOPC   H9X21423   3.490   5.921  14.409  0.7882 -0.8592 -0.5598
  175DOPC  C31021424   3.385   5.861  14.573 -0.3888 -0.2847  0.8845
  175DOPC  H10X21425   3.355   5.966  14.588 -1.0355 -0.3654  0.2187
  175DOPC  C31121426   3.320   5.762  14.672  0.2378  0.7847  0.8974
  175DOPC  H11X21427   3.288   5.669  14.620  2.0215  1.5819 -1.8954
  175DOPC  H11Y21428   3.226   5.805  14.712 -0.1844  0.4103  0.3172
  175DOPC  C31221429   3.403   5.734  14.799  0.3514 -0.6657  0.1124
  175DOPC  H12X21430   3.342   5.658  14.853 -0.6118  0.8608  1.2647
  175DOPC  H12Y21431   3.411   5.825  14.864 -2.3906 -0.3794  0.1772
  175DOPC  C31321432   3.536   5.661  14.778  0.0753 -0.2206  0.4892
  175DOPC  H13X21433   3.520   5.569  14.719  2.1593 -0.9510  0.9711
  175DOPC  H13Y21434   3.602   5.730  14.721 -0.6841 -1.1165 -1.5629
  175DOPC  C31421435   3.588   5.623  14.917 -0.0496 -0.2635  0.4690
  175DOPC  H14X21436   3.546   5.692  14.994 -1.0524 -1.5571  1.1498
  175DOPC  H14Y21437   3.548   5.520  14.933  0.2733 -0.2574  1.3783
  175DOPC  C31521438   3.744   5.624  14.947  0.6528 -0.0155 -0.7378
  175DOPC  H15X21439   3.784   5.726  14.931  0.7518 -0.0083 -0.4542
  175DOPC  H15Y21440   3.792   5.555  14.874 -3.7941 -3.0169 -1.2364
  175DOPC  C31621441   3.784   5.600  15.093 -0.6371 -0.0825 -0.4386
  175DOPC  H16X21442   3.724   5.667  15.158  0.9139  1.9574 -0.9976
  175DOPC  H16Y21443   3.774   5.496  15.130  1.4006  0.1053  0.8150
  175DOPC  C31721444   3.931   5.647  15.106 -0.7179 -0.1729 -0.2507
  175DOPC  H17X21445   3.995   5.574  15.052 -0.6595 -0.7043  0.5223
  175DOPC  H17Y21446   3.939   5.740  15.047  0.6637  0.7418  1.2843
  175DOPC  C31821447   3.989   5.663  15.248  0.1876 -0.1820  0.0064
  175DOPC  H18X21448   3.961   5.759  15.297  0.4345 -0.1755  0.1373
  175DOPC  H18Y21449   3.955   5.577  15.310 -0.0546 -0.3073 -0.3007
  175DOPC  H18Z21450   4.100   5.668  15.252  0.1072  2.1118  2.0458
  176DOPC     N21451   2.536   2.439  12.977  0.3685  0.1035 -0.6198
  176DOPC   C1221452   2.507   2.355  13.108 -0.0539  0.1681  0.1965
  176DOPC  H12A21453   2.407   2.317  13.092 -0.2367 -0.2591  2.0366
  176DOPC  H12B21454   2.486   2.425  13.188  0.2099  1.5507 -0.8941
  176DOPC   C1321455   2.671   2.510  12.989  0.1694 -0.0964  0.4694
  176DOPC  H13A21456   2.751   2.437  12.981  0.7003  0.5254 -0.0017
  176DOPC  H13B21457   2.685   2.580  12.908 -1.1183  2.1007  2.0583
  176DOPC  H13C21458   2.681   2.548  13.090  2.0508  2.0753 -0.4402
  176DOPC   C1421459   2.434   2.547  12.969 -0.1471  0.2144  0.0508
  176DOPC  H14A21460   2.443   2.614  13.053 -1.6140  0.1831  0.2670
  176DOPC  H14B21461   2.445   2.608  12.880 -1.1476  0.4342  0.0720
  176DOPC  H14C21462   2.333   2.509  12.964 -0.3492  0.4892  1.6714
  176DOPC   C1521463   2.522   2.361  12.858 -0.9054  0.5562  0.8324
  176DOPC  H15A21464   2.615   2.311  12.834 -1.5224  1.0779 -3.3877
  176DOPC  H15B21465   2.500   2.417  12.768  3.0833 -0.4349 -0.9874
  176DOPC  H15C21466   2.447   2.285  12.872 -0.4833  0.0846  0.5744
  176DOPC   C1121467   2.615   2.251  13.139  0.7905 -0.4981  0.1514
  176DOPC  H11A21468   2.717   2.297  13.137  0.1540  0.9632 -0.6160
  176DOPC  H11B21469   2.599   2.222  13.244  1.1777  0.0615  0.3733
  176DOPC     P21470   2.512   2.021  13.064  0.0325 -0.0210  0.2859
  176DOPC   O1321471   2.579   1.898  13.012  0.5175  0.0517  0.3336
  176DOPC   O1421472   2.380   2.059  13.004 -0.6526 -0.1505 -0.4701
  176DOPC   O1221473   2.612   2.140  13.046  0.2047 -0.2403 -0.2538
  176DOPC   O1121474   2.501   2.023  13.221 -0.0534  0.6766 -0.0206
  176DOPC    C121475   2.425   1.905  13.273 -0.0458  0.2044 -0.0332
  176DOPC    HA21476   2.498   1.828  13.306  0.0539  0.9765  1.6383
  176DOPC    HB21477   2.349   1.860  13.205 -0.3359 -0.7280  0.8798
  176DOPC    C221478   2.342   1.945  13.399  0.0722  0.7555  0.1308
  176DOPC    HS21479   2.242   1.987  13.372 -1.4155 -0.3376  3.4189
  176DOPC   O2121480   2.415   2.035  13.480  0.1367 -0.2150  0.2071
  176DOPC   C2121481   2.401   2.163  13.447 -0.1111 -0.0038 -0.1571
  176DOPC   O2221482   2.318   2.207  13.369 -0.4160  0.1876  0.8223
  176DOPC   C2221483   2.490   2.248  13.540 -0.4241 -0.1034 -0.1694
  176DOPC   H2R21484   2.577   2.263  13.473 -0.9079  0.8979 -0.5877
  176DOPC   H2S21485   2.523   2.187  13.627  3.2972  1.2943 -0.4298
  176DOPC    C321486   2.311   1.815  13.490 -0.1734  0.1049  0.5730
  176DOPC    HX21487   2.250   1.741  13.433 -0.2559  1.2549 -0.8890
  176DOPC    HY21488   2.232   1.849  13.561 -0.3586  1.2560 -0.1611
  176DOPC   O3121489   2.421   1.757  13.559  0.0781  0.6750 -0.3263
  176DOPC   C3121490   2.440   1.626  13.541 -0.5464 -0.0409 -0.1362
  176DOPC   O3221491   2.370   1.556  13.468  0.0280 -0.2389  0.2622
  176DOPC   C3221492   2.561   1.580  13.620  0.3918 -0.4032  0.4086
  176DOPC   H2X21493   2.646   1.635  13.574 -0.8858  0.3618 -1.1315
  176DOPC   H2Y21494   2.546   1.619  13.724 -2.5091  0.9285 -0.3959
  176DOPC   C2321495   2.432   2.388  13.579  0.5450  0.3210  0.1711
  176DOPC   H3R21496   2.392   2.439  13.489 -1.3094 -1.7186 -0.2407
  176DOPC   H3S21497   2.514   2.456  13.612 -0.1086  0.3250  1.8552
  176DOPC   C2421498   2.320   2.382  13.683 -0.4907 -0.2449  0.2865
  176DOPC   H4R21499   2.234   2.322  13.646 -0.8034 -0.1662  0.8643
  176DOPC   H4S21500   2.283   2.486  13.691  0.6710  0.2330 -0.3636
  176DOPC   C2521501   2.365   2.330  13.817 -0.2776 -0.3341  0.2060
  176DOPC   H5R21502   2.473   2.354  13.831 -0.7131  0.9423  1.6593
  176DOPC   H5S21503   2.368   2.220  13.825  1.3545 -0.6143 -2.6108
  176DOPC   C2621504   2.297   2.392  13.941 -0.1455 -0.3626 -0.8564
  176DOPC   H6R21505   2.333   2.497  13.935 -0.8889 -0.0449  0.0191
  176DOPC   H6S21506   2.337   2.361  14.040  0.4549  0.6609 -0.7614
  176DOPC   C2721507   2.142   2.382  13.933 -0.4825  0.4641  0.2345
  176DOPC   H7R21508   2.121   2.275  13.915  0.3915  0.2421  0.4999
  176DOPC   H7S21509   2.103   2.429  13.840  0.3692 -0.3371 -0.5506
  176DOPC   C2821510   2.060   2.431  14.058 -0.5974  0.5455 -0.1576
  176DOPC   H8R21511   2.111   2.370  14.136 -0.0998  2.6583  1.2782
  176DOPC   H8S21512   1.959   2.387  14.040  0.2004 -2.6877  2.3427
  176DOPC   C2921513   2.074   2.576  14.076 -0.3148  0.4064  0.2503
  176DOPC   H9R21514   2.070   2.637  13.985 -1.0349 -1.9626 -1.4095
  176DOPC  C21021515   2.097   2.632  14.192  0.6181 -0.5133 -0.2936
  176DOPC  H10R21516   2.118   2.740  14.183  0.6062 -0.5227 -0.4379
  176DOPC  C21121517   2.106   2.573  14.330  0.4982  1.0735 -1.0766
  176DOPC  H11R21518   2.071   2.468  14.332 -1.6248  1.7277  0.8359
  176DOPC  H11S21519   2.037   2.625  14.400  2.6585  0.2174  1.8759
  176DOPC  C21221520   2.232   2.593  14.414 -0.2971 -0.2189 -0.4792
  176DOPC  H12R21521   2.250   2.703  14.404 -1.2481 -0.1487 -1.6910
  176DOPC  H12S21522   2.320   2.547  14.364 -0.2740  0.6209 -1.2585
  176DOPC  C21321523   2.207   2.561  14.561  0.1667 -0.4530  0.5766
  176DOPC  H13R21524   2.219   2.450  14.562 -1.3748 -0.6810 -1.0504
  176DOPC  H13S21525   2.104   2.591  14.591  0.9751  4.0445 -0.4919
  176DOPC  C21421526   2.305   2.624  14.661 -0.2445  0.3550  0.5606
  176DOPC  H14R21527   2.331   2.726  14.629  2.0259 -0.1669  0.5883
  176DOPC  H14S21528   2.401   2.569  14.651 -0.2461  0.3855  0.3788
  176DOPC  C21521529   2.249   2.610  14.802 -0.1786 -0.1200  0.6237
  176DOPC  H15R21530   2.242   2.503  14.831  2.4295 -0.2568  1.0312
  176DOPC  H15S21531   2.150   2.660  14.801 -0.6893 -1.0817 -0.4929
  176DOPC  C21621532   2.341   2.675  14.910  0.0883  0.2057  0.0977
  176DOPC  H16R21533   2.341   2.784  14.891 -0.2447  0.2096  0.1237
  176DOPC  H16S21534   2.442   2.634  14.886 -0.0978  0.4869 -1.2609
  176DOPC  C21721535   2.295   2.650  15.054  0.6520 -0.9981  0.1227
  176DOPC  H17R21536   2.191   2.687  15.060  0.4894 -1.3850 -0.2988
  176DOPC  H17S21537   2.356   2.714  15.121  0.7341 -1.4199  0.4556
  176DOPC  C21821538   2.303   2.503  15.108  0.2441 -0.4643 -0.2818
  176DOPC  H18R21539   2.393   2.459  15.060  2.0701  0.1881  2.3164
  176DOPC  H18S21540   2.213   2.445  15.079 -0.3446 -0.4069  1.3338
  176DOPC  H18T21541   2.316   2.505  15.218 -0.2342  1.5600 -0.2123
  176DOPC   C3321542   2.570   1.425  13.614  0.2505  0.4507  0.9043
  176DOPC   H3X21543   2.549   1.384  13.513 -1.7011 -1.0444  1.8619
  176DOPC   H3Y21544   2.481   1.386  13.667  1.1454  1.2112  3.0857
  176DOPC   C3421545   2.702   1.358  13.666  0.0055 -0.5166  1.1020
  176DOPC   H4X21546   2.791   1.406  13.621 -1.2093  0.7919  0.0056
  176DOPC   H4Y21547   2.705   1.251  13.634 -3.2327 -0.6281  0.8031
  176DOPC   C3521548   2.710   1.371  13.817 -0.0130  0.2507  0.0408
  176DOPC   H5X21549   2.622   1.320  13.863  1.5381 -2.3741  0.2701
  176DOPC   H5Y21550   2.702   1.475  13.856 -0.7136  0.7307 -1.2979
  176DOPC   C3621551   2.832   1.304  13.868 -0.1823  0.4567  0.2272
  176DOPC   H6X21552   2.860   1.211  13.816 -0.7197 -0.1856  1.0595
  176DOPC   H6Y21553   2.923   1.365  13.847 -0.8449  1.5200  0.3417
  176DOPC   C3721554   2.825   1.267  14.019 -0.3507 -0.2634  0.2060
  176DOPC   H7X21555   2.926   1.255  14.064  1.4061  3.4834 -2.2159
  176DOPC   H7Y21556   2.790   1.362  14.065  0.0889  0.8110 -1.5979
  176DOPC   C3821557   2.732   1.142  14.049 -0.4606  0.0172 -0.3154
  176DOPC   H8X21558   2.636   1.172  14.003  0.0767  1.1260 -0.7576
  176DOPC   H8Y21559   2.712   1.118  14.155  1.3757  0.7974  0.2654
  176DOPC   C3921560   2.789   1.014  13.985 -0.2981  0.2527 -0.9722
  176DOPC   H9X21561   2.788   1.009  13.875 -1.3479  1.2278 -1.0357
  176DOPC  C31021562   2.828   0.902  14.052 -0.5674 -0.0729 -0.0545
  176DOPC  H10X21563   2.878   0.820  13.998  0.0404 -0.8265  1.5611
  176DOPC  C31121564   2.831   0.873  14.205  0.0024 -0.3321 -0.2210
  176DOPC  H11X21565   2.818   0.972  14.255  1.5342  1.3191 -2.8214
  176DOPC  H11Y21566   2.938   0.857  14.230  0.0221 -0.1138 -0.1626
  176DOPC  C31221567   2.736   0.770  14.269 -0.5574  0.2346 -0.1996
  176DOPC  H12X21568   2.744   0.786  14.379 -0.5156 -1.7737  0.1286
  176DOPC  H12Y21569   2.761   0.664  14.247 -0.7381  0.2816 -0.6305
  176DOPC  C31321570   2.585   0.791  14.243  0.0901  0.2106  0.6259
  176DOPC  H13X21571   2.564   0.826  14.140  0.0824 -0.2282  0.4740
  176DOPC  H13Y21572   2.534   0.694  14.263  2.4559 -1.0088  1.1177
  176DOPC  C31421573   2.527   0.906  14.335  0.4517  1.3663 -0.2351
  176DOPC  H14X21574   2.529   0.862  14.437  0.3630  0.3655 -0.6580
  176DOPC  H14Y21575   2.591   0.997  14.339  0.5992  1.3867 -2.3090
  176DOPC  C31521576   2.382   0.938  14.293  1.2739 -0.0741  0.5414
  176DOPC  H15X21577   2.344   0.848  14.239 -2.6648  1.3289  0.6043
  176DOPC  H15Y21578   2.392   1.019  14.218  2.0759 -1.6397 -1.1299
  176DOPC  C31621579   2.275   0.977  14.394  0.0998  0.1122 -0.6250
  176DOPC  H16X21580   2.282   0.885  14.457  1.6549 -2.2560 -3.9325
  176DOPC  H16Y21581   2.314   1.069  14.443 -1.7803 -0.1421  1.5022
  176DOPC  C31721582   2.127   0.985  14.350 -0.1559  0.2794 -0.7709
  176DOPC  H17X21583   2.070   1.022  14.438  0.3776 -0.6970  0.0036
  176DOPC  H17Y21584   2.124   1.054  14.263  2.1224  1.7257  0.2002
  176DOPC  C31821585   2.067   0.846  14.322 -0.5663 -0.0995 -0.1332
  176DOPC  H18X21586   1.957   0.858  14.311 -0.6242  0.6039  1.0832
  176DOPC  H18Y21587   2.107   0.797  14.230  0.5378 -1.6116  1.0993
  176DOPC  H18Z21588   2.079   0.777  14.409  0.4361  0.7849  0.4520
  177DOPC     N21589   4.857   5.735  13.042 -0.5551 -0.5623 -0.3597
  177DOPC   C1221590   4.731   5.696  12.978  0.6190 -0.2474 -0.3593
  177DOPC  H12A21591   4.751   5.609  12.917  1.1366  0.1789 -0.8084
  177DOPC  H12B21592   4.706   5.775  12.910  1.5352  1.5056  1.2526
  177DOPC   C1321593   4.830   5.870  13.109 -0.3680 -0.0471 -0.8419
  177DOPC  H13A21594   4.818   5.961  13.052 -0.2923  1.7020  1.7862
  177DOPC  H13B21595   4.741   5.861  13.169 -2.0430  0.5984 -3.1146
  177DOPC  H13C21596   4.909   5.909  13.171  0.3844 -1.5591 -0.7844
  177DOPC   C1421597   4.960   5.762  12.939  0.2367  0.5143  0.9724
  177DOPC  H14A21598   4.960   5.864  12.901  0.1072  1.1581  2.6282
  177DOPC  H14B21599   5.060   5.761  12.978  0.7043  1.1028 -0.1736
  177DOPC  H14C21600   4.958   5.691  12.858  1.0944  0.3171  1.1147
  177DOPC   C1521601   4.902   5.626  13.134 -0.3732  0.0911 -0.1738
  177DOPC  H15A21602   4.996   5.652  13.180  0.4369 -0.6252 -1.3491
  177DOPC  H15B21603   4.922   5.531  13.086  0.5418  0.8339 -1.2948
  177DOPC  H15C21604   4.832   5.611  13.215  0.6747 -1.0244  0.5871
  177DOPC   C1121605   4.601   5.669  13.062 -0.9073  0.0950  0.2344
  177DOPC  H11A21606   4.533   5.624  12.988 -1.1316  2.4450 -1.0970
  177DOPC  H11B21607   4.609   5.604  13.153  2.1447 -1.1290 -0.7658
  177DOPC     P21608   4.420   5.824  13.163  0.4093  0.0920  0.0496
  177DOPC   O1321609   4.405   5.749  13.291  0.4999  0.2718 -0.5135
  177DOPC   O1421610   4.317   5.817  13.058  0.2390  0.4574 -0.0999
  177DOPC   O1221611   4.559   5.794  13.094 -0.2363 -0.0537 -0.7418
  177DOPC   O1121612   4.419   5.977  13.201 -0.4031 -0.4173 -0.4284
  177DOPC    C121613   4.523   6.065  13.240 -1.1641  0.4700 -0.2280
  177DOPC    HA21614   4.486   6.169  13.250  0.6329  1.2166 -0.8924
  177DOPC    HB21615   4.599   6.067  13.159 -0.5331 -4.1403 -0.0037
  177DOPC    C221616   4.600   6.012  13.368  0.5097  0.6076  0.6365
  177DOPC    HS21617   4.639   5.912  13.340  0.5063  1.0885 -1.1890
  177DOPC   O2121618   4.511   5.993  13.472  0.4645  0.0737 -0.7891
  177DOPC   C2121619   4.546   5.907  13.561 -0.1715  0.3074 -0.1036
  177DOPC   O2221620   4.648   5.834  13.555 -0.2339 -0.0920  0.4804
  177DOPC   C2221621   4.437   5.890  13.665  0.8479 -0.1727  0.5024
  177DOPC   H2R21622   4.340   5.895  13.611 -1.3764 -2.1542  3.9265
  177DOPC   H2S21623   4.445   5.969  13.743  1.7381 -0.2975  0.5457
  177DOPC    C321624   4.709   6.118  13.408  0.6494 -0.3048 -0.1974
  177DOPC    HX21625   4.665   6.220  13.414  0.8326 -0.1375 -1.4827
  177DOPC    HY21626   4.777   6.115  13.320  0.9761 -2.8311  0.0590
  177DOPC   O3121627   4.780   6.087  13.529  0.2159 -0.1527 -0.0653
  177DOPC   C3121628   4.895   6.024  13.506  0.2323 -0.0483 -0.0732
  177DOPC   O3221629   4.950   6.008  13.399 -0.0594 -0.6841  0.4655
  177DOPC   C3221630   4.947   5.972  13.638 -0.2379  0.5036  0.4169
  177DOPC   H2X21631   4.943   6.058  13.708 -0.5234  1.4382 -0.7166
  177DOPC   H2Y21632   4.888   5.886  13.676  2.5503 -0.2183  3.5575
  177DOPC   C2321633   4.448   5.751  13.733 -0.3517 -0.1111  0.1516
  177DOPC   H3R21634   4.551   5.726  13.765  0.4869  2.9025  0.0854
  177DOPC   H3S21635   4.416   5.674  13.660 -0.8721  0.2525 -0.0161
  177DOPC   C2421636   4.362   5.745  13.858 -0.2100  0.4990  0.0550
  177DOPC   H4R21637   4.256   5.767  13.835 -0.5377 -1.8765 -0.9922
  177DOPC   H4S21638   4.404   5.811  13.937  0.1349 -0.3127  0.5632
  177DOPC   C2521639   4.356   5.599  13.912  0.5177 -0.4158 -0.4043
  177DOPC   H5R21640   4.459   5.569  13.943  0.7064  0.9490  0.3777
  177DOPC   H5S21641   4.328   5.543  13.820  0.2687  0.5362 -0.9269
  177DOPC   C2621642   4.258   5.577  14.022  0.0658 -0.7115  0.5663
  177DOPC   H6R21643   4.158   5.607  13.984 -0.3442 -2.2669  0.3197
  177DOPC   H6S21644   4.288   5.634  14.113 -0.9228 -1.0244  1.0999
  177DOPC   C2721645   4.257   5.426  14.058 -0.0342 -0.4288  0.0814
  177DOPC   H7R21646   4.359   5.407  14.098  1.2352  0.5751 -2.4626
  177DOPC   H7S21647   4.251   5.367  13.964  0.3173  1.3918 -1.1499
  177DOPC   C2821648   4.138   5.379  14.147 -0.7520 -0.3136 -0.4079
  177DOPC   H8R21649   4.169   5.398  14.252  1.2779 -0.0819 -1.0010
  177DOPC   H8S21650   4.147   5.269  14.147 -1.0124 -0.3720  1.8208
  177DOPC   C2921651   4.004   5.426  14.096 -0.6635  0.4785 -0.1147
  177DOPC   H9R21652   3.980   5.381  13.999 -1.7115 -0.9680  0.7876
  177DOPC  C21021653   3.913   5.496  14.167 -0.0991  0.5451  0.2786
  177DOPC  H10R21654   3.815   5.513  14.119  0.1623  0.0501 -0.4449
  177DOPC  C21121655   3.921   5.538  14.309  0.6004  0.2879  0.5119
  177DOPC  H11R21656   4.010   5.499  14.363  0.1696  0.0743  1.0731
  177DOPC  H11S21657   3.827   5.504  14.358  0.0986 -0.6736 -1.0178
  177DOPC  C21221658   3.917   5.688  14.321 -0.4643 -0.1998 -0.7018
  177DOPC  H12R21659   3.835   5.730  14.259 -1.0808 -0.9470 -0.4059
  177DOPC  H12S21660   4.009   5.734  14.279 -1.1702  2.0223  0.0309
  177DOPC  C21321661   3.909   5.745  14.465 -0.2035  0.0525 -0.0805
  177DOPC  H13R21662   3.823   5.696  14.514  1.5030 -2.1267  0.9436
  177DOPC  H13S21663   3.880   5.852  14.454 -0.8224 -0.2464 -1.5944
  177DOPC  C21421664   4.043   5.732  14.536  0.3002  0.1195  0.3463
  177DOPC  H14R21665   4.126   5.747  14.464 -0.8063 -0.2905 -1.0586
  177DOPC  H14S21666   4.046   5.624  14.562 -2.0402  0.6971  3.7054
  177DOPC  C21521667   4.050   5.815  14.661  0.2094 -0.0070  0.2267
  177DOPC  H15R21668   3.948   5.821  14.704  0.1257 -1.8336  0.3550
  177DOPC  H15S21669   4.077   5.916  14.622 -0.1186 -0.9141 -2.5853
  177DOPC  C21621670   4.163   5.769  14.759  0.2354 -0.4474  0.0186
  177DOPC  H16R21671   4.128   5.664  14.773 -1.2622 -0.3235 -2.2602
  177DOPC  H16S21672   4.150   5.828  14.852 -1.0784  0.4014 -0.6686
  177DOPC  C21721673   4.304   5.786  14.692  0.1670 -0.2392  0.2340
  177DOPC  H17R21674   4.322   5.895  14.677  1.9664 -0.5515 -0.1031
  177DOPC  H17S21675   4.306   5.731  14.595  1.4615 -0.7784  0.5511
  177DOPC  C21821676   4.415   5.722  14.770  0.1743  0.5139  0.0212
  177DOPC  H18R21677   4.426   5.767  14.871 -1.4118 -1.0220  0.9427
  177DOPC  H18S21678   4.514   5.728  14.719  0.5358  0.5911  0.7266
  177DOPC  H18T21679   4.386   5.617  14.790 -2.2732  1.2821  0.8274
  177DOPC   C3321680   5.095   5.929  13.613 -0.0105 -0.2790  0.2914
  177DOPC   H3X21681   5.147   5.945  13.710  1.1996  1.3240 -0.5770
  177DOPC   H3Y21682   5.151   6.001  13.551 -2.3443  0.9994 -0.4768
  177DOPC   C3421683   5.124   5.790  13.559  0.0609  0.3845  0.1178
  177DOPC   H4X21684   5.107   5.787  13.449  1.0461 -2.3003 -0.0419
  177DOPC   H4Y21685   5.049   5.719  13.601  0.8102 -1.0738 -0.9342
  177DOPC   C3521686   5.264   5.740  13.592  0.1805  0.3090  0.1356
  177DOPC   H5X21687   5.346   5.807  13.557  0.9213 -0.8027 -0.3118
  177DOPC   H5Y21688   5.281   5.644  13.539  1.5419 -0.0429  1.1488
  177DOPC   C3621689   5.309   5.703  13.738 -0.4462 -0.5836 -0.2314
  177DOPC   H6X21690   5.300   5.795  13.800 -0.6673  0.6907 -2.0607
  177DOPC   H6Y21691   5.252   5.615  13.774 -0.8756 -0.7863 -1.3583
  177DOPC   C3721692   5.455   5.658  13.734  0.4880  0.5878  0.4566
  177DOPC   H7X21693   5.465   5.592  13.645  0.8519  1.1741  0.0549
  177DOPC   H7Y21694   5.522   5.744  13.714 -0.2463  0.8020 -1.2200
  177DOPC   C3821695   5.504   5.589  13.857 -0.0620 -0.1943 -1.2670
  177DOPC   H8X21696   5.426   5.519  13.893 -0.6250  1.8176  1.8548
  177DOPC   H8Y21697   5.512   5.664  13.939 -0.3203  0.1483 -1.5477
  177DOPC   C3921698   5.636   5.517  13.840  0.3633 -0.1972  0.2579
  177DOPC   H9X21699   5.726   5.580  13.842 -0.3919  1.1058 -2.3445
  177DOPC  C31021700   5.656   5.387  13.840 -0.0681 -0.0311 -0.3878
  177DOPC  H10X21701   5.757   5.343  13.828 -0.8074 -3.3727  3.4285
  177DOPC  C31121702   5.558   5.279  13.854  0.3347 -0.2042  0.0900
  177DOPC  H11X21703   5.553   5.224  13.759  0.1806 -0.8632  0.4753
  177DOPC  H11Y21704   5.460   5.323  13.882  0.4848  0.6666 -0.6963
  177DOPC  C31221705   5.592   5.166  13.947 -0.0114  0.0262 -0.3368
  177DOPC  H12X21706   5.579   5.197  14.053  0.6460  0.7655 -0.4627
  177DOPC  H12Y21707   5.698   5.139  13.931  0.1435  1.0413 -1.0949
  177DOPC  C31321708   5.503   5.047  13.922  0.2159  0.0519  0.1253
  177DOPC  H13X21709   5.511   5.017  13.815  1.6184 -1.6128  0.6383
  177DOPC  H13Y21710   5.553   4.963  13.975 -0.7263 -1.0063 -0.6239
  177DOPC  C31421711   5.355   5.054  13.964  0.3330 -0.9107 -0.8440
  177DOPC  H14X21712   5.306   5.143  13.919 -0.7890 -1.1033 -0.0496
  177DOPC  H14Y21713   5.298   4.961  13.942 -0.6050 -0.5287 -0.1086
  177DOPC  C31521714   5.342   5.079  14.113 -0.0178 -0.0324 -0.1892
  177DOPC  H15X21715   5.233   5.085  14.131 -0.0499 -0.1218 -0.3565
  177DOPC  H15Y21716   5.377   5.178  14.149  2.2618 -1.4288  1.6765
  177DOPC  C31621717   5.402   4.970  14.199  0.0375  0.8269  0.0058
  177DOPC  H16X21718   5.382   4.878  14.139 -0.0134  0.7938  0.0740
  177DOPC  H16Y21719   5.512   4.981  14.205  0.0125  0.5904  0.9853
  177DOPC  C31721720   5.353   4.958  14.345  0.2209  0.4470 -0.0762
  177DOPC  H17X21721   5.405   4.876  14.398 -0.3430 -0.4465 -0.8428
  177DOPC  H17Y21722   5.367   5.061  14.382 -1.5043  0.9043 -0.5762
  177DOPC  C31821723   5.198   4.924  14.355 -0.7111 -0.4292  0.0080
  177DOPC  H18X21724   5.166   4.907  14.460  2.9317  1.0784  1.5632
  177DOPC  H18Y21725   5.134   5.005  14.314 -3.1961 -2.2147  0.1593
  177DOPC  H18Z21726   5.186   4.824  14.308 -1.9336 -0.2084 -0.1821
  178DOPC     N21727   2.113   5.706  12.866 -0.7284  0.0811 -0.5744
  178DOPC   C1221728   2.091   5.795  12.987  0.3493 -0.0484  0.0763
  178DOPC  H12A21729   2.009   5.863  12.965 -0.7027 -1.1573  0.4383
  178DOPC  H12B21730   2.173   5.866  12.990  1.0472 -0.8338 -0.1387
  178DOPC   C1321731   2.254   5.648  12.871  0.7242  0.7791 -1.0968
  178DOPC  H13A21732   2.284   5.583  12.951  1.3865  3.1920  0.7303
  178DOPC  H13B21733   2.270   5.591  12.781 -0.8209  0.4987 -1.2265
  178DOPC  H13C21734   2.332   5.723  12.866  3.1533 -1.5962 -1.0047
  178DOPC   C1421735   2.104   5.781  12.740 -0.4360  0.4345  0.1578
  178DOPC  H14A21736   2.119   5.718  12.654 -0.0528  1.1552 -0.3122
  178DOPC  H14B21737   2.001   5.814  12.733 -0.7353  0.3331  2.8505
  178DOPC  H14C21738   2.170   5.866  12.733  1.7192 -1.1509 -0.0140
  178DOPC   C1521739   2.011   5.598  12.863 -0.3165  0.9606  0.0665
  178DOPC  H15A21740   2.032   5.520  12.935 -1.9139  0.9369  0.5423
  178DOPC  H15B21741   2.001   5.551  12.766 -0.3054 -1.4484  1.1480
  178DOPC  H15C21742   1.910   5.634  12.876 -0.9738 -1.0543  1.1148
  178DOPC   C1121743   2.073   5.729  13.124  0.5488 -0.5301  0.8801
  178DOPC  H11A21744   2.076   5.823  13.183 -0.7706  0.8535 -1.1395
  178DOPC  H11B21745   1.968   5.693  13.124  0.4760 -0.4892 -1.8831
  178DOPC     P21746   2.149   5.496  13.216  0.2297 -0.2701 -0.0211
  178DOPC   O1321747   2.279   5.441  13.259 -0.3939 -0.2396 -0.2022
  178DOPC   O1421748   2.077   5.417  13.116  0.1328  0.0065  0.0524
  178DOPC   O1221749   2.176   5.640  13.158  0.1239 -0.5415  0.1332
  178DOPC   O1121750   2.054   5.536  13.335 -0.1140  0.1024 -0.3387
  178DOPC    C121751   2.072   5.639  13.437 -0.5292  0.1757 -0.4285
  178DOPC    HA21752   1.984   5.641  13.505 -1.4517 -0.8654 -1.5176
  178DOPC    HB21753   2.072   5.740  13.392 -1.6213  1.1911  1.7214
  178DOPC    C221754   2.204   5.630  13.521 -0.7991 -0.2160 -0.1812
  178DOPC    HS21755   2.295   5.638  13.457  1.6685  3.1758  3.2779
  178DOPC   O2121756   2.203   5.509  13.600  0.0300 -0.1626 -0.3786
  178DOPC   C2121757   2.311   5.455  13.657  0.6379  0.0490  0.5155
  178DOPC   O2221758   2.427   5.484  13.627 -0.1149  0.0967 -0.4902
  178DOPC   C2221759   2.261   5.339  13.739  0.0141 -0.3262 -0.0431
  178DOPC   H2R21760   2.275   5.244  13.683  1.0117 -0.6853  0.7945
  178DOPC   H2S21761   2.153   5.355  13.763  0.0734  0.7553 -0.4390
  178DOPC    C321762   2.206   5.753  13.614  0.0980  0.5522 -0.5031
  178DOPC    HX21763   2.116   5.762  13.679  2.3379  1.2153  2.7003
  178DOPC    HY21764   2.221   5.830  13.536  1.0446  1.1941  0.2979
  178DOPC   O3121765   2.319   5.750  13.700  0.0981  0.1366 -0.7213
  178DOPC   C3121766   2.434   5.785  13.652 -0.3743  0.5923  0.0299
  178DOPC   O3221767   2.466   5.809  13.536 -0.0873 -0.0180  0.0827
  178DOPC   C3221768   2.529   5.799  13.774 -0.6606 -0.3563 -0.0583
  178DOPC   H2X21769   2.477   5.873  13.839  0.5188 -1.2487  1.9825
  178DOPC   H2Y21770   2.543   5.702  13.825 -1.5877 -0.5043 -0.0613
  178DOPC   C2321771   2.335   5.343  13.881 -0.2194  0.1929 -0.2973
  178DOPC   H3R21772   2.444   5.330  13.861  0.1149  1.4671  0.5401
  178DOPC   H3S21773   2.306   5.253  13.940 -1.0533  2.1943  2.5502
  178DOPC   C2421774   2.306   5.476  13.960 -0.2952 -0.0183 -0.6456
  178DOPC   H4R21775   2.224   5.459  14.033  0.8098  0.2222  0.6959
  178DOPC   H4S21776   2.272   5.557  13.892  2.6912  0.2059 -2.0299
  178DOPC   C2521777   2.430   5.526  14.042 -0.0792  0.2300 -0.4374
  178DOPC   H5R21778   2.518   5.512  13.976 -0.6983  1.0030 -1.4687
  178DOPC   H5S21779   2.439   5.454  14.126 -2.0134  0.2856 -0.1306
  178DOPC   C2621780   2.421   5.670  14.102 -0.1285 -0.8673 -0.1990
  178DOPC   H6R21781   2.425   5.734  14.012  2.3737 -2.1451 -1.1026
  178DOPC   H6S21782   2.507   5.695  14.168  0.5661 -2.0446 -0.6256
  178DOPC   C2721783   2.293   5.704  14.179  0.3304  0.3976 -0.0906
  178DOPC   H7R21784   2.204   5.688  14.114 -0.4466  1.2741  0.7220
  178DOPC   H7S21785   2.290   5.813  14.198 -1.9738  0.2023  1.0517
  178DOPC   C2821786   2.274   5.635  14.315 -0.5589 -0.3926  0.0971
  178DOPC   H8R21787   2.193   5.697  14.360  0.7007  1.3642  0.0322
  178DOPC   H8S21788   2.367   5.650  14.374  0.7012  2.1065 -2.3396
  178DOPC   C2921789   2.239   5.488  14.324  0.2805  0.4194 -0.4120
  178DOPC   H9R21790   2.131   5.475  14.308  0.3349  2.0986 -2.7521
  178DOPC  C21021791   2.314   5.383  14.344  0.9121 -0.0839 -0.5949
  178DOPC  H10R21792   2.265   5.285  14.341 -0.0721  0.3791 -0.1598
  178DOPC  C21121793   2.463   5.373  14.365  0.2640  0.4402 -0.2955
  178DOPC  H11R21794   2.503   5.450  14.296 -0.5451 -1.0421 -2.5496
  178DOPC  H11S21795   2.487   5.276  14.317 -1.1646 -0.2081  0.2465
  178DOPC  C21221796   2.520   5.381  14.515 -0.8234 -0.2011 -0.4799
  178DOPC  H12R21797   2.456   5.454  14.571  0.3944  1.2837 -0.9434
  178DOPC  H12S21798   2.615   5.433  14.494 -1.7929  1.6294 -0.5875
  178DOPC  C21321799   2.534   5.249  14.582 -1.0455  0.0047  0.5746
  178DOPC  H13R21800   2.584   5.187  14.504 -0.3331 -1.4819  2.1625
  178DOPC  H13S21801   2.432   5.207  14.599 -2.0619  2.7090  1.6840
  178DOPC  C21421802   2.616   5.248  14.713  0.9174 -0.1803  0.0021
  178DOPC  H14R21803   2.557   5.307  14.786  0.4484 -1.3962  0.6232
  178DOPC  H14S21804   2.705   5.311  14.692 -1.1071  2.8380 -0.1379
  178DOPC  C21521805   2.653   5.111  14.770 -0.3853 -0.3771 -0.2677
  178DOPC  H15R21806   2.684   5.045  14.686 -1.2773 -0.5604 -0.4582
  178DOPC  H15S21807   2.568   5.060  14.819  0.2767 -0.4254  0.8623
  178DOPC  C21621808   2.770   5.130  14.871 -0.4226  0.1415  0.0450
  178DOPC  H16R21809   2.744   5.200  14.953  0.6809  1.7203 -0.8870
  178DOPC  H16S21810   2.855   5.174  14.814 -0.3216  0.9379  0.7932
  178DOPC  C21721811   2.816   4.993  14.921  0.1047  0.3720  1.0066
  178DOPC  H17R21812   2.726   4.929  14.933  0.5289 -0.3375  0.4811
  178DOPC  H17S21813   2.868   4.997  15.020 -1.1467 -0.7534  1.7464
  178DOPC  C21821814   2.908   4.915  14.821 -0.8676 -0.0047  0.2364
  178DOPC  H18R21815   2.863   4.901  14.721 -1.4169  1.0399  0.3185
  178DOPC  H18S21816   2.934   4.819  14.870  1.2857 -2.1949 -4.6111
  178DOPC  H18T21817   3.006   4.967  14.815 -0.1365 -1.4599 -1.3841
  178DOPC   C3321818   2.666   5.851  13.732 -0.1217  0.0113  0.1216
  178DOPC   H3X21819   2.656   5.954  13.691  1.3999  0.0089 -0.3205
  178DOPC   H3Y21820   2.706   5.779  13.657 -0.8209 -0.5790  0.2973
  178DOPC   C3421821   2.762   5.851  13.849  0.8462 -0.1369  0.9991
  178DOPC   H4X21822   2.861   5.878  13.807  0.4245 -2.4136 -1.7856
  178DOPC   H4Y21823   2.770   5.748  13.890  1.7666 -1.3223 -1.8603
  178DOPC   C3521824   2.719   5.962  13.951 -0.2425 -0.1053 -0.5385
  178DOPC   H5X21825   2.608   5.959  13.965 -0.0555  1.2643  1.8649
  178DOPC   H5Y21826   2.735   6.063  13.907 -0.1731 -0.5155 -1.4842
  178DOPC   C3621827   2.796   5.954  14.086 -0.4232  0.4731  0.0165
  178DOPC   H6X21828   2.895   5.994  14.054 -0.0177 -1.5762 -1.5577
  178DOPC   H6Y21829   2.753   6.016  14.167 -1.1656 -0.8570  0.6691
  178DOPC   C3721830   2.805   5.816  14.149  0.3051  0.1455  0.6601
  178DOPC   H7X21831   2.717   5.755  14.121  0.9387 -1.3379  1.7812
  178DOPC   H7Y21832   2.889   5.764  14.098 -1.2547 -1.2551 -0.5896
  178DOPC   C3821833   2.828   5.812  14.304 -0.5383  0.1341  0.3811
  178DOPC   H8X21834   2.807   5.712  14.348 -1.1620 -0.6310 -1.5761
  178DOPC   H8Y21835   2.743   5.863  14.356 -3.3267 -1.0993 -2.5765
  178DOPC   C3921836   2.964   5.874  14.335 -0.4307  0.2057  0.4907
  178DOPC   H9X21837   3.039   5.834  14.265 -0.5432  0.9224 -0.0504
  178DOPC  C31021838   2.996   5.958  14.429 -0.1808 -0.6312 -0.0359
  178DOPC  H10X21839   3.100   5.991  14.443 -0.1315 -1.1861  1.0230
  178DOPC  C31121840   2.897   6.020  14.530  0.6704  0.0685  0.0371
  178DOPC  H11X21841   2.801   5.965  14.519  0.0919  0.8357  1.0839
  178DOPC  H11Y21842   2.866   6.122  14.501  0.6596 -0.0049 -0.2127
  178DOPC  C31221843   2.919   6.033  14.682 -0.6294 -0.5895  0.3641
  178DOPC  H12X21844   2.945   5.930  14.715 -2.4289 -1.3132 -0.3363
  178DOPC  H12Y21845   2.824   6.074  14.722 -0.2841  2.9590 -1.9445
  178DOPC  C31321846   3.033   6.125  14.705 -0.4518 -0.1139  0.0746
  178DOPC  H13X21847   3.116   6.084  14.644 -1.0153  0.2908 -0.9941
  178DOPC  H13Y21848   3.010   6.224  14.661 -2.1563 -0.4360  0.1674
  178DOPC  C31421849   3.066   6.152  14.854  0.4062  0.1245  0.2237
  178DOPC  H14X21850   2.973   6.192  14.900  0.2744 -0.7432  0.7262
  178DOPC  H14Y21851   3.094   6.054  14.899  0.2461 -0.3908 -0.7704
  178DOPC  C31521852   3.180   6.253  14.862  0.5125  0.6021  0.1983
  178DOPC  H15X21853   3.150   6.345  14.807  2.1852  0.8629 -0.3285
  178DOPC  H15Y21854   3.265   6.214  14.802 -0.0983 -2.3243  1.0527
  178DOPC  C31621855   3.218   6.292  15.005  0.7859 -0.5574 -0.2794
  178DOPC  H16X21856   3.280   6.383  14.990 -0.8077  0.7070  0.4667
  178DOPC  H16Y21857   3.125   6.328  15.054  0.0537  0.3528 -2.2211
  178DOPC  C31721858   3.282   6.182  15.089 -0.0117  0.2457  0.0793
  178DOPC  H17X21859   3.212   6.097  15.095 -0.2387  0.5378  2.3005
  178DOPC  H17Y21860   3.379   6.158  15.041  0.0595 -1.9343  1.1966
  178DOPC  C31821861   3.312   6.221  15.230  0.0996  0.2334  0.1965
  178DOPC  H18X21862   3.212   6.226  15.278  0.2222  3.4578  0.3384
  178DOPC  H18Y21863   3.384   6.145  15.267  2.0936  1.5104 -0.8648
  178DOPC  H18Z21864   3.356   6.322  15.232  0.0528  0.2414  0.8778
  179DOPC     N21865   6.303   4.870  12.924  0.1609  0.0164  0.1062
  179DOPC   C1221866   6.351   4.819  13.061 -0.2532 -0.2210  0.0558
  179DOPC  H12A21867   6.379   4.715  13.060 -0.4997 -0.3125  1.1763
  179DOPC  H12B21868   6.269   4.834  13.130  0.2950 -0.6405  0.8144
  179DOPC   C1321869   6.186   4.792  12.872  0.2667 -0.7452 -0.0675
  179DOPC  H13A21870   6.211   4.688  12.881  0.8559 -0.7047 -1.0387
  179DOPC  H13B21871   6.101   4.817  12.934 -1.5008 -1.1540 -2.1902
  179DOPC  H13C21872   6.171   4.810  12.766  0.6846  2.8301  0.3452
  179DOPC   C1421873   6.405   4.858  12.815  0.2936  0.2633 -0.8707
  179DOPC  H14A21874   6.490   4.923  12.828 -0.6436  1.6425 -1.4394
  179DOPC  H14B21875   6.449   4.760  12.804 -1.4266 -0.2136 -5.7597
  179DOPC  H14C21876   6.366   4.890  12.720 -1.5062  2.0220  0.3550
  179DOPC   C1521877   6.252   5.005  12.951 -0.4192  0.8821 -0.1512
  179DOPC  H15A21878   6.331   5.069  12.988  0.8235 -0.4539 -0.4092
  179DOPC  H15B21879   6.175   5.018  13.026  1.1657  1.0291  1.5132
  179DOPC  H15C21880   6.230   5.054  12.857 -2.2696 -2.3784 -1.6070
  179DOPC   C1121881   6.469   4.892  13.131 -0.2309  0.0542  0.1308
  179DOPC  H11A21882   6.497   4.835  13.222 -2.1293 -0.6076  0.3447
  179DOPC  H11B21883   6.558   4.888  13.065  0.0799 -1.4693  0.6081
  179DOPC     P21884   6.497   5.087  13.297 -0.1272 -0.0076 -0.0288
  179DOPC   O1321885   6.415   5.210  13.321 -0.3901  0.2246  0.0076
  179DOPC   O1421886   6.642   5.096  13.270 -0.6156 -0.1069  0.9293
  179DOPC   O1221887   6.436   5.020  13.171  0.2533 -0.4099  0.4307
  179DOPC   O1121888   6.476   4.989  13.418 -0.1393 -0.4572 -0.2053
  179DOPC    C121889   6.349   4.941  13.465 -1.7644  0.4884 -0.4088
  179DOPC    HA21890   6.372   4.837  13.498 -0.2561  0.5299 -1.2502
  179DOPC    HB21891   6.271   4.941  13.386  0.1368  0.2049 -2.3968
  179DOPC    C221892   6.303   5.022  13.597 -0.1822 -0.2646  0.3671
  179DOPC    HS21893   6.306   5.122  13.547  2.7690 -0.7141 -0.5483
  179DOPC   O2121894   6.400   4.999  13.700  0.3649 -0.2479  0.3120
  179DOPC   C2121895   6.487   5.093  13.730  0.1464 -0.5503  0.2829
  179DOPC   O2221896   6.490   5.203  13.679 -0.0243  0.4266  0.0473
  179DOPC   C2221897   6.591   5.034  13.822  0.4898 -0.5870  0.0184
  179DOPC   H2R21898   6.686   5.036  13.765  0.7015  1.1498  0.3616
  179DOPC   H2S21899   6.576   4.927  13.846  1.1419 -0.6510  0.1660
  179DOPC    C321900   6.167   4.973  13.638 -0.0303 -0.2211 -0.7959
  179DOPC    HX21901   6.169   4.873  13.687 -1.2122 -0.8027 -1.8628
  179DOPC    HY21902   6.101   4.960  13.549  0.2911  1.9259 -1.4198
  179DOPC   O3121903   6.107   5.066  13.732  0.6236  0.6958 -0.0842
  179DOPC   C3121904   6.144   5.050  13.861 -0.2769  0.1206  0.4690
  179DOPC   O3221905   6.235   4.979  13.905  0.9129  0.4233 -0.0111
  179DOPC   C3221906   6.049   5.136  13.951  0.1107  0.1739  0.2014
  179DOPC   H2X21907   6.018   5.221  13.887  0.4728  0.1535 -0.0040
  179DOPC   H2Y21908   5.971   5.074  14.001 -1.7275  1.7802 -0.5513
  179DOPC   C2321909   6.613   5.123  13.954  0.0808 -0.3713  0.1355
  179DOPC   H3R21910   6.515   5.154  13.997  0.4001 -1.8147  2.0724
  179DOPC   H3S21911   6.675   5.211  13.929 -1.7663  0.8964 -0.1698
  179DOPC   C2421912   6.681   5.057  14.066 -0.4082  0.0158  0.4224
  179DOPC   H4R21913   6.783   5.023  14.036 -0.8856  0.5363 -2.0225
  179DOPC   H4S21914   6.625   4.963  14.083 -0.9146  0.1155 -0.6256
  179DOPC   C2521915   6.692   5.135  14.207  0.6068  1.4313 -0.0572
  179DOPC   H5R21916   6.766   5.218  14.191  1.9708 -0.0248 -1.7451
  179DOPC   H5S21917   6.743   5.070  14.281  1.6995 -1.9136 -3.4463
  179DOPC   C2621918   6.556   5.184  14.264 -0.4366  0.0732  0.0528
  179DOPC   H6R21919   6.497   5.251  14.198 -0.3501  0.4231  0.3276
  179DOPC   H6S21920   6.579   5.245  14.355 -0.8343 -0.1861  0.3290
  179DOPC   C2721921   6.472   5.056  14.295 -0.3588 -0.4631  0.2024
  179DOPC   H7R21922   6.538   4.986  14.351 -0.2874 -0.6859 -0.1570
  179DOPC   H7S21923   6.440   5.005  14.201 -0.2444 -1.5593  0.7398
  179DOPC   C2821924   6.348   5.089  14.372  0.5017 -0.6625 -0.4130
  179DOPC   H8R21925   6.289   5.164  14.314  0.9784 -0.0176 -0.0722
  179DOPC   H8S21926   6.379   5.138  14.466 -1.2644 -0.3055  0.0240
  179DOPC   C2921927   6.257   4.973  14.403 -0.0614  0.5407 -0.5590
  179DOPC   H9R21928   6.235   4.911  14.315  1.1748 -1.2589  0.3285
  179DOPC  C21021929   6.227   4.926  14.532 -0.1462 -0.3683  0.0119
  179DOPC  H10R21930   6.169   4.833  14.530 -2.7983  1.1328  0.8424
  179DOPC  C21121931   6.280   4.980  14.666  0.8116  0.0877 -0.0331
  179DOPC  H11R21932   6.217   4.963  14.756  0.4912  2.3348  0.2256
  179DOPC  H11S21933   6.304   5.088  14.655  0.5943  0.4217  2.1908
  179DOPC  C21221934   6.421   4.906  14.694  0.8751 -0.9111  0.6744
  179DOPC  H12R21935   6.485   4.957  14.769  0.1596  1.2632 -0.1288
  179DOPC  H12S21936   6.480   4.921  14.601 -0.2883  0.3993  0.1142
  179DOPC  C21321937   6.403   4.754  14.723  0.8279 -0.7343  0.1212
  179DOPC  H13R21938   6.509   4.722  14.722  0.7057 -1.2865  1.5506
  179DOPC  H13S21939   6.340   4.704  14.646 -1.0012  0.7385  0.5845
  179DOPC  C21421940   6.347   4.713  14.861 -0.2603  0.2844  0.4313
  179DOPC  H14R21941   6.238   4.727  14.845 -0.3236 -0.0324  0.5821
  179DOPC  H14S21942   6.374   4.785  14.941  2.6045  0.3577 -0.4613
  179DOPC  C21521943   6.375   4.565  14.897 -0.5245  0.6512  0.1457
  179DOPC  H15R21944   6.485   4.555  14.886 -0.4440  1.2075  0.4046
  179DOPC  H15S21945   6.336   4.500  14.816  0.3232 -1.1157  1.1083
  179DOPC  C21621946   6.323   4.510  15.029  1.1560 -0.2153 -0.4716
  179DOPC  H16R21947   6.364   4.573  15.111  0.3086 -1.5485  1.0333
  179DOPC  H16S21948   6.360   4.407  15.046  1.6363  0.3274  2.0705
  179DOPC  C21721949   6.176   4.520  15.039  0.6631  0.2297  0.2900
  179DOPC  H17R21950   6.131   4.497  14.940  0.7590  1.6301 -0.0995
  179DOPC  H17S21951   6.149   4.627  15.056 -0.0671  0.6401 -2.9092
  179DOPC  C21821952   6.108   4.429  15.140 -0.2199 -0.4830  0.3131
  179DOPC  H18R21953   6.116   4.462  15.246 -1.2209 -0.9572  0.5537
  179DOPC  H18S21954   6.142   4.324  15.129 -0.4380 -0.5682  0.4459
  179DOPC  H18T21955   5.998   4.427  15.127 -0.5798 -1.0605  2.8215
  179DOPC   C3321956   6.132   5.197  14.067 -0.1843 -0.2164 -0.4554
  179DOPC   H3X21957   6.205   5.267  14.021  0.1244 -0.4229 -0.2838
  179DOPC   H3Y21958   6.204   5.125  14.111  0.1365  0.7713  0.7167
  179DOPC   C3421959   6.057   5.235  14.195 -0.2240 -0.8606  0.6707
  179DOPC   H4X21960   6.113   5.303  14.263 -1.5035 -2.2208  3.2422
  179DOPC   H4Y21961   6.029   5.143  14.251 -2.2619 -0.3243  0.5876
  179DOPC   C3521962   5.931   5.318  14.157  0.4854  0.0474 -0.0314
  179DOPC   H5X21963   5.870   5.270  14.078 -1.8430  0.3176  1.4962
  179DOPC   H5Y21964   5.973   5.407  14.106  0.4072 -0.4238 -0.9300
  179DOPC   C3621965   5.836   5.371  14.271 -0.3797 -0.0901 -0.1602
  179DOPC   H6X21966   5.896   5.418  14.352 -2.4330 -1.2585  2.1488
  179DOPC   H6Y21967   5.769   5.449  14.228 -0.7593 -0.8498 -0.9870
  179DOPC   C3721968   5.756   5.256  14.325  0.1695 -0.7533  0.4069
  179DOPC   H7X21969   5.700   5.212  14.240  0.4084 -3.5725  1.6017
  179DOPC   H7Y21970   5.818   5.176  14.371 -0.0051 -1.4272 -0.5044
  179DOPC   C3821971   5.643   5.305  14.421 -0.2571 -0.1351 -0.8452
  179DOPC   H8X21972   5.554   5.239  14.407 -0.5853  0.3564 -1.1066
  179DOPC   H8Y21973   5.611   5.402  14.376  1.4027  0.5514 -0.6021
  179DOPC   C3921974   5.695   5.323  14.565  0.5480  0.1777  0.1761
  179DOPC   H9X21975   5.797   5.362  14.575  0.6823 -0.5119  2.0263
  179DOPC  C31021976   5.639   5.271  14.676 -0.3027 -0.8854  1.2885
  179DOPC  H10X21977   5.683   5.285  14.776 -2.1693  1.3199  1.8803
  179DOPC  C31121978   5.506   5.191  14.677 -0.4318  0.6792  0.5593
  179DOPC  H11X21979   5.450   5.207  14.583 -0.7392 -0.9906  0.4277
  179DOPC  H11Y21980   5.431   5.211  14.757 -1.3737  1.2400 -0.4442
  179DOPC  C31221981   5.554   5.043  14.672  0.3483 -0.4543 -0.7233
  179DOPC  H12X21982   5.603   5.030  14.771 -0.1893  2.3585 -0.0035
  179DOPC  H12Y21983   5.621   5.017  14.588  1.9219 -0.9799  0.6326
  179DOPC  C31321984   5.437   4.936  14.688 -0.3920  0.0323  0.3146
  179DOPC  H13X21985   5.388   4.961  14.784  0.9507  2.8844  0.3881
  179DOPC  H13Y21986   5.361   4.946  14.607 -0.5938 -2.6045  0.0874
  179DOPC  C31421987   5.492   4.791  14.696  0.7357 -0.0809 -0.0485
  179DOPC  H14X21988   5.562   4.770  14.612 -0.0804 -1.6424 -0.3718
  179DOPC  H14Y21989   5.549   4.791  14.792  0.9355  1.7121 -0.1306
  179DOPC  C31521990   5.387   4.677  14.706 -0.2000  0.7540 -0.0118
  179DOPC  H15X21991   5.298   4.705  14.766 -0.1120 -1.0717  1.0683
  179DOPC  H15Y21992   5.441   4.596  14.761  0.1535  0.1727 -1.1860
  179DOPC  C31621993   5.347   4.619  14.571  0.3676  0.6836 -0.7118
  179DOPC  H16X21994   5.299   4.697  14.509 -1.1143  0.6491  0.3640
  179DOPC  H16Y21995   5.439   4.589  14.515  0.2293  0.7327 -0.9668
  179DOPC  C31721996   5.235   4.504  14.581 -0.3491 -0.4369  0.3414
  179DOPC  H17X21997   5.255   4.428  14.503  0.0229  0.7660 -0.7815
  179DOPC  H17Y21998   5.250   4.458  14.681  1.2816 -0.6545  0.0295
  179DOPC  C31821999   5.094   4.556  14.563 -0.3344  0.3268  0.7358
  179DOPC  H18X22000   5.016   4.480  14.584 -1.7257  1.1458 -1.2268
  179DOPC  H18Y22001   5.083   4.644  14.629 -1.1844  0.3414  0.5826
  179DOPC  H18Z22002   5.080   4.592  14.459  0.0835  1.0368  0.9159
  180DOPC     N22003   5.813   3.029  12.801  0.7409  0.6315  0.2755
  180DOPC   C1222004   5.871   3.058  12.936 -0.0976 -0.5291 -0.0725
  180DOPC  H12A22005   5.963   3.111  12.921  0.6267 -1.7998 -0.2377
  180DOPC  H12B22006   5.905   2.969  12.988  0.8925  0.0163  0.2337
  180DOPC   C1322007   5.918   2.954  12.729 -0.6442 -0.6102 -0.1892
  180DOPC  H13A22008   5.895   2.929  12.626  0.2364  0.4891 -0.6734
  180DOPC  H13B22009   6.004   3.017  12.715 -2.4361  1.6793 -1.6292
  180DOPC  H13C22010   5.955   2.867  12.781  0.1879 -0.3845 -0.4014
  180DOPC   C1422011   5.779   3.148  12.721 -0.1252  0.4319  0.3392
  180DOPC  H14A22012   5.825   3.236  12.764 -0.4902  2.4351 -3.0009
  180DOPC  H14B22013   5.790   3.131  12.615 -0.6367 -0.0197  0.3518
  180DOPC  H14C22014   5.672   3.157  12.738 -0.5695 -1.8189 -0.8443
  180DOPC   C1522015   5.702   2.933  12.803  0.1635  0.5662 -0.0400
  180DOPC  H15A22016   5.753   2.843  12.835  2.3501  1.8182  0.1821
  180DOPC  H15B22017   5.665   2.906  12.705  0.3847 -1.3518  0.3595
  180DOPC  H15C22018   5.628   2.956  12.878  0.6053  0.2050  0.5210
  180DOPC   C1122019   5.772   3.124  13.040 -0.2789  0.3191  0.2602
  180DOPC  H11A22020   5.828   3.157  13.129  0.3883 -1.0682  0.3887
  180DOPC  H11B22021   5.729   3.210  12.984  0.7823  0.3330 -0.5788
  180DOPC     P22022   5.690   2.924  13.189 -0.3622  0.3785 -0.1195
  180DOPC   O1322023   5.800   2.833  13.142  0.1149  0.0248 -0.4183
  180DOPC   O1422024   5.569   2.852  13.220 -0.4272  0.1788 -0.2665
  180DOPC   O1222025   5.659   3.031  13.080 -0.5802 -0.6132  0.7605
  180DOPC   O1122026   5.734   3.019  13.315  0.0735  0.3395 -0.2610
  180DOPC    C122027   5.653   3.124  13.359  0.0643 -0.4531 -0.1502
  180DOPC    HA22028   5.573   3.169  13.296 -0.6026 -0.6568  0.5334
  180DOPC    HB22029   5.715   3.210  13.392  1.0871 -1.4970  0.6980
  180DOPC    C222030   5.576   3.080  13.493 -0.7275 -0.3971  0.2045
  180DOPC    HS22031   5.486   3.021  13.468 -0.6011 -0.1638 -0.8721
  180DOPC   O2122032   5.536   3.207  13.565  0.3569  0.3025  0.2770
  180DOPC   C2122033   5.415   3.195  13.616 -0.5693  0.1938  0.0292
  180DOPC   O2222034   5.330   3.117  13.585 -0.3796 -0.0744 -0.1025
  180DOPC   C2222035   5.395   3.307  13.715 -0.0982  0.0075  0.1102
  180DOPC   H2R22036   5.291   3.311  13.757  0.0751  0.8343  0.4848
  180DOPC   H2S22037   5.412   3.394  13.648 -0.2818 -0.3128 -0.3544
  180DOPC    C322038   5.675   2.993  13.580 -0.2935  0.3463 -0.0430
  180DOPC    HX22039   5.762   3.061  13.597 -0.4471 -0.1918  3.7448
  180DOPC    HY22040   5.713   2.908  13.519 -0.5622  2.6242 -3.7192
  180DOPC   O3122041   5.633   2.959  13.715 -0.4005  0.0927 -0.0054
  180DOPC   C3122042   5.541   2.862  13.719  0.1413  0.8045  0.3527
  180DOPC   O3222043   5.503   2.798  13.622  0.3091  0.1000  0.2496
  180DOPC   C3222044   5.475   2.857  13.857 -0.4901 -0.2917  0.2721
  180DOPC   H2X22045   5.501   2.759  13.904  0.1845 -0.4194 -0.3478
  180DOPC   H2Y22046   5.526   2.943  13.906  1.4885 -0.1869 -1.7855
  180DOPC   C2322047   5.508   3.317  13.825  0.4949 -0.2154 -0.0230
  180DOPC   H3R22048   5.498   3.425  13.853 -0.0598  0.2850 -1.9833
  180DOPC   H3S22049   5.617   3.314  13.804  0.9563  0.3663  2.0250
  180DOPC   C2422050   5.489   3.237  13.958 -0.5398 -0.4117  0.1800
  180DOPC   H4R22051   5.559   3.273  14.036  0.7495 -0.7257 -0.7840
  180DOPC   H4S22052   5.503   3.128  13.938  0.2248 -0.0010 -1.7878
  180DOPC   C2522053   5.349   3.261  14.020  0.0452 -0.2315 -0.3701
  180DOPC   H5R22054   5.270   3.238  13.945  0.5518  1.9541 -1.6454
  180DOPC   H5S22055   5.341   3.370  14.040 -1.2048 -0.6378  1.6371
  180DOPC   C2622056   5.332   3.196  14.158 -0.2076 -0.0781 -0.0057
  180DOPC   H6R22057   5.404   3.112  14.158  0.0013  0.0278 -2.6368
  180DOPC   H6S22058   5.227   3.159  14.167 -0.4712  0.3135 -1.2935
  180DOPC   C2722059   5.346   3.297  14.276  0.1173  0.3339 -0.5426
  180DOPC   H7R22060   5.287   3.388  14.247  1.3621  0.9919 -1.0720
  180DOPC   H7S22061   5.449   3.337  14.273 -0.1861  1.1569 -0.4485
  180DOPC   C2822062   5.319   3.238  14.416  0.1734 -1.0201 -0.7226
  180DOPC   H8R22063   5.222   3.186  14.427  0.1404 -1.0893 -1.3083
  180DOPC   H8S22064   5.321   3.320  14.491  0.9000 -1.8906  0.2474
  180DOPC   C2922065   5.424   3.142  14.463  0.1486  0.1649  0.4761
  180DOPC   H9R22066   5.487   3.105  14.380  0.6098  1.7798  0.0679
  180DOPC  C21022067   5.449   3.097  14.588 -0.3408 -0.0308 -0.0719
  180DOPC  H10R22068   5.534   3.028  14.603 -0.1001  0.4060  0.7012
  180DOPC  C21122069   5.366   3.152  14.704 -0.2072  0.2016 -0.2611
  180DOPC  H11R22070   5.335   3.070  14.771  0.4188  0.8647  0.8710
  180DOPC  H11S22071   5.274   3.204  14.671  0.2060  1.4237  0.4131
  180DOPC  C21222072   5.435   3.257  14.795 -0.3849  0.1753 -0.4275
  180DOPC  H12R22073   5.366   3.281  14.878  1.2057 -1.0882  1.3176
  180DOPC  H12S22074   5.441   3.355  14.741 -0.3742  0.1486 -0.4752
  180DOPC  C21322075   5.579   3.226  14.846 -0.2413  0.0661  0.4532
  180DOPC  H13R22076   5.644   3.209  14.757  0.8803 -0.8392  1.4047
  180DOPC  H13S22077   5.570   3.127  14.895 -2.5251  0.1033  0.2147
  180DOPC  C21422078   5.632   3.331  14.944 -0.0304 -0.2105  0.0685
  180DOPC  H14R22079   5.540   3.355  15.002 -1.4169 -0.7178 -1.7964
  180DOPC  H14S22080   5.672   3.418  14.887  1.1918 -0.2088  0.9037
  180DOPC  C21522081   5.736   3.270  15.037 -0.0004  0.0783 -0.8309
  180DOPC  H15R22082   5.807   3.209  14.978 -0.8983 -2.3857  0.4839
  180DOPC  H15S22083   5.688   3.198  15.107 -3.1389  1.8699 -0.9303
  180DOPC  C21622084   5.818   3.370  15.121 -0.6059  0.3657 -0.8158
  180DOPC  H16R22085   5.761   3.430  15.195  1.4070  1.8731 -0.3907
  180DOPC  H16S22086   5.848   3.444  15.044 -1.6578  1.7967  0.1114
  180DOPC  C21722087   5.940   3.312  15.197  0.1830 -0.7175 -0.3688
  180DOPC  H17R22088   6.020   3.387  15.186  0.6112 -1.3092 -1.5174
  180DOPC  H17S22089   5.989   3.231  15.139  0.5877 -0.8239  0.1207
  180DOPC  C21822090   5.936   3.283  15.348  0.9530 -0.2291  0.3768
  180DOPC  H18R22091   5.869   3.345  15.411 -1.4921 -1.6788 -0.6699
  180DOPC  H18S22092   6.040   3.278  15.387  1.2407  0.7782 -0.2106
  180DOPC  H18T22093   5.886   3.187  15.373  1.4487 -0.5899  0.0031
  180DOPC   C3322094   5.319   2.864  13.837 -1.0238  0.4397  0.0175
  180DOPC   H3X22095   5.279   2.768  13.797 -0.5842 -0.7832  2.3344
  180DOPC   H3Y22096   5.288   2.949  13.772 -0.1167  0.9521  0.2307
  180DOPC   C3422097   5.252   2.884  13.973  0.2486 -0.2527  0.1096
  180DOPC   H4X22098   5.146   2.915  13.971  0.6912  1.4850  1.1793
  180DOPC   H4Y22099   5.318   2.956  14.028  0.9859 -0.5442 -0.3705
  180DOPC   C3522100   5.246   2.753  14.051  0.1519  0.6297 -0.0637
  180DOPC   H5X22101   5.346   2.712  14.079  0.0687 -0.0341 -0.7097
  180DOPC   H5Y22102   5.189   2.675  13.997  0.3909 -0.8074  1.6650
  180DOPC   C3622103   5.169   2.780  14.182  0.9099 -0.1266 -0.2786
  180DOPC   H6X22104   5.088   2.855  14.169 -0.4291 -1.4316  0.1744
  180DOPC   H6Y22105   5.120   2.686  14.215 -0.0065 -0.5942 -2.7267
  180DOPC   C3722106   5.262   2.820  14.299  0.3168  0.2836 -0.9982
  180DOPC   H7X22107   5.338   2.890  14.258 -0.1822  1.6649  0.3625
  180DOPC   H7Y22108   5.209   2.868  14.384  0.9817 -1.5995  0.5514
  180DOPC   C3822109   5.342   2.700  14.357 -0.1403 -0.5914  0.1780
  180DOPC   H8X22110   5.365   2.639  14.268 -1.3308  0.8892 -1.2047
  180DOPC   H8Y22111   5.274   2.641  14.422 -0.8613  0.7831  0.7229
  180DOPC   C3922112   5.471   2.744  14.435  0.6247  0.0793 -0.0771
  180DOPC   H9X22113   5.456   2.740  14.544 -1.1362 -0.7509 -0.3151
  180DOPC  C31022114   5.592   2.765  14.380 -0.1850 -0.3560 -0.5336
  180DOPC  H10X22115   5.678   2.788  14.445 -1.2575  0.0816  0.7679
  180DOPC  C31122116   5.632   2.753  14.238  0.0778 -0.1478  0.1218
  180DOPC  H11X22117   5.568   2.801  14.162 -0.0909  2.9171  2.0188
  180DOPC  H11Y22118   5.647   2.645  14.217 -1.2884 -0.3721  0.2439
  180DOPC  C31222119   5.770   2.819  14.214 -0.1115  0.0323 -0.8186
  180DOPC  H12X22120   5.848   2.768  14.274 -0.4970  0.7343  0.3138
  180DOPC  H12Y22121   5.764   2.923  14.252  0.8238 -0.6095  1.2431
  180DOPC  C31322122   5.819   2.809  14.071 -0.0619  0.5481 -0.0569
  180DOPC  H13X22123   5.729   2.822  14.007 -0.0023 -2.6138 -0.9697
  180DOPC  H13Y22124   5.901   2.881  14.055  0.5907  0.5032  2.5433
  180DOPC  C31422125   5.869   2.668  14.026  0.2003 -0.9537  0.0374
  180DOPC  H14X22126   5.971   2.642  14.063  1.0038  0.5734 -0.9694
  180DOPC  H14Y22127   5.798   2.595  14.069 -0.5608  1.2182  2.8032
  180DOPC  C31522128   5.877   2.657  13.876 -0.7398 -0.1094 -0.0768
  180DOPC  H15X22129   5.979   2.686  13.842 -0.5706 -1.5029 -0.8447
  180DOPC  H15Y22130   5.801   2.724  13.831  1.3646  0.1349 -3.6652
  180DOPC  C31622131   5.869   2.510  13.826  0.1296 -0.5216 -0.1987
  180DOPC  H16X22132   5.944   2.455  13.886  1.0771 -0.9059 -1.6719
  180DOPC  H16Y22133   5.767   2.475  13.853 -0.3636  0.3995 -0.8310
  180DOPC  C31722134   5.905   2.497  13.682 -0.2174  0.6087 -0.2388
  180DOPC  H17X22135   6.005   2.542  13.662  0.0215 -0.7303 -2.3456
  180DOPC  H17Y22136   5.914   2.390  13.653  3.3597  0.8074 -0.3413
  180DOPC  C31822137   5.814   2.559  13.578 -0.2696  1.6453  0.2495
  180DOPC  H18X22138   5.835   2.523  13.475 -5.2772 -0.3081 -0.3512
  180DOPC  H18Y22139   5.708   2.528  13.591  0.0158  0.7725  0.5584
  180DOPC  H18Z22140   5.824   2.670  13.581  1.6140  1.5196  0.0907
  181DOPC     N22141   0.858   3.933  13.188 -0.3035 -0.0773 -0.5216
  181DOPC   C1222142   0.759   3.939  13.065 -0.4556  0.0624 -0.2491
  181DOPC  H12A22143   0.809   3.899  12.978 -0.0780  3.2357 -1.6243
  181DOPC  H12B22144   0.756   4.044  13.040  1.8291  0.3672  0.6006
  181DOPC   C1322145   0.911   3.795  13.209 -0.3019 -0.4256  0.6272
  181DOPC  H13A22146   0.833   3.722  13.226 -1.9927  1.4431  1.2437
  181DOPC  H13B22147   0.953   3.747  13.122 -0.0441 -0.1847  0.6159
  181DOPC  H13C22148   0.986   3.792  13.287  0.6699  1.3317 -0.1756
  181DOPC   C1422149   0.788   3.981  13.310 -0.2423  0.1927  0.1049
  181DOPC  H14A22150   0.733   4.073  13.302  0.7414  1.2039  3.2630
  181DOPC  H14B22151   0.718   3.904  13.339  0.9745 -2.0554 -2.4181
  181DOPC  H14C22152   0.850   4.002  13.397  0.9131 -2.3373 -0.0192
  181DOPC   C1522153   0.978   4.020  13.162  0.3373  0.7999  0.0630
  181DOPC  H15A22154   1.017   4.004  13.063  0.7781  3.2604 -0.2184
  181DOPC  H15B22155   1.054   4.001  13.236 -0.2818  1.0655  0.7783
  181DOPC  H15C22156   0.949   4.121  13.186  1.5434  1.0121  0.7336
  181DOPC   C1122157   0.624   3.868  13.075  0.9134 -0.5072  0.0353
  181DOPC  H11A22158   0.567   3.906  13.162 -1.3309 -3.0278 -0.2112
  181DOPC  H11B22159   0.558   3.888  12.987  0.1977 -1.1215  0.4223
  181DOPC     P22160   0.597   3.642  13.210 -0.0513 -0.1088 -0.2996
  181DOPC   O1322161   0.648   3.507  13.195 -0.2478  0.1556 -0.2018
  181DOPC   O1422162   0.443   3.642  13.212  0.0486 -0.9285  0.1674
  181DOPC   O1222163   0.648   3.728  13.083  0.2777  0.0223 -0.1202
  181DOPC   O1122164   0.646   3.714  13.347 -0.6054 -0.4655 -0.0651
  181DOPC    C122165   0.697   3.633  13.457  0.1026  0.5278  0.2007
  181DOPC    HA22166   0.804   3.659  13.477 -0.5460  1.6598  2.5245
  181DOPC    HB22167   0.692   3.522  13.446  0.7115  0.4969  0.1809
  181DOPC    C222168   0.644   3.684  13.597  0.6383  0.0100  0.1206
  181DOPC    HS22169   0.692   3.632  13.683 -0.9432  0.7725  1.5217
  181DOPC   O2122170   0.496   3.671  13.599 -0.1091 -0.5285 -0.4314
  181DOPC   C2122171   0.451   3.547  13.618 -0.5427 -0.3771  0.4517
  181DOPC   O2222172   0.517   3.445  13.609  0.2049 -0.2090  0.5219
  181DOPC   C2222173   0.305   3.550  13.651 -0.3355  0.0170 -0.1585
  181DOPC   H2R22174   0.254   3.556  13.552 -1.8551 -2.5731  0.3783
  181DOPC   H2S22175   0.285   3.637  13.717 -1.3399 -0.6576  0.4453
  181DOPC    C322176   0.675   3.834  13.607 -0.4443  0.6728 -0.1262
  181DOPC    HX22177   0.588   3.874  13.551 -0.1183  2.7149  0.7656
  181DOPC    HY22178   0.769   3.856  13.552  1.0818  0.5758  2.2992
  181DOPC   O3122179   0.678   3.877  13.749  0.2756 -0.8329  0.6519
  181DOPC   C3122180   0.566   3.915  13.803 -0.2066  0.6292 -0.0551
  181DOPC   O3222181   0.460   3.932  13.748 -0.0347  0.0545 -0.0739
  181DOPC   C3222182   0.579   3.930  13.958 -0.2835 -0.4773  0.1150
  181DOPC   H2X22183   0.675   3.986  13.965 -0.2597 -0.5690  0.5652
  181DOPC   H2Y22184   0.498   3.997  13.996  0.2199  0.2000  0.0030
  181DOPC   C2322185   0.244   3.426  13.722 -0.2998 -0.9214 -0.1646
  181DOPC   H3R22186   0.300   3.414  13.817  0.1939  1.3118 -0.1322
  181DOPC   H3S22187   0.267   3.336  13.661 -2.0056 -1.5855  0.1167
  181DOPC   C2422188   0.092   3.445  13.719 -0.0659 -0.4389 -0.1578
  181DOPC   H4R22189   0.061   3.486  13.620  0.9298  1.5655  0.3111
  181DOPC   H4S22190   0.068   3.532  13.784 -0.1826 -1.2114  0.8464
  181DOPC   C2522191   0.010   3.323  13.767 -0.1827 -0.4468 -0.0818
  181DOPC   H5R22192   0.053   3.289  13.863 -2.7150 -2.5435  0.4131
  181DOPC   H5S22193   0.024   3.246  13.688 -2.2480 -0.8742 -0.0789
  181DOPC   C2622194  -0.144   3.349  13.785  0.3822  0.2328  0.3193
  181DOPC   H6R22195  -0.178   3.404  13.695  3.4642 -0.6354 -1.5379
  181DOPC   H6S22196  -0.156   3.416  13.873 -1.0568  1.3143 -0.6589
  181DOPC   C2722197  -0.218   3.217  13.809  0.1572  0.4794 -0.0591
  181DOPC   H7R22198  -0.172   3.138  13.746  1.4790  0.1822  1.2167
  181DOPC   H7S22199  -0.327   3.231  13.791  0.1643 -0.1105 -0.5980
  181DOPC   C2822200  -0.186   3.147  13.947  0.0242  0.0563 -0.5182
  181DOPC   H8R22201  -0.077   3.154  13.968  0.0643  0.3583 -0.8215
  181DOPC   H8S22202  -0.215   3.040  13.950 -0.1766  0.1315  0.5533
  181DOPC   C2922203  -0.284   3.213  14.044  0.1224  0.2353 -0.1700
  181DOPC   H9R22204  -0.386   3.174  14.034  0.7032 -1.9059  1.4246
  181DOPC  C21022205  -0.253   3.300  14.144 -0.0236 -0.2827 -0.2786
  181DOPC  H10R22206  -0.337   3.336  14.205 -0.7762 -0.2974 -1.2703
  181DOPC  C21122207  -0.119   3.360  14.190 -1.0215  0.6027  0.3897
  181DOPC  H11R22208  -0.128   3.456  14.244 -0.6977  0.6993  0.2718
  181DOPC  H11S22209  -0.057   3.376  14.099 -1.8154 -1.0427 -0.4826
  181DOPC  C21222210  -0.046   3.252  14.280 -0.5981  0.1159  0.1565
  181DOPC  H12R22211   0.063   3.268  14.290 -0.6295  2.2843 -2.1249
  181DOPC  H12S22212  -0.060   3.154  14.229  0.6809 -0.4358  0.8321
  181DOPC  C21322213  -0.108   3.252  14.426 -0.0555  0.4348  0.0861
  181DOPC  H13R22214  -0.210   3.209  14.429 -0.4000  1.2491  2.6294
  181DOPC  H13S22215  -0.117   3.358  14.459 -1.8693  0.6394 -0.9283
  181DOPC  C21422216  -0.021   3.162  14.516  0.0333 -0.1844 -0.6774
  181DOPC  H14R22217   0.071   3.216  14.548 -1.2154  1.3328  0.5258
  181DOPC  H14S22218   0.010   3.071  14.461 -1.0170 -1.7749  1.2703
  181DOPC  C21522219  -0.096   3.099  14.633  0.4262  0.3139  0.2961
  181DOPC  H15R22220  -0.142   3.177  14.698 -0.7233 -0.7618  0.8293
  181DOPC  H15S22221  -0.026   3.033  14.689 -1.6029 -3.0880 -0.9024
  181DOPC  C21622222  -0.206   3.011  14.580 -0.2918  0.6746  0.0227
  181DOPC  H16R22223  -0.170   2.930  14.512 -2.0053  0.2595 -0.4230
  181DOPC  H16S22224  -0.278   3.076  14.526  0.3758  1.1465 -0.3280
  181DOPC  C21722225  -0.282   2.934  14.697  0.0249 -0.1878  0.4433
  181DOPC  H17R22226  -0.324   3.010  14.766  1.1613  1.1505 -0.2804
  181DOPC  H17S22227  -0.211   2.868  14.751  0.1721  0.1879  0.7128
  181DOPC  C21822228  -0.402   2.846  14.645 -0.1719  0.0301 -1.0478
  181DOPC  H18R22229  -0.467   2.899  14.572 -1.8965  0.0616  0.4531
  181DOPC  H18S22230  -0.474   2.819  14.724  0.6945 -1.3816 -0.7056
  181DOPC  H18T22231  -0.357   2.754  14.602 -1.4349 -1.1147 -0.0039
  181DOPC   C3322232   0.577   3.796  14.031 -0.1334 -0.3339  0.5402
  181DOPC   H3X22233   0.661   3.734  13.994 -0.9832 -0.3752 -1.4925
  181DOPC   H3Y22234   0.481   3.740  14.018 -1.2169  1.4564  0.5514
  181DOPC   C3422235   0.604   3.820  14.179  0.2752 -0.1374  1.0067
  181DOPC   H4X22236   0.532   3.890  14.226 -0.5925  0.6899 -1.3822
  181DOPC   H4Y22237   0.702   3.871  14.179 -0.4361  1.3098 -0.3119
  181DOPC   C3522238   0.632   3.689  14.249  0.4896 -0.6603 -0.3108
  181DOPC   H5X22239   0.697   3.628  14.182  0.7693  0.4217 -1.0538
  181DOPC   H5Y22240   0.543   3.625  14.266 -0.7478  0.7554 -1.2519
  181DOPC   C3622241   0.710   3.705  14.390  1.5089  0.1779  0.0140
  181DOPC   H6X22242   0.782   3.789  14.382 -1.2649  2.7026 -0.2911
  181DOPC   H6Y22243   0.630   3.732  14.462 -1.2699 -2.7336 -1.6711
  181DOPC   C3722244   0.779   3.577  14.452 -0.3292  0.8276  0.4303
  181DOPC   H7X22245   0.699   3.511  14.492 -0.6202 -0.2770 -1.8167
  181DOPC   H7Y22246   0.827   3.522  14.369 -2.2587  1.0859 -0.9484
  181DOPC   C3822247   0.874   3.611  14.572  0.5019 -0.2582  0.0293
  181DOPC   H8X22248   0.818   3.688  14.628  0.7183 -0.0067 -0.1006
  181DOPC   H8Y22249   0.970   3.653  14.535  0.5933 -1.3503 -1.0395
  181DOPC   C3922250   0.916   3.496  14.662 -0.5256  0.1520 -0.8200
  181DOPC   H9X22251   1.009   3.441  14.640  0.4435 -0.4850  3.8731
  181DOPC  C31022252   0.850   3.444  14.770  0.5109  0.0828 -0.4426
  181DOPC  H10X22253   0.892   3.356  14.820  1.4883 -0.4459 -2.1105
  181DOPC  C31122254   0.721   3.489  14.824  0.2403  0.5553 -0.2683
  181DOPC  H11X22255   0.662   3.545  14.749 -1.0613 -0.3961  0.0135
  181DOPC  H11Y22256   0.732   3.564  14.904 -0.8168 -2.2112  2.6645
  181DOPC  C31222257   0.633   3.376  14.876  0.2596 -0.7185 -0.3075
  181DOPC  H12X22258   0.690   3.323  14.955 -2.6195 -0.6586  1.9859
  181DOPC  H12Y22259   0.615   3.305  14.792  2.8731 -0.3256 -1.2829
  181DOPC  C31322260   0.492   3.416  14.938 -0.5807 -0.4630  0.4858
  181DOPC  H13X22261   0.447   3.324  14.980 -2.1050  1.0410  2.3470
  181DOPC  H13Y22262   0.500   3.499  15.011 -0.0439 -0.3849  0.3394
  181DOPC  C31422263   0.385   3.456  14.834  0.1084  0.3035  0.2991
  181DOPC  H14X22264   0.382   3.560  14.797 -0.5278  0.0729 -0.3022
  181DOPC  H14Y22265   0.399   3.396  14.741 -3.5295 -0.7239  0.2643
  181DOPC  C31522266   0.239   3.427  14.880  0.9821  0.4958  1.0719
  181DOPC  H15X22267   0.228   3.480  14.977  0.0025  0.4320  1.0075
  181DOPC  H15Y22268   0.219   3.318  14.885 -3.5158  0.9891 -0.9595
  181DOPC  C31622269   0.124   3.486  14.790 -0.0965 -0.3811  0.0846
  181DOPC  H16X22270   0.145   3.457  14.685  0.1981  0.2173 -0.0276
  181DOPC  H16Y22271   0.024   3.449  14.821  0.1343 -0.7128  0.4400
  181DOPC  C31722272   0.126   3.641  14.791 -0.6071 -0.2020  0.2195
  181DOPC  H17X22273   0.160   3.681  14.889  2.1219 -1.6880 -0.0008
  181DOPC  H17Y22274   0.211   3.675  14.727 -0.0458  0.7687  1.4380
  181DOPC  C31822275   0.004   3.710  14.734  0.1515  0.2552 -0.3673
  181DOPC  H18X22276  -0.089   3.710  14.796 -0.7222  1.9192 -1.6257
  181DOPC  H18Y22277   0.027   3.817  14.720  1.6171 -0.0767 -0.6050
  181DOPC  H18Z22278  -0.026   3.667  14.636  0.1929  1.5855 -0.9808
  182DOPC     N22279   2.193   1.180  12.462  0.2798 -0.7184  0.0927
  182DOPC   C1222280   2.133   1.248  12.581 -0.2480 -0.5903 -0.0031
  182DOPC  H12A22281   2.060   1.317  12.542  0.3758  0.7734  1.1493
  182DOPC  H12B22282   2.209   1.307  12.630  0.1566  0.1070 -1.4062
  182DOPC   C1322283   2.092   1.086  12.396 -0.0847  0.1866 -0.2132
  182DOPC  H13A22284   2.075   0.996  12.454 -0.1742  0.7299  0.6073
  182DOPC  H13B22285   1.998   1.139  12.388 -0.6869 -0.3171  2.4853
  182DOPC  H13C22286   2.125   1.062  12.296 -2.6364 -0.4055 -0.9917
  182DOPC   C1422287   2.315   1.101  12.505  0.4298 -1.1065 -0.2066
  182DOPC  H14A22288   2.382   1.169  12.556 -0.5698  0.2311 -0.6030
  182DOPC  H14B22289   2.284   1.033  12.583  1.0907 -3.0182 -1.5623
  182DOPC  H14C22290   2.371   1.066  12.420  1.0147  1.7008 -1.1079
  182DOPC   C1522291   2.235   1.278  12.355 -0.3850  0.7247 -0.3568
  182DOPC  H15A22292   2.293   1.226  12.280  1.6096 -0.4399  1.8449
  182DOPC  H15B22293   2.308   1.340  12.404 -0.0422 -0.1139  0.2368
  182DOPC  H15C22294   2.150   1.330  12.313 -1.4876 -0.2465  0.5792
  182DOPC   C1122295   2.064   1.161  12.691  0.1934  0.0415 -0.2520
  182DOPC  H11A22296   2.001   1.214  12.766  1.6811  1.4040  0.1056
  182DOPC  H11B22297   2.001   1.093  12.630  0.1559 -0.1917  0.0457
  182DOPC     P22298   2.265   1.121  12.861 -0.1034  0.0770 -0.5485
  182DOPC   O1322299   2.320   1.253  12.820 -0.3465 -0.3658  0.0538
  182DOPC   O1422300   2.368   1.017  12.881  0.0581 -0.0289  0.2963
  182DOPC   O1222301   2.160   1.074  12.756  0.4152  0.0607 -0.6483
  182DOPC   O1122302   2.173   1.133  12.989  0.1226  0.0961  0.2096
  182DOPC    C122303   2.139   1.020  13.072  0.9022 -0.1665 -0.1611
  182DOPC    HA22304   2.176   0.919  13.043 -2.1585 -1.3805 -0.1631
  182DOPC    HB22305   2.029   1.026  13.084  0.8335  1.0170 -1.1960
  182DOPC    C222306   2.195   1.041  13.220  0.6818 -0.6707  0.1239
  182DOPC    HS22307   2.154   0.960  13.283 -0.8180  0.1934  0.2935
  182DOPC   O2122308   2.144   1.168  13.268 -0.2778  0.0254 -0.2219
  182DOPC   C2122309   2.106   1.175  13.392  0.5293  0.2094  0.1463
  182DOPC   O2222310   2.088   1.078  13.468  0.3146 -0.3837  0.0920
  182DOPC   C2222311   2.081   1.323  13.426 -0.8489  0.4497 -0.7771
  182DOPC   H2R22312   1.996   1.360  13.363 -1.7524 -0.6329 -0.2385
  182DOPC   H2S22313   2.176   1.379  13.413 -0.0138 -1.2918 -2.7750
  182DOPC    C322314   2.353   1.046  13.225 -0.3146  0.0327  0.3954
  182DOPC    HX22315   2.384   1.114  13.142 -0.4311  0.0470  0.3636
  182DOPC    HY22316   2.386   0.944  13.197 -0.3960  0.3831 -1.0644
  182DOPC   O3122317   2.395   1.101  13.360  1.0331 -0.2152  0.3816
  182DOPC   C3122318   2.393   1.014  13.462  0.1799  0.1365  0.4881
  182DOPC   O3222319   2.391   0.892  13.450  0.0696 -0.2824 -1.4980
  182DOPC   C3222320   2.410   1.092  13.591 -0.8310  0.4671  0.1380
  182DOPC   H2X22321   2.517   1.122  13.603 -0.2580 -1.6039  0.5351
  182DOPC   H2Y22322   2.344   1.181  13.587 -1.3313  0.2207  1.8579
  182DOPC   C2322323   2.041   1.356  13.573  0.1670  0.3141 -0.4120
  182DOPC   H3R22324   2.121   1.303  13.630 -1.4908  0.0133  1.7434
  182DOPC   H3S22325   1.940   1.317  13.597  0.5446 -0.0274  0.6767
  182DOPC   C2422326   2.044   1.507  13.605 -0.2637 -1.3981 -0.2628
  182DOPC   H4R22327   1.998   1.556  13.516  1.5424  1.1779  0.0965
  182DOPC   H4S22328   2.145   1.554  13.612 -1.5009  1.1907  3.7184
  182DOPC   C2522329   1.973   1.541  13.738 -0.9694  0.1820  0.8326
  182DOPC   H5R22330   1.863   1.531  13.728 -0.9436 -0.4135  1.1201
  182DOPC   H5S22331   1.983   1.650  13.755  0.4832  0.0538  0.9247
  182DOPC   C2622332   2.027   1.474  13.860  0.2924 -0.5701  0.2764
  182DOPC   H6R22333   2.137   1.487  13.865  0.0564  1.6056  0.8323
  182DOPC   H6S22334   2.002   1.366  13.850  2.3135 -1.2556  1.9933
  182DOPC   C2722335   1.982   1.534  13.998 -0.8529  0.5904  0.2227
  182DOPC   H7R22336   2.007   1.642  14.001  1.5010  0.0889  3.3054
  182DOPC   H7S22337   2.038   1.474  14.073 -1.4534  0.6450  0.7201
  182DOPC   C2822338   1.838   1.506  14.046 -0.0110  0.0828 -0.2688
  182DOPC   H8R22339   1.849   1.481  14.154  1.9717  2.4767  0.1779
  182DOPC   H8S22340   1.779   1.421  14.005 -0.7471  1.8661 -3.2012
  182DOPC   C2922341   1.751   1.626  14.018 -0.8630 -0.2823 -0.5927
  182DOPC   H9R22342   1.744   1.657  13.913 -0.2799 -0.7868 -0.7894
  182DOPC  C21022343   1.686   1.692  14.108 -0.7772  0.1807 -0.0256
  182DOPC  H10R22344   1.632   1.782  14.075 -0.0507  1.5342  2.2795
  182DOPC  C21122345   1.676   1.677  14.259  0.7244 -0.1768  0.1958
  182DOPC  H11R22346   1.697   1.780  14.293  1.3475 -0.6344  1.2380
  182DOPC  H11S22347   1.751   1.606  14.301 -0.9210 -1.5305  0.9618
  182DOPC  C21222348   1.537   1.633  14.312  0.8059  0.2579  0.2409
  182DOPC  H12R22349   1.522   1.526  14.285 -1.0047  0.6570 -0.4578
  182DOPC  H12S22350   1.461   1.689  14.254  0.8262 -1.0040 -1.0807
  182DOPC  C21322351   1.519   1.651  14.460 -0.1316  0.1794  0.0541
  182DOPC  H13R22352   1.548   1.756  14.482 -3.2200  1.5182 -1.6552
  182DOPC  H13S22353   1.569   1.571  14.520  1.6536  0.2621 -1.2207
  182DOPC  C21422354   1.374   1.667  14.511 -0.1541 -0.0101 -0.5874
  182DOPC  H14R22355   1.311   1.579  14.489  0.3940 -0.3656 -0.7473
  182DOPC  H14S22356   1.332   1.758  14.463  1.9231  0.2741 -2.0078
  182DOPC  C21522357   1.374   1.711  14.660  0.2191 -0.3159 -0.8489
  182DOPC  H15R22358   1.440   1.798  14.682 -1.4917  0.4952  1.5981
  182DOPC  H15S22359   1.420   1.624  14.710 -0.3279  0.1139  0.4389
  182DOPC  C21622360   1.237   1.733  14.720  0.3291  0.0725  0.2916
  182DOPC  H16R22361   1.161   1.662  14.681  1.7061 -0.6430 -1.1727
  182DOPC  H16S22362   1.203   1.831  14.679 -0.9548  0.1135  1.3915
  182DOPC  C21722363   1.236   1.731  14.873 -0.0061 -0.5275  0.2752
  182DOPC  H17R22364   1.307   1.807  14.910  0.4981 -0.6177 -0.4904
  182DOPC  H17S22365   1.266   1.629  14.904  2.8239  0.7840  2.2457
  182DOPC  C21822366   1.102   1.776  14.937 -0.1143  0.3336  0.2707
  182DOPC  H18R22367   1.121   1.779  15.046  1.2561 -1.1515  0.1165
  182DOPC  H18S22368   1.029   1.695  14.917 -1.2744  1.8026 -1.9352
  182DOPC  H18T22369   1.073   1.869  14.883  2.0470 -1.3459 -4.4011
  182DOPC   C3322370   2.384   0.995  13.714  0.2354  0.3093 -0.0004
  182DOPC   H3X22371   2.471   0.926  13.720 -1.4016 -2.0341 -1.5343
  182DOPC   H3Y22372   2.296   0.929  13.703 -0.3234  0.9474  0.5526
  182DOPC   C3422373   2.399   1.072  13.845  0.4981 -1.0945 -0.6941
  182DOPC   H4X22374   2.478   1.149  13.827  0.8231 -1.5484 -1.2578
  182DOPC   H4Y22375   2.430   1.000  13.924 -0.3713 -0.7871 -0.0572
  182DOPC   C3522376   2.266   1.140  13.893  0.0906 -0.7481  0.4052
  182DOPC   H5X22377   2.226   1.212  13.818  0.2600  0.7497  1.6980
  182DOPC   H5Y22378   2.291   1.202  13.982 -0.3516  2.2702 -1.4152
  182DOPC   C3622379   2.163   1.041  13.932  0.1269  0.1994 -0.1762
  182DOPC   H6X22380   2.165   0.951  13.866  1.8259 -1.2324  1.6790
  182DOPC   H6Y22381   2.190   0.994  14.030 -0.6314 -1.9868 -0.9513
  182DOPC   C3722382   2.025   1.104  13.934 -0.3457 -0.0984  0.0072
  182DOPC   H7X22383   2.026   1.200  13.989 -0.7418  0.6192 -1.1988
  182DOPC   H7Y22384   2.002   1.126  13.828 -1.8623  0.3112  0.3905
  182DOPC   C3822385   1.919   1.007  13.989  0.1830  0.6392 -0.2597
  182DOPC   H8X22386   1.936   0.984  14.096 -3.8958 -0.8760  0.2429
  182DOPC   H8Y22387   1.935   0.914  13.931  2.1729 -0.8149  2.3666
  182DOPC   C3922388   1.771   1.049  13.982 -0.9013  0.4799  0.3055
  182DOPC   H9X22389   1.737   1.038  13.878 -0.5289  0.2574  0.2067
  182DOPC  C31022390   1.688   1.076  14.081 -0.1145  0.4711 -0.5484
  182DOPC  H10X22391   1.586   1.110  14.059 -0.5942 -0.3563  0.2857
  182DOPC  C31122392   1.723   1.080  14.232  0.1677 -0.6091 -0.2054
  182DOPC  H11X22393   1.826   1.041  14.245  0.1400 -0.6625 -0.1478
  182DOPC  H11Y22394   1.656   1.017  14.295  0.8655  0.1689  1.3513
  182DOPC  C31222395   1.725   1.215  14.305 -0.4732  0.4301  0.8688
  182DOPC  H12X22396   1.788   1.286  14.247 -0.6458 -0.0212  0.1246
  182DOPC  H12Y22397   1.775   1.205  14.404 -3.2305 -0.7102  2.2593
  182DOPC  C31322398   1.594   1.285  14.342 -0.6152 -0.1488  0.3736
  182DOPC  H13X22399   1.618   1.373  14.405  0.7759 -1.3268  1.5587
  182DOPC  H13Y22400   1.552   1.325  14.247  1.5719  0.5799 -0.3689
  182DOPC  C31422401   1.476   1.198  14.393  0.4549  0.1234 -0.0103
  182DOPC  H14X22402   1.378   1.245  14.368  0.9612  0.4878 -1.3724
  182DOPC  H14Y22403   1.477   1.100  14.339 -0.6824  0.9161 -1.5567
  182DOPC  C31522404   1.482   1.168  14.547  0.8472  0.4762 -0.0501
  182DOPC  H15X22405   1.585   1.159  14.586  0.5842 -1.1706  0.3261
  182DOPC  H15Y22406   1.439   1.067  14.567  1.2699  0.5302  1.2104
  182DOPC  C31622407   1.406   1.271  14.624  0.0519  0.1620  0.6880
  182DOPC  H16X22408   1.465   1.365  14.623  0.4643 -0.0937  0.3921
  182DOPC  H16Y22409   1.310   1.302  14.577  0.0824 -0.6633  0.0594
  182DOPC  C31722410   1.379   1.231  14.762  0.7586  0.1248  0.3663
  182DOPC  H17X22411   1.319   1.138  14.757  0.0817  0.6178 -1.2514
  182DOPC  H17Y22412   1.467   1.201  14.823  0.9204  0.9671  0.5723
  182DOPC  C31822413   1.299   1.334  14.833  0.0978 -0.2208  0.4985
  182DOPC  H18X22414   1.190   1.323  14.812  0.2461  1.6223 -1.6458
  182DOPC  H18Y22415   1.312   1.339  14.944 -1.5936 -0.0037  0.7214
  182DOPC  H18Z22416   1.328   1.438  14.805 -2.1343  0.3276  0.0239
  183DOPC     N22417   6.741   5.724  12.603  0.2246  0.6031 -0.6050
  183DOPC   C1222418   6.856   5.704  12.697  0.0468 -0.0857 -0.5711
  183DOPC  H12A22419   6.937   5.645  12.655  0.3102 -1.8772  2.2273
  183DOPC  H12B22420   6.827   5.644  12.781  0.7225 -1.0606 -1.0172
  183DOPC   C1322421   6.615   5.758  12.684  0.0247 -0.0989 -0.2136
  183DOPC  H13A22422   6.540   5.789  12.612 -0.1571 -2.8659 -1.3404
  183DOPC  H13B22423   6.595   5.670  12.743  0.7551 -0.3183 -0.2948
  183DOPC  H13C22424   6.640   5.829  12.762  2.2152 -0.9798 -0.0636
  183DOPC   C1422425   6.718   5.594  12.536 -0.2004  0.0999 -0.3242
  183DOPC  H14A22426   6.801   5.547  12.484 -0.0889  1.3610 -1.3344
  183DOPC  H14B22427   6.679   5.520  12.604 -1.7203  0.9941 -0.1866
  183DOPC  H14C22428   6.640   5.604  12.463  0.6988 -0.7371 -1.4349
  183DOPC   C1522429   6.783   5.819  12.502 -0.5676 -0.2310  0.1706
  183DOPC  H15A22430   6.717   5.846  12.421  0.9456  3.2087 -0.0723
  183DOPC  H15B22431   6.871   5.770  12.464 -0.6788 -1.3381  1.2488
  183DOPC  H15C22432   6.809   5.914  12.546 -1.3922  0.5325 -0.9435
  183DOPC   C1122433   6.915   5.834  12.765 -0.4245 -0.3394  0.1387
  183DOPC  H11A22434   6.994   5.789  12.829  2.0162  0.6812 -1.9301
  183DOPC  H11B22435   6.968   5.894  12.687 -0.4956  2.0161  1.7886
  183DOPC     P22436   6.846   6.034  12.917 -0.0325 -0.0994  0.3985
  183DOPC   O1322437   6.721   6.112  12.918 -0.6807  0.3112 -0.2897
  183DOPC   O1422438   6.969   6.095  12.857 -0.1832  0.2290  0.2279
  183DOPC   O1222439   6.825   5.902  12.841  0.4925 -0.2221 -0.0088
  183DOPC   O1122440   6.869   5.982  13.065  0.1771  0.1482  0.3752
  183DOPC    C122441   6.785   5.871  13.110 -0.3412  0.3513 -0.5330
  183DOPC    HA22442   6.772   5.794  13.031  2.5713  0.0225 -0.8335
  183DOPC    HB22443   6.683   5.903  13.137  0.0938 -0.0866  1.8509
  183DOPC    C222444   6.855   5.818  13.240 -0.0467 -0.6795  0.2403
  183DOPC    HS22445   6.958   5.793  13.207  0.5116  0.3121  1.1545
  183DOPC   O2122446   6.784   5.702  13.289  0.0561 -0.1558 -0.1444
  183DOPC   C2122447   6.842   5.590  13.301  0.5166 -0.5571  0.7920
  183DOPC   O2222448   6.958   5.562  13.287 -0.1178  0.1711 -0.2220
  183DOPC   C2222449   6.745   5.484  13.338  0.6702  0.2589  0.0302
  183DOPC   H2R22450   6.726   5.422  13.248 -0.2324  0.6669 -0.0681
  183DOPC   H2S22451   6.645   5.526  13.364  0.0706 -1.3758  0.4458
  183DOPC    C322452   6.870   5.926  13.350  0.2860 -0.3186  0.4251
  183DOPC    HX22453   6.769   5.971  13.359 -0.0929 -1.0772  0.0514
  183DOPC    HY22454   6.937   6.010  13.319  0.0567 -0.6247 -0.9598
  183DOPC   O3122455   6.908   5.874  13.481  0.0138  0.7769  0.0655
  183DOPC   C3122456   7.026   5.898  13.527 -0.4322  0.0572 -0.1377
  183DOPC   O3222457   7.113   5.957  13.463 -0.0075  0.1267 -0.0609
  183DOPC   C3222458   7.050   5.838  13.660 -0.2542  0.1248 -0.3096
  183DOPC   H2X22459   7.097   5.914  13.725 -1.6424  0.1748  0.6856
  183DOPC   H2Y22460   6.951   5.812  13.705  0.5925  0.5059  1.9217
  183DOPC   C2322461   6.803   5.397  13.454  0.2318 -1.0752  0.1513
  183DOPC   H3R22462   6.899   5.361  13.412  0.3251  1.1913 -1.7849
  183DOPC   H3S22463   6.740   5.309  13.478 -0.7525 -0.0332  1.5836
  183DOPC   C2422464   6.835   5.468  13.580  0.4295 -0.2791  0.0576
  183DOPC   H4R22465   6.891   5.564  13.564 -1.6362  0.9764  0.0074
  183DOPC   H4S22466   6.903   5.394  13.628  1.0918  1.1265  1.4159
  183DOPC   C2522467   6.716   5.491  13.670  0.5146  0.1642  0.4543
  183DOPC   H5R22468   6.655   5.398  13.680  0.0525  0.5099  0.9979
  183DOPC   H5S22469   6.658   5.577  13.630 -0.8065 -0.7916  0.2596
  183DOPC   C2622470   6.765   5.514  13.811 -0.6290  0.0387 -0.2072
  183DOPC   H6R22471   6.843   5.593  13.806 -1.0864  0.4216 -1.6144
  183DOPC   H6S22472   6.807   5.420  13.852 -1.3232  0.9746  2.9670
  183DOPC   C2722473   6.653   5.555  13.902  0.2971 -0.6692  0.7227
  183DOPC   H7R22474   6.573   5.479  13.885 -1.1609  0.8760  0.3087
  183DOPC   H7S22475   6.623   5.659  13.876 -0.7258 -1.3368 -0.9378
  183DOPC   C2822476   6.703   5.555  14.049 -0.8407  0.0693 -1.2541
  183DOPC   H8R22477   6.781   5.633  14.053 -1.1759  0.3766  1.5093
  183DOPC   H8S22478   6.754   5.461  14.079  0.4470  1.4829  1.3456
  183DOPC   C2922479   6.585   5.597  14.132  0.1285  0.5003 -0.4405
  183DOPC   H9R22480   6.493   5.616  14.074  0.4036  0.6069 -0.8445
  183DOPC  C21022481   6.594   5.627  14.260 -0.0222  0.1816 -0.4968
  183DOPC  H10R22482   6.503   5.668  14.306  0.1057  0.7873 -0.7714
  183DOPC  C21122483   6.717   5.623  14.346  0.7375  0.4202  0.5672
  183DOPC  H11R22484   6.712   5.688  14.435  2.9548  1.2783  0.1309
  183DOPC  H11S22485   6.809   5.648  14.289 -0.4758  0.3037 -1.5755
  183DOPC  C21222486   6.727   5.487  14.415 -0.1026 -0.0997  0.3449
  183DOPC  H12R22487   6.747   5.416  14.333 -2.4491  1.6901 -1.9628
  183DOPC  H12S22488   6.628   5.474  14.465 -0.6066  3.7939  0.7332
  183DOPC  C21322489   6.830   5.472  14.527  0.3286  0.4138 -1.5437
  183DOPC  H13R22490   6.813   5.559  14.593 -2.3106 -1.8253  1.0155
  183DOPC  H13S22491   6.926   5.472  14.471  0.0643 -1.3052 -2.0619
  183DOPC  C21422492   6.809   5.338  14.593 -0.2527  0.6417  0.1161
  183DOPC  H14R22493   6.894   5.330  14.664 -0.4371  0.6840  0.3395
  183DOPC  H14S22494   6.838   5.259  14.521 -0.2937  0.1049  0.6839
  183DOPC  C21522495   6.670   5.309  14.657 -0.3072 -0.9201  0.5270
  183DOPC  H15R22496   6.605   5.249  14.590  0.5442 -1.3067  0.0296
  183DOPC  H15S22497   6.615   5.404  14.677 -1.0384 -0.3915 -3.2392
  183DOPC  C21622498   6.701   5.210  14.772  0.1712  1.0558 -0.4041
  183DOPC  H16R22499   6.785   5.243  14.837  1.5314 -2.3397 -0.2731
  183DOPC  H16S22500   6.732   5.112  14.730 -0.1503  0.6057  0.4041
  183DOPC  C21722501   6.583   5.198  14.869 -0.9621  0.2628 -0.1352
  183DOPC  H17R22502   6.580   5.099  14.919  2.5806 -1.4870 -2.9093
  183DOPC  H17S22503   6.496   5.196  14.800 -1.0275 -0.2165 -0.0380
  183DOPC  C21822504   6.572   5.318  14.968 -0.0243  0.4559  0.0539
  183DOPC  H18R22505   6.480   5.294  15.026 -0.3252  1.6119  0.0673
  183DOPC  H18S22506   6.556   5.413  14.913  1.3726 -0.0103 -1.2359
  183DOPC  H18T22507   6.662   5.324  15.032 -1.9446 -0.2702  3.0008
  183DOPC   C3322508   7.149   5.719  13.671  0.0324  0.2691 -0.1036
  183DOPC   H3X22509   7.246   5.763  13.640  0.1890 -0.3310 -0.4957
  183DOPC   H3Y22510   7.115   5.641  13.599 -0.4589  0.7223 -0.3688
  183DOPC   C3422511   7.153   5.651  13.806 -0.8196 -0.0578 -0.0067
  183DOPC   H4X22512   7.224   5.565  13.797  0.8434  1.1736  0.7717
  183DOPC   H4Y22513   7.057   5.613  13.845 -1.1173  0.8730  0.1894
  183DOPC   C3522514   7.217   5.743  13.905  0.2984 -0.7700  0.1498
  183DOPC   H5X22515   7.141   5.814  13.944 -0.9389 -2.1741  0.3540
  183DOPC   H5Y22516   7.298   5.807  13.862 -1.8186  0.6349 -1.9486
  183DOPC   C3622517   7.244   5.678  14.041 -0.1959 -0.5139 -0.5329
  183DOPC   H6X22518   7.146   5.645  14.082  0.6107  0.9495  2.9537
  183DOPC   H6Y22519   7.310   5.590  14.028  1.6507  0.5253  1.3078
  183DOPC   C3722520   7.319   5.772  14.140 -0.1056 -0.0207 -0.0197
  183DOPC   H7X22521   7.417   5.806  14.100 -0.3586  1.8012  0.7979
  183DOPC   H7Y22522   7.255   5.863  14.142 -0.2739 -0.1532  1.1888
  183DOPC   C3822523   7.322   5.710  14.277 -0.9509  0.5173 -0.3317
  183DOPC   H8X22524   7.219   5.680  14.305 -0.8964  1.4988  1.0120
  183DOPC   H8Y22525   7.346   5.787  14.353  1.9849 -1.2873  0.7179
  183DOPC   C3922526   7.416   5.595  14.305  0.4120  0.2094  0.5452
  183DOPC   H9X22527   7.499   5.580  14.234 -0.6416 -0.8805 -0.4935
  183DOPC  C31022528   7.411   5.528  14.416 -0.4039 -0.0153  0.4932
  183DOPC  H10X22529   7.472   5.436  14.422  2.8727  1.9457  0.0384
  183DOPC  C31122530   7.318   5.559  14.533 -0.5565 -0.5523 -0.2148
  183DOPC  H11X22531   7.274   5.467  14.577  1.7511 -1.4439  0.3685
  183DOPC  H11Y22532   7.239   5.634  14.511 -0.7056 -0.7840 -0.4675
  183DOPC  C31222533   7.423   5.622  14.632 -0.3263  0.2202 -0.5317
  183DOPC  H12X22534   7.476   5.707  14.582 -1.5790  0.7016 -1.0782
  183DOPC  H12Y22535   7.510   5.558  14.657 -0.6104 -0.7033 -1.8294
  183DOPC  C31322536   7.351   5.680  14.760  0.3431 -0.7389  0.7569
  183DOPC  H13X22537   7.253   5.725  14.733  0.1785 -0.6670  1.4567
  183DOPC  H13Y22538   7.327   5.612  14.845 -4.6020  1.0334  1.0942
  183DOPC  C31422539   7.441   5.791  14.817 -0.5506  0.0125 -0.0193
  183DOPC  H14X22540   7.539   5.739  14.824 -1.6599 -2.5039 -1.7163
  183DOPC  H14Y22541   7.445   5.876  14.746 -1.4296 -1.0525 -1.3890
  183DOPC  C31522542   7.400   5.837  14.959 -0.1235  0.5504 -0.2163
  183DOPC  H15X22543   7.392   5.749  15.025 -1.1114  0.8262  0.0489
  183DOPC  H15Y22544   7.301   5.888  14.957  0.0475  1.0148  1.4484
  183DOPC  C31622545   7.495   5.935  15.032 -0.1750 -0.0073 -0.5346
  183DOPC  H16X22546   7.490   6.035  14.984  0.6736  0.0006 -0.6262
  183DOPC  H16Y22547   7.467   5.929  15.139 -1.1734 -2.8796 -0.8871
  183DOPC  C31722548   7.644   5.880  15.033  0.2990  0.3113  0.4450
  183DOPC  H17X22549   7.632   5.770  15.044 -0.1577  0.3820  0.6844
  183DOPC  H17Y22550   7.696   5.895  14.936  2.2956  1.2761  1.5833
  183DOPC  C31822551   7.730   5.947  15.143 -0.0190 -0.8112  0.8065
  183DOPC  H18X22552   7.830   5.897  15.140  0.0799 -0.5653 -0.7934
  183DOPC  H18Y22553   7.758   6.049  15.111 -1.2551 -1.0117 -1.0773
  183DOPC  H18Z22554   7.671   5.950  15.237  0.9309  0.5866  1.3776
  184DOPC     N22555   4.257   0.931  12.737  0.7044 -0.4254 -0.3275
  184DOPC   C1222556   4.388   0.882  12.686  0.6546 -0.2618  0.1881
  184DOPC  H12A22557   4.438   0.965  12.638  0.8658 -0.0695  0.7338
  184DOPC  H12B22558   4.377   0.794  12.624  0.0463 -1.5363  2.0317
  184DOPC   C1322559   4.196   0.816  12.810  0.4373 -0.1011 -0.0032
  184DOPC  H13A22560   4.200   0.728  12.748  1.2902 -0.2090  0.1920
  184DOPC  H13B22561   4.239   0.807  12.909  3.0230  4.1569 -0.4923
  184DOPC  H13C22562   4.092   0.840  12.826 -0.0171 -1.4408 -0.8186
  184DOPC   C1422563   4.173   0.970  12.619  0.2336 -0.4539 -0.6209
  184DOPC  H14A22564   4.202   1.059  12.565 -0.8336 -0.9926 -2.1631
  184DOPC  H14B22565   4.166   0.889  12.548 -1.8003  0.5853 -1.6975
  184DOPC  H14C22566   4.068   0.984  12.642  0.1757  0.4280 -1.3807
  184DOPC   C1522567   4.275   1.053  12.822 -0.0951 -0.0985 -0.1691
  184DOPC  H15A22568   4.351   1.031  12.896 -0.7479  1.0722  0.8939
  184DOPC  H15B22569   4.180   1.065  12.871  0.5753  0.3095  1.0963
  184DOPC  H15C22570   4.305   1.141  12.767 -0.1998 -0.5587 -0.9823
  184DOPC   C1122571   4.487   0.849  12.799  0.3472  0.1625  0.2162
  184DOPC  H11A22572   4.434   0.800  12.884 -0.5449 -1.3590 -1.1550
  184DOPC  H11B22573   4.560   0.777  12.756 -2.0371 -0.7964 -2.5814
  184DOPC     P22574   4.667   0.984  12.936  0.2900  0.2338  0.3679
  184DOPC   O1322575   4.654   1.106  13.024  0.3996  0.4620  0.9843
  184DOPC   O1422576   4.791   0.960  12.854  0.4012 -0.3360  0.5069
  184DOPC   O1222577   4.547   0.972  12.832 -0.1692  0.4071 -0.0676
  184DOPC   O1122578   4.649   0.860  13.028  0.0102  0.5053  0.1998
  184DOPC    C122579   4.543   0.866  13.130 -0.0538  0.0238  0.2115
  184DOPC    HA22580   4.481   0.773  13.125  1.2631 -0.8175 -2.1575
  184DOPC    HB22581   4.470   0.948  13.113 -0.0622 -0.1434 -0.5882
  184DOPC    C222582   4.592   0.881  13.278 -0.6506  0.4467  0.3374
  184DOPC    HS22583   4.675   0.954  13.279  1.6628 -1.9607 -1.2905
  184DOPC   O2122584   4.636   0.754  13.321  0.3371  0.0255  0.2609
  184DOPC   C2122585   4.765   0.732  13.301  0.0349 -0.1934  0.6315
  184DOPC   O2222586   4.846   0.819  13.261  0.4440  0.9258  0.9878
  184DOPC   C2222587   4.806   0.587  13.325  0.7842 -0.0352 -0.5994
  184DOPC   H2R22588   4.831   0.558  13.221 -0.7048  0.5190 -1.1399
  184DOPC   H2S22589   4.715   0.535  13.361  0.3251  1.9287  1.3042
  184DOPC    C322590   4.473   0.918  13.371 -0.0919  0.3895  0.1287
  184DOPC    HX22591   4.400   0.834  13.372 -0.5740  0.6772 -2.3240
  184DOPC    HY22592   4.422   1.006  13.325  0.0996  0.6533  0.4162
  184DOPC   O3122593   4.520   0.942  13.505 -0.2831 -0.0298 -0.0746
  184DOPC   C3122594   4.587   1.053  13.526  0.0780 -0.2683  0.4439
  184DOPC   O3222595   4.602   1.145  13.446 -0.1954  0.7548 -0.4286
  184DOPC   C3222596   4.632   1.060  13.669 -0.3877  0.1618 -0.1419
  184DOPC   H2X22597   4.577   1.148  13.707 -1.4808  0.2809 -1.8757
  184DOPC   H2Y22598   4.602   0.968  13.723 -2.0143 -0.0985 -1.3998
  184DOPC   C2322599   4.926   0.565  13.427 -0.0508  0.3947  0.2094
  184DOPC   H3R22600   5.013   0.634  13.416  0.0370  0.0312 -1.7128
  184DOPC   H3S22601   4.965   0.463  13.403  0.3637  0.7941 -0.9068
  184DOPC   C2422602   4.877   0.579  13.570 -0.2776 -0.2752  0.3093
  184DOPC   H4R22603   4.793   0.507  13.572 -0.4184 -0.1649 -0.8792
  184DOPC   H4S22604   4.850   0.685  13.587  3.8806  1.0703 -0.3304
  184DOPC   C2522605   4.976   0.541  13.680 -0.3230  0.2416  0.5379
  184DOPC   H5R22606   5.064   0.608  13.687 -0.0937 -0.1719  1.9422
  184DOPC   H5S22607   5.019   0.441  13.660 -0.0253  0.3777  0.4951
  184DOPC   C2622608   4.906   0.526  13.818  0.4741  0.1791  0.3865
  184DOPC   H6R22609   4.973   0.469  13.885  1.5306 -0.6770 -1.3050
  184DOPC   H6S22610   4.813   0.468  13.803 -0.2592  1.3943  0.0099
  184DOPC   C2722611   4.875   0.663  13.891  0.9003  0.1711 -0.4225
  184DOPC   H7R22612   4.796   0.719  13.837 -1.1791 -3.6439 -1.7233
  184DOPC   H7S22613   4.966   0.724  13.873  0.7386 -0.3949 -3.9091
  184DOPC   C2822614   4.847   0.655  14.042  0.7901  0.2190 -0.1776
  184DOPC   H8R22615   4.751   0.600  14.053  0.1283  1.5319  0.8941
  184DOPC   H8S22616   4.817   0.760  14.066 -2.5720  0.0148 -2.7259
  184DOPC   C2922617   4.964   0.606  14.124 -0.3612  0.3674  0.5586
  184DOPC   H9R22618   4.995   0.506  14.090  0.2557  0.9684 -0.7486
  184DOPC  C21022619   5.027   0.672  14.222 -0.6998 -0.8404 -0.3506
  184DOPC  H10R22620   5.115   0.632  14.274  0.0347  0.4242 -0.5731
  184DOPC  C21122621   4.985   0.811  14.259 -0.0963  0.0434 -0.7675
  184DOPC  H11R22622   4.884   0.805  14.306 -1.1866 -0.3899 -3.0380
  184DOPC  H11S22623   4.980   0.885  14.176 -2.6724 -0.1405 -0.8691
  184DOPC  C21222624   5.079   0.875  14.370  0.1334 -0.0701 -0.4982
  184DOPC  H12R22625   5.036   0.976  14.389  1.0627  0.1373  0.6348
  184DOPC  H12S22626   5.186   0.884  14.341  0.5604  0.0312  0.9975
  184DOPC  C21322627   5.094   0.798  14.508  0.0336 -0.0772 -0.1631
  184DOPC  H13R22628   5.161   0.711  14.491  0.1231 -0.6250  2.5103
  184DOPC  H13S22629   4.993   0.760  14.535 -0.0349  0.8842  1.0103
  184DOPC  C21422630   5.157   0.868  14.635  0.7623 -0.5623  0.0650
  184DOPC  H14R22631   5.259   0.902  14.610  0.8880  0.5017  1.7864
  184DOPC  H14S22632   5.168   0.799  14.721  0.2883  0.1979  0.7621
  184DOPC  C21522633   5.064   0.987  14.678 -0.5615  0.0924  0.0289
  184DOPC  H15R22634   5.041   1.047  14.587 -1.4537  1.0589  0.8674
  184DOPC  H15S22635   5.123   1.044  14.753  2.3166 -0.6790 -1.4690
  184DOPC  C21622636   4.934   0.942  14.744  0.7599  0.0777 -0.6683
  184DOPC  H16R22637   4.873   0.887  14.670  0.6475  1.0029 -1.2911
  184DOPC  H16S22638   4.882   1.039  14.763  0.5438 -0.0508 -0.6121
  184DOPC  C21722639   4.954   0.887  14.890 -0.0299 -1.0404  0.4900
  184DOPC  H17R22640   5.029   0.954  14.938  1.3879 -1.3675 -1.1578
  184DOPC  H17S22641   4.998   0.785  14.885 -1.2782 -1.6238  1.1009
  184DOPC  C21822642   4.828   0.876  14.970  0.5357  0.2942 -0.9236
  184DOPC  H18R22643   4.844   0.846  15.076 -2.0084  2.5174  0.2065
  184DOPC  H18S22644   4.759   0.803  14.923  1.2701 -1.9103  1.1696
  184DOPC  H18T22645   4.770   0.969  14.983  1.0029  0.3832  0.7526
  184DOPC   C3322646   4.782   1.089  13.682  0.4792  0.1685  0.1029
  184DOPC   H3X22647   4.800   1.191  13.642  2.5025 -1.1623 -2.7024
  184DOPC   H3Y22648   4.843   1.012  13.631  1.7640  0.6390  0.8846
  184DOPC   C3422649   4.845   1.076  13.825 -0.3280  0.1529 -0.3079
  184DOPC   H4X22650   4.956   1.080  13.817 -0.1618  0.6477  1.6191
  184DOPC   H4Y22651   4.827   0.974  13.864 -2.0027  0.0891 -1.1240
  184DOPC   C3522652   4.798   1.180  13.929 -0.0638  0.5466  0.2253
  184DOPC   H5X22653   4.687   1.176  13.931 -0.0691  0.4727 -0.1606
  184DOPC   H5Y22654   4.832   1.275  13.883 -0.9676 -0.4662 -2.7276
  184DOPC   C3622655   4.852   1.158  14.075  0.5261  0.3600  0.1857
  184DOPC   H6X22656   4.799   1.082  14.135  1.9558 -0.4624  0.4597
  184DOPC   H6Y22657   4.961   1.138  14.067  1.0504  3.1218 -0.8136
  184DOPC   C3722658   4.855   1.292  14.151  0.2241 -0.2192  0.3546
  184DOPC   H7X22659   4.916   1.362  14.091 -3.3259  1.2977 -1.8406
  184DOPC   H7Y22660   4.754   1.340  14.154  0.1104 -0.2506 -1.7118
  184DOPC   C3822661   4.911   1.276  14.298 -0.1795 -0.4719 -0.3132
  184DOPC   H8X22662   4.949   1.370  14.341  0.2151 -1.3337  1.2825
  184DOPC   H8Y22663   4.985   1.193  14.295  0.2574 -0.1425  0.9023
  184DOPC   C3922664   4.801   1.232  14.393 -0.0411 -0.1575 -0.1121
  184DOPC   H9X22665   4.705   1.201  14.350  0.8580 -1.8043 -1.0452
  184DOPC  C31022666   4.801   1.242  14.529 -0.0354  0.7951 -1.1365
  184DOPC  H10X22667   4.717   1.201  14.588  2.0381 -0.3147  1.2708
  184DOPC  C31122668   4.920   1.291  14.604 -0.1457 -0.4413  0.4400
  184DOPC  H11X22669   5.017   1.266  14.556  0.1655  1.4412  0.0002
  184DOPC  H11Y22670   4.927   1.256  14.709  1.3254  1.7183  1.1373
  184DOPC  C31222671   4.929   1.442  14.632  0.6923 -0.3769  0.3497
  184DOPC  H12X22672   4.949   1.492  14.534  1.3635 -1.6425 -0.1848
  184DOPC  H12Y22673   5.013   1.453  14.704  0.9820 -0.2945  0.0067
  184DOPC  C31322674   4.814   1.519  14.696 -0.3041  0.0230 -0.3752
  184DOPC  H13X22675   4.736   1.548  14.623  2.1100  0.2128 -3.0865
  184DOPC  H13Y22676   4.770   1.470  14.785  0.0557  0.1587 -0.1165
  184DOPC  C31422677   4.856   1.667  14.746 -0.3239  0.1926 -0.0949
  184DOPC  H14X22678   4.899   1.711  14.654 -0.5071  2.8136  0.9934
  184DOPC  H14Y22679   4.770   1.732  14.772  0.1478 -0.0509  2.2562
  184DOPC  C31522680   4.957   1.680  14.868  0.4259  0.1052 -0.5871
  184DOPC  H15X22681   4.990   1.786  14.860 -0.1758  0.5682  2.0290
  184DOPC  H15Y22682   5.042   1.610  14.861  0.9646  0.4125  2.0163
  184DOPC  C31622683   4.890   1.676  15.000  0.3683 -0.2304  0.0783
  184DOPC  H16X22684   4.830   1.769  15.008 -2.1185 -1.6345 -0.9280
  184DOPC  H16Y22685   4.814   1.595  15.010 -2.0494  1.9371  0.4719
  184DOPC  C31722686   4.977   1.686  15.129 -0.3358  0.7204 -0.4463
  184DOPC  H17X22687   4.934   1.656  15.227  0.2082 -0.3031 -0.5021
  184DOPC  H17Y22688   5.046   1.601  15.108  0.0389  1.0845 -0.6885
  184DOPC  C31822689   5.055   1.813  15.153 -0.2624 -0.3878 -0.2319
  184DOPC  H18X22690   5.000   1.910  15.156 -1.7609 -1.2328  1.9393
  184DOPC  H18Y22691   5.110   1.811  15.250 -0.0394 -1.4718 -0.3660
  184DOPC  H18Z22692   5.120   1.821  15.063 -0.8441 -2.0067 -0.8294
  185DOPC     N22693   5.926   6.333  12.743 -0.7012 -0.5448  0.8680
  185DOPC   C1222694   6.058   6.262  12.741 -0.7704  0.5279 -0.6193
  185DOPC  H12A22695   6.115   6.278  12.650 -1.1708  1.5051 -0.7073
  185DOPC  H12B22696   6.030   6.158  12.755  1.0149  0.2955  2.0238
  185DOPC   C1322697   5.835   6.256  12.651  0.1860  0.3500  0.2203
  185DOPC  H13A22698   5.823   6.153  12.679  0.1656  0.4172  0.4587
  185DOPC  H13B22699   5.734   6.294  12.659 -0.0617 -0.4661  1.1139
  185DOPC  H13C22700   5.863   6.255  12.546  0.4361 -0.3195  0.2872
  185DOPC   C1422701   5.955   6.466  12.678 -0.2128  0.1592  0.3925
  185DOPC  H14A22702   6.039   6.524  12.713  0.4026  0.2724 -1.1757
  185DOPC  H14B22703   5.977   6.452  12.573 -0.6953  0.5888  0.2259
  185DOPC  H14C22704   5.869   6.532  12.683  1.2033  2.1270  0.0763
  185DOPC   C1522705   5.869   6.347  12.871  0.3350 -0.1471  0.3257
  185DOPC  H15A22706   5.795   6.424  12.854  0.5981  0.2338  0.8850
  185DOPC  H15B22707   5.937   6.385  12.946  1.8509 -1.1019 -0.5190
  185DOPC  H15C22708   5.818   6.260  12.910 -0.4137 -1.3717 -3.0339
  185DOPC   C1122709   6.158   6.299  12.851  0.0751 -0.3065 -0.5118
  185DOPC  H11A22710   6.103   6.295  12.947 -1.1921 -1.4351 -1.2444
  185DOPC  H11B22711   6.240   6.224  12.859  2.3664  2.1509  0.7100
  185DOPC     P22712   6.303   6.484  12.959 -0.0619  0.0098  0.3264
  185DOPC   O1322713   6.272   6.630  12.955  0.4790  0.0466 -0.3446
  185DOPC   O1422714   6.444   6.442  12.944 -0.0453 -0.2596  0.3998
  185DOPC   O1222715   6.220   6.428  12.842 -0.1501  0.3282  0.6180
  185DOPC   O1122716   6.238   6.429  13.086 -0.3486  0.2316  0.2782
  185DOPC    C122717   6.279   6.466  13.222  0.4446  0.2576  0.1369
  185DOPC    HA22718   6.183   6.480  13.277  0.0878  1.4772 -0.7624
  185DOPC    HB22719   6.324   6.567  13.217  1.5769 -0.2389  0.0066
  185DOPC    C222720   6.358   6.349  13.287  0.0527 -0.2178 -0.0110
  185DOPC    HS22721   6.454   6.337  13.233  0.1788 -0.5860  0.2890
  185DOPC   O2122722   6.278   6.232  13.302  0.1311  1.0330 -0.8752
  185DOPC   C2122723   6.361   6.121  13.313  0.5991  0.1334 -0.9072
  185DOPC   O2222724   6.481   6.122  13.293 -0.2527  0.3136  0.2282
  185DOPC   C2222725   6.280   5.995  13.350  0.1512  0.1749  0.1761
  185DOPC   H2R22726   6.196   5.992  13.278  1.6802  0.1720 -1.7235
  185DOPC   H2S22727   6.228   6.013  13.446 -1.6041  1.3920 -0.9488
  185DOPC    C322728   6.388   6.409  13.429  0.3436  0.4285 -0.1978
  185DOPC    HX22729   6.285   6.418  13.469 -0.3584 -0.9206 -1.5704
  185DOPC    HY22730   6.424   6.513  13.414  2.5476 -0.3982 -1.0360
  185DOPC   O3122731   6.464   6.327  13.513 -0.8543 -0.2717 -0.4864
  185DOPC   C3122732   6.597   6.341  13.507 -0.0402 -0.3763 -0.5422
  185DOPC   O3222733   6.656   6.417  13.432 -0.5459  0.5085 -0.1159
  185DOPC   C3222734   6.664   6.261  13.627  0.2311  0.0272 -0.0265
  185DOPC   H2X22735   6.596   6.193  13.683 -0.8839  1.3251  0.2701
  185DOPC   H2Y22736   6.744   6.199  13.581  0.7186 -0.1631  1.0346
  185DOPC   C2322737   6.355   5.859  13.356  0.2438  1.1278  0.2591
  185DOPC   H3R22738   6.417   5.848  13.264  2.4430 -0.3882  1.8325
  185DOPC   H3S22739   6.275   5.782  13.366  1.9523 -0.4276  3.6994
  185DOPC   C2422740   6.458   5.838  13.471 -0.1427 -0.5407 -0.4333
  185DOPC   H4R22741   6.558   5.865  13.429  0.2960  0.6309  1.2407
  185DOPC   H4S22742   6.452   5.728  13.477  0.3615 -0.6521 -1.6354
  185DOPC   C2522743   6.430   5.903  13.606  0.1280 -0.4283 -0.0385
  185DOPC   H5R22744   6.334   5.862  13.642  0.0923  2.2473  3.4579
  185DOPC   H5S22745   6.416   6.014  13.602 -1.1101 -0.5873 -0.4974
  185DOPC   C2622746   6.542   5.887  13.704  0.0463  0.4905 -0.2859
  185DOPC   H6R22747   6.641   5.915  13.662  0.7687  0.0066  1.0243
  185DOPC   H6S22748   6.553   5.777  13.717 -0.2260  0.5454  0.4600
  185DOPC   C2722749   6.516   5.966  13.836  0.2732  0.2450 -0.2364
  185DOPC   H7R22750   6.409   5.955  13.864  0.9858 -1.1075  2.3229
  185DOPC   H7S22751   6.539   6.071  13.809 -0.0301 -0.1620 -2.1880
  185DOPC   C2822752   6.610   5.934  13.947  0.0213 -0.2181 -0.1964
  185DOPC   H8R22753   6.581   5.834  13.985 -0.1771  0.7217  2.3663
  185DOPC   H8S22754   6.591   6.003  14.033 -0.0433  1.2914 -1.3739
  185DOPC   C2922755   6.758   5.926  13.912 -0.8914  0.1732 -0.6836
  185DOPC   H9R22756   6.797   5.895  13.814  0.3571  2.2342 -0.9118
  185DOPC  C21022757   6.852   5.952  14.008  0.1242  0.6621  0.1482
  185DOPC  H10R22758   6.958   5.927  13.991  0.0359  0.8769 -0.7649
  185DOPC  C21122759   6.830   5.994  14.151 -0.2576  0.0389 -0.4297
  185DOPC  H11R22760   6.738   5.944  14.188  0.5703 -1.1394  0.0901
  185DOPC  H11S22761   6.821   6.104  14.166 -2.0629 -0.2157  0.5581
  185DOPC  C21222762   6.952   5.939  14.231 -0.0106  0.4784  1.0092
  185DOPC  H12R22763   7.041   5.970  14.172  0.5851 -1.9055  0.5438
  185DOPC  H12S22764   6.949   5.828  14.232  1.1915  0.4293  0.5105
  185DOPC  C21322765   6.962   5.988  14.370  0.1597 -0.0558 -0.2387
  185DOPC  H13R22766   6.863   5.969  14.416  0.5715  1.8113  1.5840
  185DOPC  H13S22767   6.978   6.098  14.371  0.1038  0.0095  2.5347
  185DOPC  C21422768   7.065   5.920  14.458  0.4619  0.4625 -0.1725
  185DOPC  H14R22769   7.163   5.930  14.407  0.4645 -2.2879 -0.8787
  185DOPC  H14S22770   7.046   5.811  14.468  0.0059  0.6465  1.0601
  185DOPC  C21522771   7.084   5.974  14.603  0.8130  0.0027  0.2879
  185DOPC  H15R22772   7.117   6.080  14.597  1.0323 -0.0936 -0.3134
  185DOPC  H15S22773   7.154   5.913  14.664  1.2459  1.2101  1.0310
  185DOPC  C21622774   6.959   5.967  14.696  0.2599 -0.6273  0.5180
  185DOPC  H16R22775   6.873   6.031  14.670  0.6241 -0.1720  0.4268
  185DOPC  H16S22776   6.979   6.009  14.797  2.3775  2.0529 -0.8774
  185DOPC  C21722777   6.896   5.829  14.709  0.2261 -0.0328 -0.3518
  185DOPC  H17R22778   6.975   5.751  14.708 -1.1938 -1.5242 -0.3867
  185DOPC  H17S22779   6.832   5.798  14.624 -1.6777 -1.3546  1.4623
  185DOPC  C21822780   6.818   5.805  14.844 -0.6136 -0.6994 -0.2973
  185DOPC  H18R22781   6.898   5.795  14.921 -1.1895  0.4496  0.4891
  185DOPC  H18S22782   6.757   5.713  14.841 -0.6050 -0.6956 -0.6167
  185DOPC  H18T22783   6.747   5.889  14.862 -0.6743 -0.3063 -2.1712
  185DOPC   C3322784   6.722   6.360  13.727 -0.2695  0.2105 -0.1782
  185DOPC   H3X22785   6.645   6.389  13.802 -1.1482 -2.9760  0.3171
  185DOPC   H3Y22786   6.749   6.455  13.676 -0.8115  0.5803  0.2113
  185DOPC   C3422787   6.853   6.295  13.784  1.0253  0.0159 -0.1515
  185DOPC   H4X22788   6.941   6.329  13.725  1.6751  0.6818  1.1385
  185DOPC   H4Y22789   6.837   6.185  13.784  0.3968  0.0619  2.0187
  185DOPC   C3522790   6.877   6.333  13.933  0.4458 -0.0075 -0.1739
  185DOPC   H5X22791   6.956   6.261  13.963  1.8189 -0.1530 -3.7281
  185DOPC   H5Y22792   6.778   6.313  13.981 -0.7555  1.7323 -1.7950
  185DOPC   C3622793   6.916   6.478  13.958  0.2245  0.5750 -0.2477
  185DOPC   H6X22794   7.020   6.486  13.918  0.8785 -3.0139  0.3460
  185DOPC   H6Y22795   6.868   6.561  13.903 -1.8668  0.6117  1.5114
  185DOPC   C3722796   6.923   6.527  14.103  0.3241 -0.5106 -0.8105
  185DOPC   H7X22797   6.982   6.621  14.112 -0.0502 -0.4795  3.8075
  185DOPC   H7Y22798   6.824   6.562  14.138  1.7146  2.1394  0.8740
  185DOPC   C3822799   6.983   6.424  14.202 -0.1452 -0.3228  0.2124
  185DOPC   H8X22800   7.080   6.378  14.173 -0.1445  0.3185 -0.8504
  185DOPC   H8Y22801   6.907   6.343  14.205  1.1438 -1.6368 -0.6472
  185DOPC   C3922802   7.016   6.479  14.344  0.3000  0.5395 -0.3967
  185DOPC   H9X22803   7.090   6.561  14.340  0.1199  0.6884 -0.6423
  185DOPC  C31022804   6.967   6.449  14.465 -0.4006  0.1444 -0.7179
  185DOPC  H10X22805   7.010   6.500  14.552 -0.4413 -0.2214 -0.4858
  185DOPC  C31122806   6.865   6.348  14.499  0.0081  0.7088  0.3752
  185DOPC  H11X22807   6.892   6.286  14.587 -1.1972  0.3494  0.5149
  185DOPC  H11Y22808   6.863   6.279  14.413  1.3976 -0.2248  1.0520
  185DOPC  C31222809   6.726   6.396  14.517 -0.2815 -0.0067 -0.2471
  185DOPC  H12X22810   6.668   6.305  14.544 -0.0965  0.1377  0.6786
  185DOPC  H12Y22811   6.681   6.439  14.426 -1.7862 -0.9014  0.0294
  185DOPC  C31322812   6.709   6.486  14.639  0.0099 -0.0712  0.1786
  185DOPC  H13X22813   6.763   6.428  14.716  0.7985  1.4434  0.8110
  185DOPC  H13Y22814   6.778   6.571  14.618  1.1552 -0.8085  0.8288
  185DOPC  C31422815   6.566   6.527  14.687 -0.2997  0.1311 -0.3120
  185DOPC  H14X22816   6.513   6.572  14.600  1.0321  1.1685 -0.6127
  185DOPC  H14Y22817   6.521   6.428  14.712  0.0673 -0.3393 -1.4668
  185DOPC  C31522818   6.578   6.614  14.809  0.4833  0.0424 -0.1405
  185DOPC  H15X22819   6.616   6.714  14.782  0.4445  0.0732 -0.0792
  185DOPC  H15Y22820   6.644   6.562  14.883  0.6998 -0.2344 -0.5231
  185DOPC  C31622821   6.427   6.626  14.864 -0.4783  0.1268  0.0892
  185DOPC  H16X22822   6.383   6.706  14.801  1.3737 -0.2703 -1.8357
  185DOPC  H16Y22823   6.366   6.541  14.828 -0.2986  1.3604 -3.6305
  185DOPC  C31722824   6.415   6.674  15.006 -0.0657 -0.0258  0.5487
  185DOPC  H17X22825   6.479   6.764  15.021 -0.6476  0.8539 -1.7859
  185DOPC  H17Y22826   6.314   6.710  15.033  0.1536  0.8198  0.2826
  185DOPC  C31822827   6.445   6.577  15.119 -0.4026  0.4573  0.6182
  185DOPC  H18X22828   6.363   6.503  15.130 -1.4970  1.8813  2.5951
  185DOPC  H18Y22829   6.539   6.527  15.086 -1.8405 -1.0999 -1.3895
  185DOPC  H18Z22830   6.469   6.634  15.211 -0.2450  1.0746  0.2057
  186DOPC     N22831   6.643   2.788  13.012 -0.6786  0.1936  0.6976
  186DOPC   C1222832   6.696   2.788  13.156  0.4154  0.3507  0.0039
  186DOPC  H12A22833   6.791   2.738  13.166  0.2019 -0.7011 -2.6259
  186DOPC  H12B22834   6.629   2.719  13.207  0.1359 -0.7467 -1.7692
  186DOPC   C1322835   6.744   2.877  12.936 -0.1524  0.1204  0.4189
  186DOPC  H13A22836   6.845   2.841  12.949 -0.4132 -1.0741 -0.6090
  186DOPC  H13B22837   6.727   2.876  12.829  1.5780  0.4533  0.1153
  186DOPC  H13C22838   6.741   2.978  12.972 -3.7884  0.9577 -1.7549
  186DOPC   C1422839   6.512   2.861  13.001  0.1370 -0.5395  0.6407
  186DOPC  H14A22840   6.529   2.960  13.041 -0.0506  0.0679 -0.7034
  186DOPC  H14B22841   6.480   2.858  12.897  3.6723 -3.1717 -0.5673
  186DOPC  H14C22842   6.434   2.813  13.058  1.2319 -1.0384  1.7521
  186DOPC   C1522843   6.642   2.657  12.938  0.2370  0.0610  0.2885
  186DOPC  H15A22844   6.597   2.678  12.842  3.1678  0.4889 -1.0824
  186DOPC  H15B22845   6.582   2.583  12.991 -0.7923 -0.5277 -1.6057
  186DOPC  H15C22846   6.738   2.618  12.910  0.4321  1.6160 -1.3679
  186DOPC   C1122847   6.707   2.916  13.240  0.0896 -0.1239  0.3033
  186DOPC  H11A22848   6.607   2.963  13.241 -1.4759 -3.1413 -0.8131
  186DOPC  H11B22849   6.716   2.893  13.349  1.0207 -0.6652  0.1243
  186DOPC     P22850   6.954   2.967  13.218  0.1288 -0.4795  0.3386
  186DOPC   O1322851   7.029   2.985  13.087  0.4787  0.1346 -0.2058
  186DOPC   O1422852   6.953   2.826  13.277  0.0019 -0.7252 -0.4803
  186DOPC   O1222853   6.805   3.005  13.192  0.2129 -0.5000  0.0879
  186DOPC   O1122854   7.008   3.070  13.318 -0.5272  0.1473 -0.0992
  186DOPC    C122855   6.947   3.071  13.447  0.2443 -0.2523 -0.0387
  186DOPC    HA22856   6.912   2.971  13.479  0.1587  0.1500  1.1736
  186DOPC    HB22857   6.861   3.139  13.458  0.2611 -0.6156  3.8866
  186DOPC    C222858   7.052   3.135  13.547 -0.0138  0.2341  0.2325
  186DOPC    HS22859   6.995   3.162  13.638  0.5279 -3.8160  2.0218
  186DOPC   O2122860   7.116   3.256  13.502 -0.0261 -0.0912  0.8866
  186DOPC   C2122861   7.031   3.356  13.449 -0.3699  0.3087 -0.2387
  186DOPC   O2222862   6.909   3.353  13.455  0.4239 -0.3743  0.0364
  186DOPC   C2222863   7.114   3.469  13.381  0.1052 -0.5450  1.0870
  186DOPC   H2R22864   7.039   3.549  13.365  0.7702 -0.3538 -1.8254
  186DOPC   H2S22865   7.154   3.438  13.282 -0.8067 -0.2068  0.5991
  186DOPC    C322866   7.169   3.038  13.580  0.3892  0.2069 -0.3829
  186DOPC    HX22867   7.257   3.087  13.625  0.9749  0.3507 -1.6277
  186DOPC    HY22868   7.201   2.991  13.484  0.7049 -0.6550  0.1295
  186DOPC   O3122869   7.118   2.933  13.667  0.5467 -0.3295  0.1439
  186DOPC   C3122870   7.100   2.969  13.791 -0.2372 -0.2879 -0.1392
  186DOPC   O3222871   7.119   3.080  13.841  0.4671 -0.9072  0.5823
  186DOPC   C3222872   7.042   2.855  13.876  0.4025 -0.0885 -0.1865
  186DOPC   H2X22873   6.977   2.904  13.952 -1.2868  2.0765 -2.8125
  186DOPC   H2Y22874   6.984   2.791  13.806 -1.0808 -0.3419  1.2039
  186DOPC   C2322875   7.241   3.510  13.462 -0.4025 -0.5832  0.8046
  186DOPC   H3R22876   7.298   3.572  13.390  0.8324 -0.4841  1.8250
  186DOPC   H3S22877   7.307   3.422  13.476 -0.3566 -0.4352  1.5393
  186DOPC   C2422878   7.193   3.590  13.589  0.3482  0.2025  0.0067
  186DOPC   H4R22879   7.102   3.650  13.566  0.4342  0.0918 -0.6236
  186DOPC   H4S22880   7.271   3.663  13.618  0.1072 -0.4464  2.6140
  186DOPC   C2522881   7.177   3.496  13.709 -0.3051  0.4741  0.5253
  186DOPC   H5R22882   7.273   3.444  13.729 -1.4602 -0.8311  3.2082
  186DOPC   H5S22883   7.089   3.428  13.705 -0.9211  1.2845 -0.1762
  186DOPC   C2622884   7.138   3.577  13.833 -0.4517  0.2257  0.4256
  186DOPC   H6R22885   7.035   3.614  13.814  0.3797  2.0655 -0.7792
  186DOPC   H6S22886   7.205   3.666  13.833  0.5543 -0.4958 -0.8661
  186DOPC   C2722887   7.158   3.494  13.959 -0.4651  0.2002 -0.0772
  186DOPC   H7R22888   7.263   3.458  13.961 -0.0405  1.3983  1.0668
  186DOPC   H7S22889   7.089   3.408  13.946 -0.5459  0.1557  0.5785
  186DOPC   C2822890   7.120   3.560  14.093 -0.2057  0.0683  0.3029
  186DOPC   H8R22891   7.093   3.481  14.167  1.9539 -0.6410  0.4064
  186DOPC   H8S22892   7.035   3.626  14.066 -0.6055 -0.9813 -1.1697
  186DOPC   C2922893   7.222   3.651  14.143  0.0337  0.8853  0.1133
  186DOPC   H9R22894   7.248   3.725  14.066 -1.6880  0.9072 -0.4803
  186DOPC  C21022895   7.266   3.675  14.268  0.3856  0.5698  0.8425
  186DOPC  H10R22896   7.359   3.731  14.278  0.6523  0.6067 -1.3742
  186DOPC  C21122897   7.223   3.612  14.400 -0.4776  0.4522 -0.6622
  186DOPC  H11R22898   7.144   3.535  14.384 -0.7505  0.5608  0.1438
  186DOPC  H11S22899   7.172   3.691  14.459 -2.2427 -1.1259  0.0281
  186DOPC  C21222900   7.341   3.551  14.479  0.4062  0.1998 -0.4068
  186DOPC  H12R22901   7.415   3.631  14.503  1.5429 -0.2766 -2.1523
  186DOPC  H12S22902   7.388   3.467  14.424  1.2995  0.3479  0.0905
  186DOPC  C21322903   7.277   3.506  14.614 -0.4662  0.3161  0.1565
  186DOPC  H13R22904   7.199   3.430  14.592 -1.4984  1.2454  0.5307
  186DOPC  H13S22905   7.242   3.600  14.662  2.1822  0.9711  0.9797
  186DOPC  C21422906   7.376   3.429  14.713 -0.3103 -0.8284 -0.2133
  186DOPC  H14R22907   7.463   3.496  14.727 -0.5210 -0.3152 -1.2794
  186DOPC  H14S22908   7.400   3.338  14.654 -3.5586 -1.1678 -1.2054
  186DOPC  C21522909   7.315   3.383  14.836 -0.5128  0.3675  0.2903
  186DOPC  H15R22910   7.385   3.313  14.886  0.7054  2.5512  1.8217
  186DOPC  H15S22911   7.223   3.326  14.812  1.2839 -1.4678 -2.8013
  186DOPC  C21622912   7.287   3.500  14.935  0.0220 -0.7382  0.0678
  186DOPC  H16R22913   7.242   3.590  14.888  1.0365  0.4483  1.2999
  186DOPC  H16S22914   7.383   3.542  14.973 -2.0551  2.0607  2.6837
  186DOPC  C21722915   7.192   3.458  15.050  0.2163 -0.2538 -0.2710
  186DOPC  H17R22916   7.237   3.378  15.113  1.1190  0.1983 -0.3306
  186DOPC  H17S22917   7.104   3.420  14.993  0.7505 -1.0407 -0.5835
  186DOPC  C21822918   7.155   3.573  15.142  0.2213  0.0187  1.2865
  186DOPC  H18R22919   7.089   3.532  15.221 -1.3927 -0.7012 -0.3484
  186DOPC  H18S22920   7.093   3.653  15.096  1.9618  0.1806 -0.9849
  186DOPC  H18T22921   7.246   3.621  15.185  0.8379  0.7006 -0.6401
  186DOPC   C3322922   7.146   2.774  13.948  0.1130 -0.1154  0.2677
  186DOPC   H3X22923   7.221   2.732  13.877 -1.4609 -0.7098 -1.1198
  186DOPC   H3Y22924   7.102   2.684  13.995 -1.6782  0.7697  0.3411
  186DOPC   C3422925   7.211   2.831  14.066 -0.1708 -0.5625  0.6326
  186DOPC   H4X22926   7.127   2.858  14.133  0.5270 -0.8773  1.6630
  186DOPC   H4Y22927   7.260   2.929  14.050  0.8315 -1.2781 -1.0114
  186DOPC   C3522928   7.287   2.721  14.131 -0.5660  0.6078  0.1924
  186DOPC   H5X22929   7.369   2.697  14.060  0.1468 -0.7162  1.3960
  186DOPC   H5Y22930   7.216   2.636  14.139 -1.8150  1.5085 -0.9042
  186DOPC   C3622931   7.359   2.754  14.268 -0.6693 -0.4291  0.3899
  186DOPC   H6X22932   7.419   2.847  14.258  1.4168 -1.7177  0.2643
  186DOPC   H6Y22933   7.278   2.779  14.341  2.2510  2.5775  2.9206
  186DOPC   C3722934   7.471   2.658  14.319  0.3979  0.0965  0.3223
  186DOPC   H7X22935   7.560   2.676  14.254  1.0238  0.8988  1.3789
  186DOPC   H7Y22936   7.491   2.693  14.422  1.1702 -1.2100  0.6484
  186DOPC   C3822937   7.431   2.508  14.324  0.1906 -0.3615  0.0873
  186DOPC   H8X22938   7.524   2.453  14.349  1.6239  1.3827 -1.1566
  186DOPC   H8Y22939   7.409   2.481  14.219 -0.0749  0.9458 -0.2154
  186DOPC   C3922940   7.315   2.483  14.421 -0.7601 -0.1253  0.0552
  186DOPC   H9X22941   7.221   2.507  14.369 -1.6045  2.3880  2.4936
  186DOPC  C31022942   7.325   2.460  14.553  0.0049  0.2479  0.5726
  186DOPC  H10X22943   7.232   2.448  14.611  0.9642 -2.3499  1.7470
  186DOPC  C31122944   7.450   2.461  14.633 -1.1487 -0.3200  0.3817
  186DOPC  H11X22945   7.501   2.558  14.617 -0.6534 -0.0831  2.9890
  186DOPC  H11Y22946   7.523   2.386  14.596 -0.0872  1.1594 -0.5861
  186DOPC  C31222947   7.437   2.447  14.787  0.0775 -0.5599  0.0716
  186DOPC  H12X22948   7.372   2.528  14.826  0.1253 -0.2942 -0.3925
  186DOPC  H12Y22949   7.541   2.466  14.821  0.5817 -2.8941  0.0037
  186DOPC  C31322950   7.382   2.313  14.833  0.4947 -0.4759 -0.7651
  186DOPC  H13X22951   7.287   2.290  14.780  1.5899 -1.7190 -2.2821
  186DOPC  H13Y22952   7.453   2.229  14.819  0.1712 -1.1860  1.4285
  186DOPC  C31422953   7.349   2.298  14.987 -0.0269 -0.0980  0.8701
  186DOPC  H14X22954   7.255   2.347  15.019  1.5810  1.8330  2.9631
  186DOPC  H14Y22955   7.331   2.191  15.013 -1.1210 -0.0903  0.1885
  186DOPC  C31522956   7.466   2.357  15.073 -0.3989 -0.2615 -0.1437
  186DOPC  H15X22957   7.441   2.351  15.181 -0.3698 -0.0267 -0.1222
  186DOPC  H15Y22958   7.468   2.465  15.046  0.6148 -0.3485 -0.4856
  186DOPC  C31622959   7.600   2.284  15.048  0.1424  0.0849  0.7843
  186DOPC  H16X22960   7.592   2.177  15.075 -2.2283 -0.3816 -1.3168
  186DOPC  H16Y22961   7.635   2.278  14.943  1.6652  0.5305  1.2532
  186DOPC  C31722962   7.719   2.346  15.120  0.9491 -0.0616  0.3407
  186DOPC  H17X22963   7.808   2.291  15.082  1.4792  0.5352  0.7023
  186DOPC  H17Y22964   7.723   2.456  15.108 -1.9283 -0.0225 -0.9452
  186DOPC  C31822965   7.711   2.323  15.271 -0.7479 -0.5029  0.7992
  186DOPC  H18X22966   7.800   2.359  15.327 -1.1650 -1.1230  1.8767
  186DOPC  H18Y22967   7.638   2.401  15.301  1.1139  1.6335  0.0974
  186DOPC  H18Z22968   7.692   2.220  15.307  1.8267 -1.4394 -0.2994
  187DOPC     N22969   6.842   1.346  12.863  0.2791  0.3913  0.2784
  187DOPC   C1222970   6.729   1.382  12.957  0.2816 -0.1282  0.0742
  187DOPC  H12A22971   6.634   1.383  12.907  0.0280 -1.3779  0.4847
  187DOPC  H12B22972   6.742   1.481  12.998 -0.3181  0.3974 -0.9545
  187DOPC   C1322973   6.784   1.222  12.790 -0.4331  0.2429  0.1172
  187DOPC  H13A22974   6.691   1.242  12.740  0.3271 -1.7488 -2.3096
  187DOPC  H13B22975   6.853   1.188  12.714 -2.6201 -0.7210 -1.5060
  187DOPC  H13C22976   6.762   1.148  12.866 -2.4674 -0.2597 -0.9119
  187DOPC   C1422977   6.971   1.322  12.926 -0.7654 -0.1599  1.0938
  187DOPC  H14A22978   7.008   1.408  12.979 -0.2143  0.0102  0.4520
  187DOPC  H14B22979   6.979   1.234  12.989 -0.6808 -0.3720  0.7894
  187DOPC  H14C22980   7.040   1.299  12.846  0.5393  0.2940  2.0744
  187DOPC   C1522981   6.862   1.444  12.755  1.3678 -0.0094 -0.3953
  187DOPC  H15A22982   6.946   1.511  12.763  0.0490  1.5570  1.6081
  187DOPC  H15B22983   6.780   1.514  12.742  0.4788 -0.6483  1.4214
  187DOPC  H15C22984   6.858   1.391  12.661  0.6602  0.1515 -0.4643
  187DOPC   C1122985   6.711   1.293  13.085 -0.4667 -0.0656 -0.1679
  187DOPC  H11A22986   6.810   1.288  13.136 -1.0001 -0.6084  0.8470
  187DOPC  H11B22987   6.639   1.334  13.158 -0.4217 -0.8490  0.3322
  187DOPC     P22988   6.525   1.129  13.026 -0.3671 -0.1508  0.2212
  187DOPC   O1322989   6.521   1.011  12.934  0.0656  0.0559 -0.4319
  187DOPC   O1422990   6.453   1.250  12.975 -0.0535  0.6399  0.0990
  187DOPC   O1222991   6.679   1.158  13.047 -0.0212 -0.3112 -0.2348
  187DOPC   O1122992   6.468   1.091  13.167 -0.3385  0.7946 -0.2175
  187DOPC    C122993   6.526   0.986  13.245  0.2053  0.2202 -0.4195
  187DOPC    HA22994   6.630   0.958  13.218  1.0290  2.1631  0.5709
  187DOPC    HB22995   6.473   0.888  13.248 -0.1603  0.4323  1.3593
  187DOPC    C222996   6.556   1.039  13.389 -0.0960 -0.1451  0.6383
  187DOPC    HS22997   6.617   0.960  13.438 -1.4140 -2.2896 -1.0413
  187DOPC   O2122998   6.433   1.065  13.461  0.1652  0.0533  0.1406
  187DOPC   C2122999   6.365   0.955  13.492  0.0340 -0.2370 -0.5808
  187DOPC   O2223000   6.393   0.840  13.458  0.3730 -0.6066  0.0909
  187DOPC   C2223001   6.256   0.994  13.588 -0.3700  0.0078 -0.0002
  187DOPC   H2R23002   6.305   1.030  13.681  2.0313  0.6292 -1.4001
  187DOPC   H2S23003   6.193   0.906  13.609 -1.8556  0.4722 -2.1384
  187DOPC    C323004   6.633   1.168  13.398 -0.0008  0.1253 -0.2561
  187DOPC    HX23005   6.563   1.233  13.341  0.6215 -1.0865 -2.5134
  187DOPC    HY23006   6.732   1.172  13.348  0.5372 -1.3713  0.6448
  187DOPC   O3123007   6.639   1.215  13.538  0.6219 -0.1803  0.1366
  187DOPC   C3123008   6.737   1.179  13.608 -0.1700  1.1238 -0.2174
  187DOPC   O3223009   6.824   1.098  13.578  0.3617 -0.0756 -0.5458
  187DOPC   C3223010   6.730   1.247  13.745 -0.0440  0.1475 -0.5340
  187DOPC   H2X23011   6.747   1.356  13.742  0.0561  0.1916  0.8633
  187DOPC   H2Y23012   6.622   1.236  13.770 -0.0116 -0.6828 -0.7035
  187DOPC   C2323013   6.158   1.092  13.519 -0.3111  0.6264 -0.0137
  187DOPC   H3R23014   6.112   1.045  13.430  0.5001  0.3493 -0.3034
  187DOPC   H3S23015   6.218   1.181  13.492 -2.9920  3.0968  1.6863
  187DOPC   C2423016   6.051   1.143  13.620 -0.5454 -0.1468  0.0919
  187DOPC   H4R23017   5.983   1.055  13.623  0.5633 -1.0086  0.6854
  187DOPC   H4S23018   5.978   1.209  13.568 -2.0841 -0.5273  1.6786
  187DOPC   C2523019   6.098   1.192  13.758  0.3569  0.2884 -0.1049
  187DOPC   H5R23020   6.155   1.285  13.737  2.3660 -1.2845 -2.2040
  187DOPC   H5S23021   6.169   1.117  13.800  0.9167 -0.1202 -1.6791
  187DOPC   C2623022   5.978   1.216  13.857  0.1849  0.3057  0.4485
  187DOPC   H6R23023   5.896   1.252  13.791  0.7034 -0.4562 -0.6504
  187DOPC   H6S23024   6.013   1.293  13.929 -0.7052  2.8061 -1.6361
  187DOPC   C2723025   5.930   1.084  13.922 -0.0142  0.4910 -0.3742
  187DOPC   H7R23026   6.004   1.051  13.998 -1.6116 -2.3511  0.1191
  187DOPC   H7S23027   5.939   1.011  13.839 -0.4987  1.6157 -1.4306
  187DOPC   C2823028   5.782   1.097  13.962  0.0338 -0.6266  0.0991
  187DOPC   H8R23029   5.758   1.003  14.016  2.3814 -0.1169  2.2046
  187DOPC   H8S23030   5.714   1.101  13.874  0.6822  0.1871 -0.3775
  187DOPC   C2923031   5.764   1.203  14.063  0.2324  0.2929  0.1203
  187DOPC   H9R23032   5.760   1.308  14.031  0.9771  0.2022 -0.2991
  187DOPC  C21023033   5.778   1.187  14.196 -0.8353 -0.3200  0.5608
  187DOPC  H10R23034   5.789   1.279  14.255  1.7437  0.8854 -1.5948
  187DOPC  C21123035   5.820   1.056  14.266 -0.3747  0.2550 -0.2858
  187DOPC  H11R23036   5.828   0.966  14.201  1.1197 -1.3980  2.0164
  187DOPC  H11S23037   5.732   1.033  14.330 -1.0422  0.9545 -0.9353
  187DOPC  C21223038   5.945   1.055  14.357 -0.1978  0.0926  0.1892
  187DOPC  H12R23039   5.935   1.124  14.443  0.4368  0.3662  0.0518
  187DOPC  H12S23040   6.015   1.107  14.288 -1.7720  1.0783 -0.7301
  187DOPC  C21323041   5.988   0.916  14.397  1.0727  0.7631  1.0819
  187DOPC  H13R23042   6.096   0.912  14.419  1.6394 -3.0184 -1.3084
  187DOPC  H13S23043   5.963   0.851  14.310 -2.5846  0.1562  2.3875
  187DOPC  C21423044   5.896   0.858  14.504 -0.1210 -0.4852 -0.0933
  187DOPC  H14R23045   5.791   0.870  14.472 -0.2251 -0.5413  0.2261
  187DOPC  H14S23046   5.913   0.918  14.596  1.9568  3.0272 -2.5401
  187DOPC  C21523047   5.942   0.711  14.534  1.1041 -0.2191 -0.1784
  187DOPC  H15R23048   6.049   0.695  14.557  0.6700 -3.2043  0.1130
  187DOPC  H15S23049   5.914   0.646  14.449 -1.0000 -0.7172  0.8248
  187DOPC  C21623050   5.857   0.652  14.647 -0.0837 -0.1265 -0.0245
  187DOPC  H16R23051   5.753   0.625  14.617  0.1818 -0.1142 -0.9827
  187DOPC  H16S23052   5.861   0.730  14.726  0.6214 -1.8409  1.7213
  187DOPC  C21723053   5.915   0.531  14.719 -0.4355  0.2830  0.3053
  187DOPC  H17R23054   6.014   0.578  14.740 -0.2736  1.0841 -2.0059
  187DOPC  H17S23055   5.931   0.443  14.653 -0.7647  0.9824 -0.7306
  187DOPC  C21823056   5.853   0.493  14.849  0.2041 -0.0527 -0.2649
  187DOPC  H18R23057   5.833   0.586  14.905 -0.1777  0.9424 -2.0034
  187DOPC  H18S23058   5.920   0.438  14.919 -1.0103  0.3664  1.2749
  187DOPC  H18T23059   5.756   0.439  14.844  0.9141 -1.4440  0.3394
  187DOPC   C3323060   6.811   1.195  13.859  0.0546 -0.0647  0.1918
  187DOPC   H3X23061   6.920   1.208  13.846  0.0520  0.2417  0.4559
  187DOPC   H3Y23062   6.786   1.087  13.849 -0.9639 -0.0285  1.9896
  187DOPC   C3423063   6.755   1.246  13.994 -1.2196  0.9229 -0.4116
  187DOPC   H4X23064   6.648   1.221  14.011 -1.3727 -0.0144 -2.4643
  187DOPC   H4Y23065   6.766   1.357  14.004 -1.6957  0.8848  0.7186
  187DOPC   C3523066   6.835   1.180  14.114 -0.1845 -0.5577  0.5072
  187DOPC   H5X23067   6.943   1.203  14.103 -0.1773 -0.6783  0.3378
  187DOPC   H5Y23068   6.815   1.072  14.104  2.3959 -1.0042 -0.4923
  187DOPC   C3623069   6.783   1.225  14.245  0.8532  0.1775  0.2765
  187DOPC   H6X23070   6.798   1.332  14.271  2.4062 -0.3642  1.8796
  187DOPC   H6Y23071   6.677   1.195  14.253  0.7764  0.9565  3.0834
  187DOPC   C3723072   6.842   1.154  14.372  0.3879  0.0412  0.3386
  187DOPC   H7X23073   6.850   1.044  14.358 -1.4570 -0.1206  0.2200
  187DOPC   H7Y23074   6.946   1.191  14.385  0.2711  0.3057  0.5341
  187DOPC   C3823075   6.753   1.185  14.495  0.0803  0.1660  0.2620
  187DOPC   H8X23076   6.649   1.159  14.467 -0.5008  0.2756  2.1737
  187DOPC   H8Y23077   6.749   1.296  14.499  2.3315  0.2640  1.1758
  187DOPC   C3923078   6.786   1.106  14.609 -0.5434 -0.4881 -0.5708
  187DOPC   H9X23079   6.766   0.998  14.601  0.4701 -0.5651 -2.6166
  187DOPC  C31023080   6.840   1.158  14.725 -0.2258 -0.3879  0.2512
  187DOPC  H10X23081   6.841   1.095  14.815  3.4018  1.0561  1.3962
  187DOPC  C31123082   6.872   1.301  14.757  0.0957  0.1105 -0.1800
  187DOPC  H11X23083   6.834   1.364  14.674  0.7989 -1.4782 -1.7788
  187DOPC  H11Y23084   6.982   1.316  14.766  0.0793 -0.4904  1.3047
  187DOPC  C31223085   6.807   1.345  14.888 -0.0274 -0.6064  0.3284
  187DOPC  H12X23086   6.867   1.309  14.975  3.2098  2.6466 -0.2961
  187DOPC  H12Y23087   6.702   1.310  14.882 -0.4892  0.3506  2.1585
  187DOPC  C31323088   6.797   1.499  14.901 -0.1415 -0.5977 -0.5953
  187DOPC  H13X23089   6.903   1.531  14.904 -0.2652 -0.1958  1.4622
  187DOPC  H13Y23090   6.746   1.560  14.823 -1.3509 -1.1287 -0.2467
  187DOPC  C31423091   6.744   1.543  15.037  0.9115  0.7052  0.2050
  187DOPC  H14X23092   6.807   1.501  15.118 -1.5843  0.6130  2.2627
  187DOPC  H14Y23093   6.736   1.653  15.049 -0.5018  0.7129 -0.5518
  187DOPC  C31523094   6.599   1.492  15.071  0.4061  0.6878  0.2686
  187DOPC  H15X23095   6.584   1.387  15.039 -0.0494  0.5165  1.0302
  187DOPC  H15Y23096   6.524   1.553  15.017 -1.5336 -0.7242  1.2692
  187DOPC  C31623097   6.567   1.494  15.218  0.6876  0.6613  0.0097
  187DOPC  H16X23098   6.467   1.447  15.235  1.0789 -0.3751 -0.4913
  187DOPC  H16Y23099   6.647   1.435  15.268  1.0735 -0.2784 -1.6433
  187DOPC  C31723100   6.556   1.630  15.288  0.0016  0.7297  0.0926
  187DOPC  H17X23101   6.654   1.683  15.293  1.0974 -1.2256  3.9810
  187DOPC  H17Y23102   6.478   1.687  15.235 -0.2816  0.4723  0.2295
  187DOPC  C31823103   6.507   1.618  15.437 -0.6331 -0.1004 -0.1858
  187DOPC  H18X23104   6.504   1.719  15.483 -0.5443 -0.5667  0.8646
  187DOPC  H18Y23105   6.411   1.565  15.457 -1.8325  2.0001 -0.0828
  187DOPC  H18Z23106   6.595   1.573  15.488  0.9685  4.0699  1.1249
  188DOPC     N23107   2.136   0.455  13.205  0.1119 -0.2272  1.2675
  188DOPC   C1223108   2.089   0.564  13.107 -0.0608  0.5192 -0.2150
  188DOPC  H12A23109   2.005   0.533  13.046 -0.6215  2.0930 -0.2921
  188DOPC  H12B23110   2.172   0.588  13.042 -0.5239  0.1904 -0.9318
  188DOPC   C1323111   2.246   0.502  13.298  0.1414  0.3346  0.4202
  188DOPC  H13A23112   2.282   0.422  13.361 -0.6182 -0.6872 -0.3991
  188DOPC  H13B23113   2.327   0.550  13.246 -0.8655  2.8092  1.0085
  188DOPC  H13C23114   2.198   0.572  13.365 -1.6339 -0.1004 -0.3330
  188DOPC   C1423115   2.187   0.342  13.121 -0.0436 -0.8113 -0.4100
  188DOPC  H14A23116   2.244   0.276  13.184  1.2094 -0.0944 -0.7693
  188DOPC  H14B23117   2.106   0.286  13.076 -1.2197 -0.1836  0.8605
  188DOPC  H14C23118   2.261   0.377  13.051  0.3129 -0.7320  0.0041
  188DOPC   C1523119   2.023   0.407  13.284 -0.2351 -0.3228 -0.0213
  188DOPC  H15A23120   2.057   0.332  13.354  0.6836 -0.5591 -0.6908
  188DOPC  H15B23121   1.949   0.363  13.219 -0.8513 -0.0531  0.4865
  188DOPC  H15C23122   1.968   0.484  13.335 -0.4013 -1.2299  1.2011
  188DOPC   C1123123   2.044   0.700  13.148  0.6461 -0.1587 -0.8600
  188DOPC  H11A23124   2.123   0.753  13.207  0.6892 -2.9278  1.8035
  188DOPC  H11B23125   2.020   0.766  13.061  0.8885  1.4206  0.2165
  188DOPC     P23126   1.808   0.758  13.237  0.3232 -0.2536  0.2657
  188DOPC   O1323127   1.704   0.657  13.208  0.1882  0.2644 -0.0197
  188DOPC   O1423128   1.813   0.882  13.155  0.2443 -0.3053 -0.6250
  188DOPC   O1223129   1.944   0.684  13.244  0.7020  0.2867 -0.0018
  188DOPC   O1123130   1.786   0.800  13.388  0.0801 -0.6832  0.4925
  188DOPC    C123131   1.883   0.866  13.468  0.7451 -0.3859  0.1186
  188DOPC    HA23132   1.840   0.964  13.496 -0.3611 -0.6625 -0.5534
  188DOPC    HB23133   1.973   0.891  13.407 -0.0758  1.1038 -0.5079
  188DOPC    C223134   1.918   0.776  13.588  0.9999  0.5784  0.0170
  188DOPC    HS23135   1.927   0.673  13.547 -1.7443 -0.5969  2.0567
  188DOPC   O2123136   1.811   0.795  13.675  0.2733 -0.5564 -0.2816
  188DOPC   C2123137   1.780   0.684  13.745 -0.9217  0.3516 -0.5545
  188DOPC   O2223138   1.836   0.575  13.727  0.1360  0.8965 -0.0904
  188DOPC   C2223139   1.656   0.709  13.836 -0.3990 -0.5530  0.4051
  188DOPC   H2R23140   1.567   0.716  13.770 -1.7408  1.6930  2.3264
  188DOPC   H2S23141   1.664   0.810  13.882 -0.7668  0.7411 -2.1746
  188DOPC    C323142   2.052   0.816  13.654  0.2095  0.4001 -0.5783
  188DOPC    HX23143   2.026   0.918  13.689 -0.5754 -0.8299  2.8563
  188DOPC    HY23144   2.137   0.817  13.582 -0.6031  2.2836 -1.5884
  188DOPC   O3123145   2.075   0.736  13.770  0.1843 -0.1071 -0.5092
  188DOPC   C3123146   2.132   0.615  13.738  0.2173 -0.8532 -0.1539
  188DOPC   O3223147   2.160   0.585  13.628  0.2344 -0.0997  0.2374
  188DOPC   C3223148   2.139   0.531  13.868  0.2390 -0.1923 -0.5895
  188DOPC   H2X23149   2.038   0.512  13.910 -0.6735  2.0545 -1.5997
  188DOPC   H2Y23150   2.197   0.440  13.842  2.0803  0.7400  0.0466
  188DOPC   C2323151   1.638   0.604  13.943 -0.5414 -0.6417 -0.5936
  188DOPC   H3R23152   1.633   0.496  13.919 -2.1233 -0.5244 -0.8883
  188DOPC   H3S23153   1.537   0.627  13.982  0.3242 -0.2848  1.5906
  188DOPC   C2423154   1.732   0.621  14.064 -0.1750  0.1524  0.2435
  188DOPC   H4R23155   1.728   0.726  14.102 -1.5379 -0.2229  1.1793
  188DOPC   H4S23156   1.839   0.597  14.045  0.0217  0.1787  1.2416
  188DOPC   C2523157   1.697   0.537  14.189 -0.3943 -0.2293 -0.4266
  188DOPC   H5R23158   1.693   0.430  14.159 -0.0394 -0.6095  0.8577
  188DOPC   H5S23159   1.591   0.560  14.213 -0.0048  0.8677  0.2821
  188DOPC   C2623160   1.795   0.566  14.305 -0.0619 -0.2382  0.0220
  188DOPC   H6R23161   1.810   0.676  14.303 -1.9553  0.0766  0.7793
  188DOPC   H6S23162   1.900   0.533  14.287  0.8094  1.8437  1.0069
  188DOPC   C2723163   1.735   0.527  14.436  0.0459 -0.9320 -0.0489
  188DOPC   H7R23164   1.725   0.417  14.438 -1.2613 -0.8476 -0.8640
  188DOPC   H7S23165   1.634   0.572  14.439 -0.2189 -1.4611 -0.7925
  188DOPC   C2823166   1.826   0.556  14.557  0.2498  0.3308 -0.6015
  188DOPC   H8R23167   1.751   0.520  14.631 -0.4460  0.5194 -1.2015
  188DOPC   H8S23168   1.835   0.664  14.582  2.2367 -0.1257  0.9031
  188DOPC   C2923169   1.955   0.480  14.573 -0.5610 -0.1817  0.3294
  188DOPC   H9R23170   2.005   0.447  14.481  1.9286 -2.2677  2.2709
  188DOPC  C21023171   2.018   0.460  14.697 -0.4909 -0.4305  0.6056
  188DOPC  H10R23172   2.116   0.411  14.706 -0.0560  0.6257  2.0891
  188DOPC  C21123173   1.957   0.513  14.826 -0.1544  0.5451  0.8638
  188DOPC  H11R23174   1.955   0.437  14.907  0.7612 -1.0002 -0.5132
  188DOPC  H11S23175   1.856   0.559  14.821  0.5746  2.2125  0.6117
  188DOPC  C21223176   2.043   0.630  14.880 -0.0659 -0.2189  0.6123
  188DOPC  H12R23177   1.995   0.675  14.969  0.0445 -0.8275  0.9872
  188DOPC  H12S23178   2.038   0.705  14.798 -2.0474  0.8896  1.6841
  188DOPC  C21323179   2.186   0.603  14.901  0.1440  0.5741  0.4788
  188DOPC  H13R23180   2.230   0.548  14.816  4.5144  0.4908  2.5452
  188DOPC  H13S23181   2.181   0.536  14.990 -0.4482  2.1036  1.6560
  188DOPC  C21423182   2.264   0.728  14.944 -0.8113 -0.0556 -0.0643
  188DOPC  H14R23183   2.354   0.690  14.996 -1.0369 -2.3069 -1.2033
  188DOPC  H14S23184   2.209   0.793  15.015 -0.5403  1.8782 -1.5116
  188DOPC  C21523185   2.292   0.819  14.824  0.3780 -0.3659 -0.0282
  188DOPC  H15R23186   2.193   0.860  14.794  0.0014  2.5747  4.2885
  188DOPC  H15S23187   2.356   0.769  14.749  1.9443 -0.9079  1.5958
  188DOPC  C21623188   2.372   0.953  14.878  0.5679 -0.0824  0.0031
  188DOPC  H16R23189   2.460   0.902  14.924 -0.4006 -1.5301  0.3229
  188DOPC  H16S23190   2.307   0.998  14.956 -0.4857 -0.8156 -0.4289
  188DOPC  C21723191   2.416   1.035  14.756 -0.6681 -0.2960 -0.9311
  188DOPC  H17R23192   2.328   1.063  14.693 -0.6266  1.6201 -0.2086
  188DOPC  H17S23193   2.488   0.975  14.697  3.0218  1.7543  1.1303
  188DOPC  C21823194   2.483   1.163  14.802  0.5267 -0.5034  0.5693
  188DOPC  H18R23195   2.571   1.133  14.862 -0.7476 -2.3524  1.6057
  188DOPC  H18S23196   2.417   1.225  14.866 -0.0925  0.4008 -0.8911
  188DOPC  H18T23197   2.520   1.225  14.718 -1.9105  1.1025  0.5687
  188DOPC   C3323198   2.214   0.605  13.974 -0.1711  0.0830 -0.0061
  188DOPC   H3X23199   2.178   0.710  13.977 -2.0520 -0.4902 -1.0662
  188DOPC   H3Y23200   2.324   0.602  13.958  0.2658 -1.6405  2.7176
  188DOPC   C3423201   2.207   0.538  14.110 -0.1720 -0.1526  0.4615
  188DOPC   H4X23202   2.165   0.435  14.103 -2.8120  0.7939  1.2344
  188DOPC   H4Y23203   2.136   0.598  14.171 -1.5157 -3.5264  2.5683
  188DOPC   C3523204   2.345   0.535  14.165 -0.2126  0.4079 -1.1497
  188DOPC   H5X23205   2.387   0.638  14.155  0.2966  0.3316  0.0641
  188DOPC   H5Y23206   2.414   0.471  14.106  0.6336  0.0378  0.2047
  188DOPC   C3623207   2.362   0.479  14.305  0.6095 -0.1382  0.0135
  188DOPC   H6X23208   2.318   0.377  14.308 -0.0830  0.0520  4.7188
  188DOPC   H6Y23209   2.471   0.484  14.323  1.2760 -1.4681 -3.1675
  188DOPC   C3723210   2.310   0.579  14.408  0.0066 -0.2563 -0.4750
  188DOPC   H7X23211   2.342   0.683  14.386  0.3743 -0.2315  0.1527
  188DOPC   H7Y23212   2.199   0.575  14.405  0.0200 -2.0946 -0.0127
  188DOPC   C3823213   2.347   0.535  14.555 -0.0006  0.6521  0.3359
  188DOPC   H8X23214   2.301   0.440  14.590 -0.4434  1.5541  2.3510
  188DOPC   H8Y23215   2.289   0.607  14.616 -0.4388  0.6767 -0.1103
  188DOPC   C3923216   2.493   0.550  14.585 -0.8444 -0.5035  0.1121
  188DOPC   H9X23217   2.531   0.648  14.554  0.6430 -1.5337 -1.5544
  188DOPC  C31023218   2.570   0.457  14.644 -0.3742  0.2144 -0.2615
  188DOPC  H10X23219   2.674   0.490  14.658 -1.0328  2.1871  0.1741
  188DOPC  C31123220   2.535   0.320  14.695 -0.4105  0.2844 -0.2152
  188DOPC  H11X23221   2.620   0.254  14.669 -0.8964 -0.2772 -0.3779
  188DOPC  H11Y23222   2.444   0.285  14.643  0.0812 -1.0384 -0.2275
  188DOPC  C31223223   2.502   0.310  14.848 -0.4242 -0.8125  0.0897
  188DOPC  H12X23224   2.458   0.210  14.873  1.1246 -1.2905  1.0251
  188DOPC  H12Y23225   2.423   0.381  14.881  0.3181  0.4258 -0.7331
  188DOPC  C31323226   2.630   0.317  14.942 -0.4949  0.9730  0.2959
  188DOPC  H13X23227   2.699   0.237  14.908 -1.2049  1.0958 -1.6031
  188DOPC  H13Y23228   2.678   0.416  14.933 -1.4347  1.3301 -1.1014
  188DOPC  C31423229   2.592   0.286  15.085  0.3467 -0.0832  0.0751
  188DOPC  H14X23230   2.554   0.181  15.084 -0.7611  0.2931 -1.9869
  188DOPC  H14Y23231   2.683   0.279  15.149  0.8274 -1.0737 -0.6774
  188DOPC  C31523232   2.487   0.373  15.146  0.3120  0.2124  0.5511
  188DOPC  H15X23233   2.386   0.337  15.118 -0.8136  2.9623  0.7164
  188DOPC  H15Y23234   2.482   0.476  15.105  1.2466  0.2214  0.4432
  188DOPC  C31623235   2.507   0.376  15.300  0.4235 -0.3195 -0.5024
  188DOPC  H16X23236   2.501   0.272  15.337  1.1266 -0.3632 -0.4931
  188DOPC  H16Y23237   2.609   0.401  15.337  0.2812 -1.1969  0.5140
  188DOPC  C31723238   2.402   0.462  15.369 -0.0737  0.1358  0.9982
  188DOPC  H17X23239   2.462   0.539  15.421  1.6015 -0.4686  0.0456
  188DOPC  H17Y23240   2.348   0.515  15.288 -0.0966 -1.1770  0.1252
  188DOPC  C31823241   2.298   0.407  15.460 -0.1249  0.7904  0.4582
  188DOPC  H18X23242   2.253   0.485  15.525 -2.2204 -1.3240  1.6573
  188DOPC  H18Y23243   2.212   0.364  15.404 -0.2297  1.7416 -0.1437
  188DOPC  H18Z23244   2.335   0.321  15.519  0.9782 -0.0250 -1.3172
  189DOPC     N23245   2.863   0.614  12.792 -0.3088  0.0226 -0.1060
  189DOPC   C1223246   2.994   0.674  12.858 -0.0659  0.6721 -0.3228
  189DOPC  H12A23247   3.016   0.772  12.820  0.2077  1.0596  0.8031
  189DOPC  H12B23248   3.071   0.613  12.812  0.1187 -0.8572  1.8551
  189DOPC   C1323249   2.742   0.670  12.861  0.3241 -0.4020  0.1881
  189DOPC  H13A23250   2.734   0.614  12.953  2.9555 -3.2180 -1.1378
  189DOPC  H13B23251   2.747   0.774  12.891  0.8791 -1.1120  2.8998
  189DOPC  H13C23252   2.649   0.663  12.807 -0.6023  1.2207  1.4844
  189DOPC   C1423253   2.862   0.464  12.799  0.1870 -0.1404  0.6740
  189DOPC  H14A23254   2.861   0.422  12.898 -1.7928 -1.1836  0.2655
  189DOPC  H14B23255   2.770   0.428  12.755  0.7004 -1.8853  0.9814
  189DOPC  H14C23256   2.948   0.415  12.756  0.3459 -0.3456  1.2175
  189DOPC   C1523257   2.877   0.655  12.650  0.0677  0.2874  0.4861
  189DOPC  H15A23258   2.871   0.763  12.647  1.5102  0.4639  2.0817
  189DOPC  H15B23259   2.788   0.619  12.601  0.0113 -0.2718  0.9948
  189DOPC  H15C23260   2.972   0.627  12.608  0.3533  1.5079  0.2841
  189DOPC   C1123261   3.013   0.664  13.009  0.1015  0.8054  0.3250
  189DOPC  H11A23262   3.102   0.724  13.037 -0.0052  2.2484 -2.1701
  189DOPC  H11B23263   2.923   0.717  13.047 -0.5103 -0.9781  1.4826
  189DOPC     P23264   3.144   0.453  13.031  0.0063 -0.0454  0.3389
  189DOPC   O1323265   3.250   0.540  12.961  0.0601 -0.8391 -0.0804
  189DOPC   O1423266   3.118   0.323  12.968  1.0731  0.5703  0.3120
  189DOPC   O1223267   3.014   0.536  13.054 -0.1090 -0.4853 -0.3904
  189DOPC   O1123268   3.194   0.427  13.175  0.6259 -0.0403  0.3728
  189DOPC    C123269   3.104   0.451  13.284  0.2457  0.1309  0.3004
  189DOPC    HA23270   3.000   0.415  13.268 -0.9984  3.0410  1.2363
  189DOPC    HB23271   3.094   0.558  13.311 -0.2291  1.2875 -3.7223
  189DOPC    C223272   3.154   0.372  13.405  0.3192 -0.0394 -0.4214
  189DOPC    HS23273   3.094   0.403  13.494 -2.0164 -2.1390 -1.1410
  189DOPC   O2123274   3.294   0.398  13.424  0.1286  0.0321 -0.0475
  189DOPC   C2123275   3.317   0.522  13.472 -0.1268 -0.5043 -0.1831
  189DOPC   O2223276   3.237   0.604  13.509  0.3831  0.2187  0.7359
  189DOPC   C2223277   3.462   0.551  13.488  0.0556 -0.4682 -0.7906
  189DOPC   H2R23278   3.468   0.657  13.455  1.1807 -0.4522 -0.5909
  189DOPC   H2S23279   3.515   0.476  13.426  0.6307 -1.4077  0.7720
  189DOPC    C323280   3.133   0.221  13.386  0.3695  0.1346 -1.2659
  189DOPC    HX23281   3.165   0.187  13.285  0.1281  0.1473 -1.3483
  189DOPC    HY23282   3.024   0.201  13.400  0.5775 -1.2414 -1.5348
  189DOPC   O3123283   3.206   0.149  13.492 -0.3471  0.4533  0.4791
  189DOPC   C3123284   3.323   0.098  13.456 -0.0414 -0.8741  0.2376
  189DOPC   O3223285   3.378   0.098  13.347  0.2057 -0.4326  0.2401
  189DOPC   C3223286   3.382   0.039  13.586  0.0485  0.5719 -0.6313
  189DOPC   H2X23287   3.318  -0.042  13.627  0.7481  0.0488 -0.5470
  189DOPC   H2Y23288   3.473  -0.020  13.562 -0.5809 -0.3324 -0.8562
  189DOPC   C2323289   3.508   0.557  13.635  0.3088 -0.1429 -0.5315
  189DOPC   H3R23290   3.525   0.457  13.682  0.5779  0.2813  0.2897
  189DOPC   H3S23291   3.436   0.602  13.706  0.5506 -2.1929  1.1112
  189DOPC   C2423292   3.633   0.638  13.659 -0.1642 -0.0447  0.5347
  189DOPC   H4R23293   3.608   0.746  13.649 -3.6998 -0.8532 -1.2534
  189DOPC   H4S23294   3.702   0.616  13.575  1.4217  0.4023  1.6776
  189DOPC   C2523295   3.702   0.605  13.796  0.3088 -0.0046  0.2869
  189DOPC   H5R23296   3.698   0.495  13.813 -0.0675 -0.0119  0.1472
  189DOPC   H5S23297   3.628   0.638  13.871 -0.0090  1.5371 -0.6553
  189DOPC   C2623298   3.843   0.666  13.819  0.1967  0.5052  0.3042
  189DOPC   H6R23299   3.835   0.770  13.781 -2.4153 -0.3931 -1.9515
  189DOPC   H6S23300   3.908   0.602  13.756  0.2496  1.4658 -0.6466
  189DOPC   C2723301   3.902   0.671  13.961 -0.2598 -0.0822  0.8405
  189DOPC   H7R23302   4.013   0.665  13.964 -0.2726 -2.4818 -0.6547
  189DOPC   H7S23303   3.858   0.587  14.019 -3.5656  0.2310 -1.0013
  189DOPC   C2823304   3.856   0.794  14.036  0.0887  0.6665 -0.0256
  189DOPC   H8R23305   3.871   0.791  14.146 -0.1043 -1.5418 -0.0051
  189DOPC   H8S23306   3.745   0.807  14.036 -0.2188 -1.6070  0.1915
  189DOPC   C2923307   3.911   0.919  13.982  0.4168 -0.3715  0.0168
  189DOPC   H9R23308   3.886   0.932  13.875  1.0738 -1.8522 -0.3467
  189DOPC  C21023309   3.999   1.006  14.040  0.3946  0.4693  0.8346
  189DOPC  H10R23310   4.017   1.100  13.985 -0.9726  1.8449  2.6485
  189DOPC  C21123311   4.063   1.005  14.175 -0.9000 -0.0274  0.3506
  189DOPC  H11R23312   4.157   1.065  14.163  0.5450 -1.8244  2.0357
  189DOPC  H11S23313   4.093   0.901  14.198 -0.3855  0.3131  1.3153
  189DOPC  C21223314   3.977   1.065  14.293 -0.4262 -0.9874  0.1323
  189DOPC  H12R23315   3.884   1.004  14.295 -1.6833  0.7649 -1.0513
  189DOPC  H12S23316   3.947   1.170  14.272  0.5356 -0.0268  3.1144
  189DOPC  C21323317   4.041   1.073  14.431 -0.4916  0.4036  0.1826
  189DOPC  H13R23318   4.065   0.972  14.470 -0.3375 -0.1468 -1.2709
  189DOPC  H13S23319   3.970   1.114  14.506  0.1108 -0.7281  1.4011
  189DOPC  C21423320   4.165   1.157  14.422 -0.5367 -0.4930 -0.6968
  189DOPC  H14R23321   4.134   1.257  14.385 -0.2158 -0.4485 -0.8506
  189DOPC  H14S23322   4.242   1.121  14.351  1.4128 -0.9456  1.4997
  189DOPC  C21523323   4.225   1.154  14.564 -0.8042  0.0664 -0.0256
  189DOPC  H15R23324   4.252   1.049  14.585 -1.5539 -0.1503 -0.1164
  189DOPC  H15S23325   4.147   1.188  14.637 -0.4651 -2.0413  1.4145
  189DOPC  C21623326   4.349   1.243  14.582 -0.1901 -0.5777  0.7311
  189DOPC  H16R23327   4.423   1.233  14.500 -0.9364  0.4682 -0.0980
  189DOPC  H16S23328   4.406   1.206  14.670 -2.0490  0.8030  2.6120
  189DOPC  C21723329   4.301   1.385  14.607 -0.2443 -0.6080  1.3030
  189DOPC  H17R23330   4.224   1.398  14.686 -2.3481  1.4592 -0.9248
  189DOPC  H17S23331   4.253   1.425  14.515  1.4263 -1.2274  0.1265
  189DOPC  C21823332   4.419   1.477  14.637 -0.6032 -0.0638  0.6812
  189DOPC  H18R23333   4.459   1.441  14.734  0.0901 -2.7164 -0.4960
  189DOPC  H18S23334   4.393   1.585  14.639  0.7882  0.4198 -2.4966
  189DOPC  H18T23335   4.500   1.473  14.562 -1.5430  1.7310 -0.5045
  189DOPC   C3323336   3.406   0.150  13.685 -0.0011 -0.4013 -0.0865
  189DOPC   H3X23337   3.305   0.176  13.724  0.8833  1.7529  0.9033
  189DOPC   H3Y23338   3.445   0.243  13.640 -0.5141  0.8206  1.8834
  189DOPC   C3423339   3.494   0.110  13.808  0.1929 -1.1855  0.6986
  189DOPC   H4X23340   3.601   0.105  13.779 -0.0525 -0.9572 -0.2671
  189DOPC   H4Y23341   3.466   0.007  13.837 -0.3214 -1.1494  0.3339
  189DOPC   C3523342   3.469   0.202  13.920 -0.1479 -0.4662 -0.5429
  189DOPC   H5X23343   3.361   0.205  13.944  0.2964  2.0322  1.4847
  189DOPC   H5Y23344   3.513   0.302  13.901  1.8353 -0.8873  1.4427
  189DOPC   C3623345   3.549   0.162  14.050  0.2276 -0.3931 -0.2298
  189DOPC   H6X23346   3.514   0.226  14.133 -0.1308 -0.5634 -0.2473
  189DOPC   H6Y23347   3.532   0.057  14.084  0.0351  0.0666  1.1428
  189DOPC   C3723348   3.706   0.188  14.043 -0.2138  0.0036  0.3490
  189DOPC   H7X23349   3.756   0.141  13.956  1.5033 -0.3733  1.4957
  189DOPC   H7Y23350   3.716   0.299  14.037 -3.2191  0.2888 -1.9443
  189DOPC   C3823351   3.778   0.135  14.165  0.3163 -0.1887  0.1587
  189DOPC   H8X23352   3.767   0.025  14.173 -0.0499 -0.3051 -1.6254
  189DOPC   H8Y23353   3.718   0.180  14.247  0.1477 -0.7720  0.3612
  189DOPC   C3923354   3.922   0.178  14.164  0.2249  0.1326 -0.6926
  189DOPC   H9X23355   3.978   0.143  14.076  1.9742  1.9252 -0.3644
  189DOPC  C31023356   3.995   0.227  14.269  0.2882  0.1213  0.1861
  189DOPC  H10X23357   4.102   0.249  14.262  1.0848 -3.0544  0.6967
  189DOPC  C31123358   3.942   0.249  14.406 -0.1855  0.4016  0.2295
  189DOPC  H11X23359   4.021   0.224  14.480  1.5282 -1.9928 -2.2213
  189DOPC  H11Y23360   3.860   0.179  14.434 -0.0811 -0.1020 -0.6787
  189DOPC  C31223361   3.895   0.392  14.432  0.0190 -0.6944  0.9183
  189DOPC  H12X23362   3.819   0.405  14.512 -1.7099  0.6926 -0.8499
  189DOPC  H12Y23363   3.842   0.429  14.342  3.5436  0.0866 -1.0582
  189DOPC  C31323364   4.007   0.498  14.456  0.0121  0.3385  0.4405
  189DOPC  H13X23365   4.080   0.472  14.536 -0.0649  1.4389  0.8844
  189DOPC  H13Y23366   4.074   0.498  14.368 -0.0959  1.1726  0.3485
  189DOPC  C31423367   3.949   0.635  14.476  0.3199  0.1533 -0.3093
  189DOPC  H14X23368   4.031   0.709  14.466  1.6527 -1.3263 -0.8670
  189DOPC  H14Y23369   3.884   0.664  14.391 -0.3333  0.6709  0.3483
  189DOPC  C31523370   3.882   0.669  14.611 -0.2816  0.5013  0.2509
  189DOPC  H15X23371   3.963   0.654  14.686  0.1896  0.2976 -0.2958
  189DOPC  H15Y23372   3.804   0.590  14.618 -1.6374  1.8417  0.9301
  189DOPC  C31623373   3.830   0.810  14.620 -0.7102  0.0820  0.2904
  189DOPC  H16X23374   3.771   0.821  14.713 -1.2706  1.4534 -0.1923
  189DOPC  H16Y23375   3.909   0.886  14.635 -1.6374  1.0898  0.1816
  189DOPC  C31723376   3.735   0.847  14.509 -0.1976  0.5057  0.2883
  189DOPC  H17X23377   3.792   0.839  14.415  0.4729 -2.0344  0.8104
  189DOPC  H17Y23378   3.657   0.767  14.513 -0.6973  1.0056  0.8336
  189DOPC  C31823379   3.663   0.977  14.529 -0.1939  0.1406  0.7485
  189DOPC  H18X23380   3.640   0.990  14.637 -1.4281 -0.0526  0.5250
  189DOPC  H18Y23381   3.725   1.061  14.491  1.1975 -0.8993  0.6681
  189DOPC  H18Z23382   3.575   0.981  14.462 -0.3165 -2.5661  0.6456
  190DOPC     N23383   1.676   6.914  12.784 -0.0727 -0.3258 -0.2815
  190DOPC   C1223384   1.696   7.059  12.830 -0.5781 -0.1889 -0.2695
  190DOPC  H12A23385   1.707   7.069  12.937 -1.5546  0.7239 -0.2412
  190DOPC  H12B23386   1.609   7.121  12.812  0.6141  0.8633 -3.0185
  190DOPC   C1323387   1.796   6.833  12.801  0.4606 -0.7964 -0.2382
  190DOPC  H13A23388   1.860   6.841  12.714 -1.2144 -1.7204 -1.6168
  190DOPC  H13B23389   1.845   6.860  12.893 -1.4184  0.9108  0.3333
  190DOPC  H13C23390   1.786   6.726  12.791  2.0290 -1.0127  0.2388
  190DOPC   C1423391   1.629   6.912  12.640  0.5387  0.3020  0.1192
  190DOPC  H14A23392   1.689   6.971  12.572 -3.3826  1.8462 -2.3649
  190DOPC  H14B23393   1.623   6.809  12.606 -4.1332 -0.6340  2.8989
  190DOPC  H14C23394   1.527   6.949  12.635  0.8065  0.9424 -2.5145
  190DOPC   C1523395   1.563   6.853  12.865  0.3994  0.0752  0.8058
  190DOPC  H15A23396   1.596   6.855  12.968  0.7043  1.2676  0.6958
  190DOPC  H15B23397   1.553   6.749  12.837  2.1734 -0.1602  0.9293
  190DOPC  H15C23398   1.468   6.904  12.859  1.0169  1.1690 -0.1635
  190DOPC   C1123399   1.811   7.145  12.766  0.5837 -0.0873  0.4075
  190DOPC  H11A23400   1.806   7.133  12.656 -0.5603  0.2956  0.3977
  190DOPC  H11B23401   1.801   7.254  12.781 -1.7858  0.0372 -1.4923
  190DOPC     P23402   2.005   7.130  12.931  0.2820 -0.3024 -0.2984
  190DOPC   O1323403   2.071   7.260  12.930 -0.5149 -0.3239 -0.2756
  190DOPC   O1423404   2.096   7.017  12.959 -0.2598 -0.8476 -0.0132
  190DOPC   O1223405   1.944   7.100  12.793 -0.7763 -0.4959  0.3092
  190DOPC   O1123406   1.881   7.128  13.024 -0.0017  0.4637 -0.0623
  190DOPC    C123407   1.844   7.223  13.128  0.3765 -0.5505 -0.3881
  190DOPC    HA23408   1.740   7.259  13.116  0.2756  0.3168  2.3495
  190DOPC    HB23409   1.898   7.320  13.126  1.2576 -1.0406 -1.6440
  190DOPC    C223410   1.847   7.150  13.269  0.3723  0.6997  0.2513
  190DOPC    HS23411   1.799   7.218  13.343 -0.5891 -0.4420  0.7162
  190DOPC   O2123412   1.978   7.117  13.307  0.0207  0.4782 -0.3248
  190DOPC   C2123413   2.030   7.180  13.412 -2.3235 -0.0194 -0.3986
  190DOPC   O2223414   1.968   7.253  13.485  0.2579  0.1318  0.1512
  190DOPC   C2223415   2.175   7.133  13.433 -0.3646 -0.0703 -0.6362
  190DOPC   H2R23416   2.204   7.074  13.344  0.6257  0.6382 -0.8005
  190DOPC   H2S23417   2.181   7.054  13.510 -1.4014 -0.6193 -1.0906
  190DOPC    C323418   1.771   7.012  13.266 -0.0514 -0.4186 -0.6099
  190DOPC    HX23419   1.833   6.934  13.215  0.2297 -0.7178  0.1791
  190DOPC    HY23420   1.686   7.038  13.200  0.5978 -0.6193 -1.5518
  190DOPC   O3123421   1.728   6.974  13.405  0.1956 -1.1344  0.4486
  190DOPC   C3123422   1.819   6.909  13.467  0.2601  0.1085 -0.0931
  190DOPC   O3223423   1.930   6.874  13.427  0.0942 -0.3250 -0.2817
  190DOPC   C3223424   1.766   6.891  13.612  0.6897  0.0745  0.1503
  190DOPC   H2X23425   1.863   6.889  13.667  1.1349 -1.8786 -0.6099
  190DOPC   H2Y23426   1.714   6.984  13.642 -1.5662 -0.3337 -2.1553
  190DOPC   C2323427   2.277   7.242  13.458  0.1537 -0.1238  0.0185
  190DOPC   H3R23428   2.279   7.328  13.387  1.1867 -0.7698 -0.7631
  190DOPC   H3S23429   2.379   7.201  13.442  0.3240 -0.3048  1.4561
  190DOPC   C2423430   2.266   7.298  13.607  0.2658 -0.0438 -0.5835
  190DOPC   H4R23431   2.272   7.216  13.681  2.0683  0.6546  0.1010
  190DOPC   H4S23432   2.171   7.353  13.623 -0.1657 -0.7010 -0.8667
  190DOPC   C2523433   2.392   7.387  13.644  0.3296 -0.3046  0.4078
  190DOPC   H5R23434   2.376   7.479  13.585  2.4518  1.0673  1.8343
  190DOPC   H5S23435   2.487   7.339  13.612  0.2019  0.7772 -1.7623
  190DOPC   C2623436   2.395   7.418  13.791 -0.3352 -0.3870  0.1227
  190DOPC   H6R23437   2.405   7.332  13.860 -2.5533  0.6230  1.8336
  190DOPC   H6S23438   2.296   7.457  13.822  0.2198  0.2798  1.0860
  190DOPC   C2723439   2.506   7.515  13.836 -0.8219 -0.0805 -0.3878
  190DOPC   H7R23440   2.591   7.459  13.793 -1.3564  0.5172 -2.2928
  190DOPC   H7S23441   2.506   7.519  13.947  2.4623  0.9464 -0.3160
  190DOPC   C2823442   2.488   7.654  13.769  0.3520 -0.3036 -0.6651
  190DOPC   H8R23443   2.466   7.638  13.661  3.2421  2.9905 -1.9098
  190DOPC   H8S23444   2.590   7.695  13.784  1.1220 -1.9859 -1.0304
  190DOPC   C2923445   2.386   7.741  13.840  0.1803 -0.1870  0.1335
  190DOPC   H9R23446   2.309   7.783  13.773  1.0627  0.2837 -0.6198
  190DOPC  C21023447   2.390   7.781  13.967  0.1383 -0.1911 -0.3804
  190DOPC  H10R23448   2.303   7.840  14.001 -0.5595 -0.9486 -0.8204
  190DOPC  C21123449   2.487   7.752  14.072  0.3659  0.2263  0.0817
  190DOPC  H11R23450   2.558   7.670  14.048 -1.2405 -1.4887  0.9523
  190DOPC  H11S23451   2.444   7.720  14.170  1.0072 -1.4079 -0.1422
  190DOPC  C21223452   2.571   7.878  14.092 -0.1197 -0.3717 -0.4767
  190DOPC  H12R23453   2.497   7.961  14.104 -0.6450 -0.6448 -1.7469
  190DOPC  H12S23454   2.637   7.902  14.006 -0.5805 -1.4741 -1.1427
  190DOPC  C21323455   2.654   7.866  14.219 -0.3411  0.0551  0.5264
  190DOPC  H13R23456   2.718   7.776  14.213  0.1074  0.3197  1.2882
  190DOPC  H13S23457   2.583   7.856  14.303 -1.7441  1.6087 -0.3983
  190DOPC  C21423458   2.741   7.985  14.243 -0.3995 -0.3714  0.0636
  190DOPC  H14R23459   2.683   8.079  14.251 -0.1674 -0.0712 -1.4852
  190DOPC  H14S23460   2.804   7.991  14.152 -0.3355  1.3237  0.1857
  190DOPC  C21523461   2.826   7.964  14.366 -0.0149  0.1360 -0.3238
  190DOPC  H15R23462   2.875   7.865  14.356 -0.1493  0.1199 -0.8311
  190DOPC  H15S23463   2.779   7.974  14.466 -1.3143 -0.4225 -0.8512
  190DOPC  C21623464   2.937   8.070  14.373  0.2292 -0.3464 -0.1039
  190DOPC  H16R23465   2.955   8.096  14.266 -2.5323  0.4567 -0.4601
  190DOPC  H16S23466   3.029   8.023  14.412  1.1214  1.1498 -0.3232
  190DOPC  C21723467   2.906   8.193  14.463  0.0155 -0.5211 -0.0917
  190DOPC  H17R23468   2.902   8.144  14.563 -1.0631 -0.3868 -0.0552
  190DOPC  H17S23469   2.809   8.240  14.439  1.8340  3.5751 -0.1464
  190DOPC  C21823470   3.008   8.301  14.453 -0.5040  0.2537 -0.2790
  190DOPC  H18R23471   2.988   8.372  14.537 -0.3517 -0.1138  0.0727
  190DOPC  H18S23472   2.996   8.353  14.356  2.5603 -0.7392 -1.3035
  190DOPC  H18T23473   3.107   8.252  14.462 -0.5493  0.3163  0.6995
  190DOPC   C3323474   1.689   6.759  13.632  0.1204  0.8235  0.6953
  190DOPC   H3X23475   1.732   6.673  13.577  0.2009  1.7597 -0.7536
  190DOPC   H3Y23476   1.589   6.769  13.584 -1.2620 -1.9858  2.6456
  190DOPC   C3423477   1.666   6.727  13.784 -0.6848  0.2317 -0.0654
  190DOPC   H4X23478   1.588   6.651  13.804 -0.5639  0.1028 -0.0887
  190DOPC   H4Y23479   1.628   6.821  13.831 -0.2957  0.0232  0.6834
  190DOPC   C3523480   1.792   6.680  13.866 -0.3088 -0.6494 -0.3403
  190DOPC   H5X23481   1.879   6.745  13.846 -0.2960 -0.3512  0.6405
  190DOPC   H5Y23482   1.828   6.582  13.826 -1.4374 -1.2642  0.0881
  190DOPC   C3623483   1.780   6.676  14.015  0.8103  0.0342 -0.2984
  190DOPC   H6X23484   1.774   6.777  14.060 -1.1348 -0.5204  0.8100
  190DOPC   H6Y23485   1.678   6.637  14.036 -0.0680  2.0165 -0.6954
  190DOPC   C3723486   1.878   6.586  14.082  0.1652  0.3942  0.1187
  190DOPC   H7X23487   1.836   6.570  14.184  0.5345 -1.5020  0.0054
  190DOPC   H7Y23488   1.887   6.488  14.032  1.9004  0.6233 -0.0835
  190DOPC   C3823489   2.023   6.654  14.082  0.0558  0.2778 -0.1046
  190DOPC   H8X23490   2.056   6.681  13.979 -0.0344 -1.1890 -0.5424
  190DOPC   H8Y23491   2.091   6.573  14.116 -1.1887 -0.0430  1.7679
  190DOPC   C3923492   2.034   6.769  14.176  0.3855  0.0584  0.6939
  190DOPC   H9X23493   1.950   6.839  14.176  0.3753  0.0979 -1.3727
  190DOPC  C31023494   2.145   6.812  14.236  0.1643 -0.1112 -0.5153
  190DOPC  H10X23495   2.136   6.909  14.287  0.7553 -1.8773  3.2830
  190DOPC  C31123496   2.288   6.761  14.228 -1.3085  0.2104  0.3067
  190DOPC  H11X23497   2.336   6.839  14.165  0.4126  0.0704  1.3642
  190DOPC  H11Y23498   2.280   6.662  14.178  1.3131 -1.1894  2.3566
  190DOPC  C31223499   2.378   6.751  14.347 -0.1006  0.0876 -0.2446
  190DOPC  H12X23500   2.474   6.704  14.317  0.6669 -0.8311  3.1914
  190DOPC  H12Y23501   2.340   6.684  14.427  1.7490  0.9650  1.4481
  190DOPC  C31323502   2.421   6.893  14.394  0.0501 -0.8424 -0.1213
  190DOPC  H13X23503   2.432   6.965  14.311 -0.2984 -1.5553 -0.8058
  190DOPC  H13Y23504   2.335   6.936  14.449 -0.7108 -0.1895 -1.7533
  190DOPC  C31423505   2.548   6.892  14.482  0.0278 -0.4643 -0.1886
  190DOPC  H14X23506   2.513   6.840  14.575  0.0993 -0.1129  0.0349
  190DOPC  H14Y23507   2.624   6.824  14.438 -1.6400 -0.8982 -2.5714
  190DOPC  C31523508   2.600   7.027  14.519 -0.1792 -0.2775 -0.3404
  190DOPC  H15X23509   2.518   7.079  14.571 -0.5672 -0.6023 -0.6224
  190DOPC  H15Y23510   2.631   7.091  14.433 -0.8256 -0.5683 -0.8010
  190DOPC  C31623511   2.731   7.013  14.609  0.4434  0.2734  0.3306
  190DOPC  H16X23512   2.709   6.966  14.707 -1.7549  1.9131  0.7061
  190DOPC  H16Y23513   2.812   6.970  14.546  0.6395  0.3636  0.5201
  190DOPC  C31723514   2.760   7.153  14.662  0.1529  0.3792 -0.1297
  190DOPC  H17X23515   2.822   7.208  14.588 -1.6973  1.3936 -0.9922
  190DOPC  H17Y23516   2.664   7.208  14.675 -0.1149 -0.1504  0.1920
  190DOPC  C31823517   2.830   7.156  14.801 -0.0870 -0.3093  0.6685
  190DOPC  H18X23518   2.937   7.128  14.788  0.7690  3.1284 -0.8948
  190DOPC  H18Y23519   2.839   7.259  14.841 -0.7476 -0.2550  0.6862
  190DOPC  H18Z23520   2.774   7.098  14.878 -2.5371 -1.3988 -1.7801
  191DOPC     N23521   4.631   0.376  12.642 -0.4561 -0.9871  0.2609
  191DOPC   C1223522   4.541   0.271  12.706  0.1257  0.6652  0.4483
  191DOPC  H12A23523   4.601   0.182  12.716 -1.9959 -0.6876  1.9614
  191DOPC  H12B23524   4.458   0.238  12.646  0.5346  1.1053 -0.3766
  191DOPC   C1323525   4.564   0.507  12.639 -0.4865 -0.2052 -0.2939
  191DOPC  H13A23526   4.618   0.589  12.594 -1.3441  0.3628 -0.3066
  191DOPC  H13B23527   4.469   0.512  12.589 -1.0190  1.7756  0.8242
  191DOPC  H13C23528   4.551   0.534  12.743  0.7049 -0.7199  0.0020
  191DOPC   C1423529   4.657   0.344  12.501 -0.4467  0.2367  0.5126
  191DOPC  H14A23530   4.723   0.260  12.489  0.7145  1.2951 -0.7763
  191DOPC  H14B23531   4.560   0.329  12.455 -1.0109  3.6192  0.3469
  191DOPC  H14C23532   4.708   0.428  12.457 -0.7189  0.8090  1.2745
  191DOPC   C1523533   4.765   0.383  12.716  0.2834  0.6137 -0.0707
  191DOPC  H15A23534   4.815   0.291  12.689  0.0087  1.0308 -2.2100
  191DOPC  H15B23535   4.755   0.397  12.822  1.1942  0.4601  0.0446
  191DOPC  H15C23536   4.822   0.466  12.678 -0.3968  1.8183  1.4662
  191DOPC   C1123537   4.486   0.290  12.854  0.4083 -0.6052 -0.5342
  191DOPC  H11A23538   4.438   0.391  12.861  1.7573  0.0388 -0.3039
  191DOPC  H11B23539   4.406   0.216  12.871  0.1671 -0.3251 -0.4358
  191DOPC     P23540   4.649   0.153  12.998 -0.2706 -0.0262  0.1191
  191DOPC   O1323541   4.794   0.157  12.990  0.1456  0.0812 -0.0521
  191DOPC   O1423542   4.580   0.046  12.929  0.3035 -1.2002  0.1106
  191DOPC   O1223543   4.599   0.287  12.947  1.0415 -0.5292 -0.5081
  191DOPC   O1123544   4.602   0.178  13.145 -0.1477 -0.0911  0.3200
  191DOPC    C123545   4.536   0.082  13.229 -0.3076  0.0613  0.1102
  191DOPC    HA23546   4.491  -0.003  13.174 -2.0371  1.0113 -0.0442
  191DOPC    HB23547   4.449   0.130  13.279 -1.9968 -2.9428  0.3064
  191DOPC    C223548   4.624   0.047  13.351  0.0680 -0.5085  0.1291
  191DOPC    HS23549   4.714  -0.014  13.328 -1.1929 -2.1825 -0.5601
  191DOPC   O2123550   4.541  -0.015  13.452  0.0674 -0.3973 -0.7838
  191DOPC   C2123551   4.546  -0.148  13.454  0.2629 -0.0677 -0.0023
  191DOPC   O2223552   4.612  -0.218  13.376 -0.1939 -0.1408  0.6652
  191DOPC   C2223553   4.448  -0.203  13.561  0.5669  0.1478  0.0161
  191DOPC   H2R23554   4.440  -0.312  13.541 -0.4284  0.0998  0.5936
  191DOPC   H2S23555   4.348  -0.158  13.543  1.0724  1.5127  0.4816
  191DOPC    C323556   4.683   0.184  13.411 -0.4160  0.0940 -0.4439
  191DOPC    HX23557   4.613   0.270  13.413 -0.7689 -0.1976  0.7807
  191DOPC    HY23558   4.763   0.213  13.339 -1.0009 -1.5635 -1.8096
  191DOPC   O3123559   4.750   0.161  13.539 -0.1162  0.2318  0.2581
  191DOPC   C3123560   4.671   0.173  13.639 -0.0631 -0.9040 -0.0835
  191DOPC   O3223561   4.552   0.213  13.638 -0.6547  0.8587 -0.1340
  191DOPC   C3223562   4.747   0.148  13.770 -0.1027  0.3798  0.6576
  191DOPC   H2X23563   4.752   0.038  13.786 -1.2696  0.2503  0.2045
  191DOPC   H2Y23564   4.849   0.189  13.756 -1.1662  2.6924 -1.0189
  191DOPC   C2323565   4.502  -0.166  13.703 -0.1408 -0.1221  0.5157
  191DOPC   H3R23566   4.430  -0.196  13.782 -1.0307  0.7748  0.0592
  191DOPC   H3S23567   4.514  -0.056  13.717  1.4634 -0.5032  2.7419
  191DOPC   C2423568   4.634  -0.238  13.722 -0.1893 -0.6153 -0.3227
  191DOPC   H4R23569   4.719  -0.197  13.663  1.3697 -1.6717  1.1098
  191DOPC   H4S23570   4.625  -0.344  13.687 -0.9245 -0.9279  0.7680
  191DOPC   C2523571   4.681  -0.247  13.870 -0.4028 -0.0299  0.2388
  191DOPC   H5R23572   4.588  -0.255  13.930 -0.2618  2.1720  0.8112
  191DOPC   H5S23573   4.724  -0.150  13.901 -1.4680  0.5644 -0.1120
  191DOPC   C2623574   4.756  -0.372  13.901  0.2446 -0.0944  0.1530
  191DOPC   H6R23575   4.848  -0.360  13.839  0.4917  1.5985  0.7995
  191DOPC   H6S23576   4.704  -0.459  13.855  2.2088 -1.5348  0.5052
  191DOPC   C2723577   4.785  -0.385  14.049 -0.2903 -0.1969  0.3580
  191DOPC   H7R23578   4.718  -0.451  14.108  1.4058  0.2560  2.9692
  191DOPC   H7S23579   4.762  -0.285  14.092  0.6998  0.6842 -1.0709
  191DOPC   C2823580   4.932  -0.443  14.070  0.3916  0.1271  0.3939
  191DOPC   H8R23581   4.944  -0.455  14.180  0.4303  1.1729  0.5161
  191DOPC   H8S23582   5.009  -0.366  14.048 -1.0546  1.0467 -1.7567
  191DOPC   C2923583   4.967  -0.565  13.998 -0.0207  0.1868 -0.4097
  191DOPC   H9R23584   4.875  -0.604  13.951  0.0248 -1.7996  1.0108
  191DOPC  C21023585   5.085  -0.623  13.991  0.4043  0.8359 -0.4213
  191DOPC  H10R23586   5.088  -0.723  13.945  4.5635  0.4157  0.3310
  191DOPC  C21123587   5.211  -0.575  14.061 -0.0084 -0.2398  0.3801
  191DOPC  H11R23588   5.203  -0.465  14.069  0.0187 -0.2933  1.2512
  191DOPC  H11S23589   5.294  -0.600  13.991 -2.1992  0.6924 -2.7390
  191DOPC  C21223590   5.231  -0.625  14.198 -0.4467  0.9732 -0.0592
  191DOPC  H12R23591   5.226  -0.735  14.207 -0.4483  1.0909  2.0782
  191DOPC  H12S23592   5.146  -0.591  14.261 -0.1239  0.3526  0.7318
  191DOPC  C21323593   5.349  -0.563  14.270  0.0032 -0.3647 -0.7895
  191DOPC  H13R23594   5.334  -0.453  14.274  0.2083 -0.3494 -0.2123
  191DOPC  H13S23595   5.436  -0.575  14.203 -1.3817  0.3793 -2.8037
  191DOPC  C21423596   5.367  -0.617  14.414 -0.0861 -0.3367  0.1739
  191DOPC  H14R23597   5.381  -0.727  14.417  2.4012 -0.0656  2.6237
  191DOPC  H14S23598   5.269  -0.597  14.462 -0.2461  0.1697 -0.3535
  191DOPC  C21523599   5.480  -0.537  14.483  0.0350 -0.4380  0.1763
  191DOPC  H15R23600   5.466  -0.428  14.469  0.9158 -0.6207 -2.9485
  191DOPC  H15S23601   5.569  -0.563  14.422 -0.1267 -0.7521  0.0679
  191DOPC  C21623602   5.501  -0.567  14.636 -0.3842 -0.0191  0.1082
  191DOPC  H16R23603   5.514  -0.678  14.642 -0.7026 -0.0806 -0.3122
  191DOPC  H16S23604   5.400  -0.542  14.674 -0.0236  1.7453 -0.0118
  191DOPC  C21723605   5.612  -0.489  14.704 -0.7679  0.2190  0.7320
  191DOPC  H17R23606   5.600  -0.508  14.813 -1.0699 -2.5484  0.2822
  191DOPC  H17S23607   5.595  -0.384  14.670 -0.8542 -0.4907 -1.5448
  191DOPC  C21823608   5.752  -0.542  14.660 -0.2015 -0.6102  0.9837
  191DOPC  H18R23609   5.779  -0.525  14.554 -0.7237 -1.7431  0.6498
  191DOPC  H18S23610   5.760  -0.649  14.690 -1.2601 -1.3566 -1.2129
  191DOPC  H18T23611   5.832  -0.488  14.714 -0.5588  0.3571  0.5662
  191DOPC   C3323612   4.686   0.214  13.895  0.2280 -0.3296  0.1446
  191DOPC   H3X23613   4.587   0.171  13.922 -0.1857 -0.0668 -0.9043
  191DOPC   H3Y23614   4.666   0.323  13.881  2.6779  0.3325  1.2323
  191DOPC   C3423615   4.795   0.221  14.006  0.5038  1.1248  0.3506
  191DOPC   H4X23616   4.736   0.258  14.093  1.4804  0.8571  1.1493
  191DOPC   H4Y23617   4.873   0.293  13.973  2.2224 -2.0075 -3.1711
  191DOPC   C3523618   4.860   0.088  14.051 -0.5344  0.1083  0.1355
  191DOPC   H5X23619   4.907   0.045  13.960 -0.0182 -1.0101  0.9041
  191DOPC   H5Y23620   4.771   0.026  14.072 -1.8182  1.5689 -0.7834
  191DOPC   C3623621   4.955   0.083  14.170  0.3986 -0.9329  0.1830
  191DOPC   H6X23622   5.039   0.152  14.146 -0.1227 -1.1362 -2.5520
  191DOPC   H6Y23623   4.907   0.125  14.261  1.6920  0.2409  0.3499
  191DOPC   C3723624   5.007  -0.055  14.203 -0.0980  0.0719 -0.2188
  191DOPC   H7X23625   4.928  -0.131  14.221  0.5285 -1.0088 -1.8159
  191DOPC   H7Y23626   5.055  -0.073  14.105 -0.3903  1.3417 -0.6094
  191DOPC   C3823627   5.106  -0.053  14.314 -0.5369 -0.2206 -0.0579
  191DOPC   H8X23628   5.046  -0.023  14.402 -1.3569 -0.7560 -0.4214
  191DOPC   H8Y23629   5.178   0.032  14.307  0.0209 -0.5254  1.4756
  191DOPC   C3923630   5.181  -0.185  14.323 -0.1208  0.4288 -0.3183
  191DOPC   H9X23631   5.181  -0.251  14.235 -2.3018 -1.6236  1.1009
  191DOPC  C31023632   5.228  -0.234  14.443 -0.1516  0.1531 -0.5987
  191DOPC  H10X23633   5.268  -0.336  14.445 -0.6950 -0.0601 -0.5548
  191DOPC  C31123634   5.214  -0.170  14.579 -0.5693 -0.1685  0.0780
  191DOPC  H11X23635   5.204  -0.247  14.658 -0.3616 -0.9646 -0.6535
  191DOPC  H11Y23636   5.120  -0.111  14.575 -0.1342  0.5301  0.1496
  191DOPC  C31223637   5.341  -0.082  14.606  0.7344 -0.4684  0.0323
  191DOPC  H12X23638   5.354  -0.021  14.514 -0.4950 -0.8517 -0.4173
  191DOPC  H12Y23639   5.428  -0.151  14.611  0.4414 -0.8407  0.0687
  191DOPC  C31323640   5.350  -0.009  14.739 -0.3411  0.2243  0.2825
  191DOPC  H13X23641   5.442   0.052  14.736 -0.1635  0.0005  0.9941
  191DOPC  H13Y23642   5.272   0.070  14.748 -0.2257  0.1727  1.8709
  191DOPC  C31423643   5.341  -0.099  14.862 -0.2508  0.1542 -0.0898
  191DOPC  H14X23644   5.244  -0.153  14.863  1.1748 -2.6095  2.0711
  191DOPC  H14Y23645   5.408  -0.187  14.855  0.1556  0.4376  0.2175
  191DOPC  C31523646   5.353  -0.024  14.993  0.0681 -0.1209 -0.1680
  191DOPC  H15X23647   5.288   0.065  15.004  0.4449  0.2359 -0.7243
  191DOPC  H15Y23648   5.460   0.007  14.995 -0.0381  0.2912 -0.6807
  191DOPC  C31623649   5.315  -0.120  15.112 -0.7621  0.1786 -0.2455
  191DOPC  H16X23650   5.212  -0.154  15.086 -1.1704  0.8740  0.4239
  191DOPC  H16Y23651   5.363  -0.220  15.118  0.8516  0.9984  1.6573
  191DOPC  C31723652   5.308  -0.048  15.248 -0.3880 -0.1795 -0.3526
  191DOPC  H17X23653   5.225   0.025  15.236 -0.4856 -0.3799 -0.9327
  191DOPC  H17Y23654   5.277  -0.121  15.325  1.6447 -0.3483  0.3688
  191DOPC  C31823655   5.441   0.020  15.286 -0.6051 -0.0806  0.6240
  191DOPC  H18X23656   5.524  -0.053  15.300 -0.0072  0.7334  1.3891
  191DOPC  H18Y23657   5.470   0.086  15.201 -1.2637  0.8141  1.0817
  191DOPC  H18Z23658   5.437   0.080  15.380 -2.1628 -0.2970  0.7221
  192DOPC     N23659   7.382   5.442  12.878  0.1167  0.0546 -0.0052
  192DOPC   C1223660   7.505   5.518  12.830  0.3635 -0.0411 -0.4412
  192DOPC  H12A23661   7.466   5.607  12.782 -2.1108 -0.4275  0.7086
  192DOPC  H12B23662   7.553   5.469  12.747  2.1205  2.4152 -1.0090
  192DOPC   C1323663   7.420   5.328  12.965  0.2649  0.3574 -0.0973
  192DOPC  H13A23664   7.457   5.245  12.906 -0.1703  1.1389 -1.5251
  192DOPC  H13B23665   7.485   5.353  13.048  0.4329  0.5588 -0.2893
  192DOPC  H13C23666   7.331   5.290  13.014  0.6311  0.1419  0.4116
  192DOPC   C1423667   7.288   5.390  12.767 -0.9799  0.7265 -0.0567
  192DOPC  H14A23668   7.207   5.329  12.803 -0.8697  1.5575  1.7015
  192DOPC  H14B23669   7.248   5.474  12.712 -0.2989  0.4332 -1.0314
  192DOPC  H14C23670   7.345   5.323  12.704  3.1435 -0.0385  3.9620
  192DOPC   C1523671   7.297   5.532  12.962 -0.5590 -0.3605  0.5828
  192DOPC  H15A23672   7.362   5.569  13.040  2.2416 -2.6083 -0.4859
  192DOPC  H15B23673   7.216   5.477  13.007 -0.7535  0.8875  1.8310
  192DOPC  H15C23674   7.267   5.619  12.905  0.5603 -1.0755 -1.2048
  192DOPC   C1123675   7.622   5.560  12.928 -0.1605  0.0272  0.2602
  192DOPC  H11A23676   7.697   5.603  12.858 -0.5352 -0.4939 -0.4671
  192DOPC  H11B23677   7.590   5.639  12.999 -0.3816 -0.9382  1.2781
  192DOPC     P23678   7.781   5.475  13.118  0.0733  0.0354 -0.4997
  192DOPC   O1323679   7.902   5.556  13.072  0.4172  0.0038  0.0262
  192DOPC   O1423680   7.819   5.346  13.178 -0.4792 -0.1209 -0.6802
  192DOPC   O1223681   7.682   5.447  12.994  0.2548 -0.0282  0.0430
  192DOPC   O1123682   7.700   5.557  13.219  0.6616  0.3592  0.0458
  192DOPC    C123683   7.581   5.501  13.265 -0.2531 -0.5700  0.3117
  192DOPC    HA23684   7.552   5.404  13.218 -0.3051 -0.1684 -0.5065
  192DOPC    HB23685   7.501   5.576  13.243 -0.2419 -0.7675 -0.4395
  192DOPC    C223686   7.574   5.484  13.420 -0.2127 -0.2759 -0.6059
  192DOPC    HS23687   7.470   5.455  13.444 -0.7665  1.6393 -0.5317
  192DOPC   O2123688   7.604   5.607  13.483 -0.4181 -0.1255 -0.3334
  192DOPC   C2123689   7.552   5.614  13.608  0.1515 -0.6683  0.2050
  192DOPC   O2223690   7.484   5.526  13.659  0.5201 -0.2499 -0.1128
  192DOPC   C2223691   7.587   5.746  13.671 -0.3797 -0.0884 -0.0109
  192DOPC   H2R23692   7.506   5.814  13.637 -0.5818  1.3416  3.0507
  192DOPC   H2S23693   7.672   5.792  13.616 -0.1917  0.9358  1.1171
  192DOPC    C323694   7.669   5.364  13.457 -0.0733 -0.2697  0.3478
  192DOPC    HX23695   7.773   5.392  13.429  0.5876 -0.2755  2.6137
  192DOPC    HY23696   7.645   5.277  13.391 -2.7241  0.6428 -0.0149
  192DOPC   O3123697   7.670   5.324  13.590  0.3846 -0.7650  0.3818
  192DOPC   C3123698   7.564   5.246  13.626  0.1376  0.0602  0.2301
  192DOPC   O3223699   7.475   5.206  13.556  0.2682 -0.0688  0.4756
  192DOPC   C3223700   7.568   5.207  13.772 -0.0562  0.1791 -0.1316
  192DOPC   H2X23701   7.611   5.287  13.837  0.0770  0.2288 -0.2810
  192DOPC   H2Y23702   7.461   5.205  13.801  0.1976 -0.3798  0.8061
  192DOPC   C2323703   7.610   5.729  13.819  0.4973  0.0314 -0.0289
  192DOPC   H3R23704   7.707   5.677  13.840 -0.5329 -1.7369  0.5597
  192DOPC   H3S23705   7.534   5.664  13.866  0.9896 -0.9301 -0.5182
  192DOPC   C2423706   7.611   5.868  13.885 -0.6010  0.0918  0.0491
  192DOPC   H4R23707   7.508   5.907  13.899 -0.0087  2.1365 -0.8319
  192DOPC   H4S23708   7.656   5.935  13.808  1.7622  0.3788  1.6000
  192DOPC   C2523709   7.679   5.861  14.017 -0.2082 -0.1812  0.2621
  192DOPC   H5R23710   7.789   5.842  14.011 -0.5025 -2.2815  0.6163
  192DOPC   H5S23711   7.645   5.777  14.082  1.4023 -0.6040  0.6278
  192DOPC   C2623712   7.671   5.999  14.083  0.4938  0.5351  0.3325
  192DOPC   H6R23713   7.567   6.034  14.066  0.1597  0.1561  1.4609
  192DOPC   H6S23714   7.742   6.074  14.042  0.6132  0.0920 -0.2746
  192DOPC   C2723715   7.699   5.985  14.238 -0.2873 -0.1408  0.4469
  192DOPC   H7R23716   7.627   5.907  14.271 -0.5520  0.1591  0.5839
  192DOPC   H7S23717   7.669   6.077  14.294  0.7197 -0.3774  1.4224
  192DOPC   C2823718   7.846   5.942  14.270 -0.1026 -0.1112  0.6750
  192DOPC   H8R23719   7.907   6.032  14.248  0.6086 -0.7673 -0.1061
  192DOPC   H8S23720   7.868   5.854  14.205 -1.4559  1.6944 -2.4386
  192DOPC   C2923721   7.847   5.907  14.419 -0.0027  0.4494 -0.3032
  192DOPC   H9R23722   7.778   5.825  14.441  0.3682  0.4137  0.7470
  192DOPC  C21023723   7.904   5.965  14.526  0.2399 -0.2897  0.4772
  192DOPC  H10R23724   7.899   5.925  14.628  0.6804  0.3968  0.7819
  192DOPC  C21123725   7.997   6.086  14.518  0.0387  0.7922  0.0679
  192DOPC  H11R23726   7.953   6.173  14.573 -2.7466  0.8539 -1.9967
  192DOPC  H11S23727   8.008   6.126  14.415 -1.2907  0.5566 -0.1800
  192DOPC  C21223728   8.153   6.072  14.563  0.0520  0.2226 -0.1685
  192DOPC  H12R23729   8.146   6.055  14.673  0.9205  2.9091  0.3620
  192DOPC  H12S23730   8.204   6.170  14.554 -0.7399  0.5792 -0.9741
  192DOPC  C21323731   8.234   5.969  14.476  0.6865 -0.2799 -0.2333
  192DOPC  H13R23732   8.230   5.992  14.367  1.1082 -1.1090 -0.4302
  192DOPC  H13S23733   8.197   5.865  14.486  0.6613 -0.1166  1.6546
  192DOPC  C21423734   8.386   5.954  14.510 -0.2941  0.4150 -0.0813
  192DOPC  H14R23735   8.393   5.952  14.621  0.0440  0.6981 -0.0959
  192DOPC  H14S23736   8.427   6.050  14.472 -1.3988  1.0270  0.2293
  192DOPC  C21523737   8.456   5.831  14.454 -0.3267 -0.0498 -0.5050
  192DOPC  H15R23738   8.424   5.821  14.348 -0.4483  1.2469 -0.6100
  192DOPC  H15S23739   8.408   5.748  14.510 -0.1983 -0.2155 -0.6373
  192DOPC  C21623740   8.608   5.826  14.465 -0.1059  0.0144  0.1496
  192DOPC  H16R23741   8.635   5.727  14.423 -0.1618 -0.3103  0.8535
  192DOPC  H16S23742   8.633   5.840  14.573  1.3034  3.7330 -0.5194
  192DOPC  C21723743   8.684   5.932  14.386  0.0254 -0.0209  0.0473
  192DOPC  H17R23744   8.786   5.901  14.418 -0.4610 -1.2012  0.5129
  192DOPC  H17S23745   8.676   6.036  14.425  0.0791 -0.0906  0.2437
  192DOPC  C21823746   8.658   5.920  14.238  0.4467 -0.4891  0.4143
  192DOPC  H18R23747   8.669   5.819  14.193  0.6619 -0.6133  0.7440
  192DOPC  H18S23748   8.716   5.987  14.170  0.1280 -0.4418  0.1854
  192DOPC  H18T23749   8.555   5.954  14.213  0.1224 -1.5105  0.3327
  192DOPC   C3323750   7.641   5.076  13.803 -0.6968  0.4971 -0.5825
  192DOPC   H3X23751   7.741   5.086  13.754  0.6289 -1.2514  1.5501
  192DOPC   H3Y23752   7.586   4.988  13.763 -0.4309  0.3479 -0.6268
  192DOPC   C3423753   7.664   5.057  13.955  0.0894  0.2644  0.1391
  192DOPC   H4X23754   7.727   5.143  13.986 -0.9071  0.6968  1.0290
  192DOPC   H4Y23755   7.725   4.970  13.986 -0.9341 -0.0523  1.3304
  192DOPC   C3523756   7.533   5.068  14.035 -0.6924 -0.7107  0.4944
  192DOPC   H5X23757   7.474   4.983  13.995 -0.4001 -0.8850  0.4267
  192DOPC   H5Y23758   7.481   5.163  14.013  1.6495  0.4525 -0.4041
  192DOPC   C3623759   7.549   5.050  14.186  0.0347 -0.2409 -0.8346
  192DOPC   H6X23760   7.639   5.112  14.205  0.8133 -1.6524  0.2603
  192DOPC   H6Y23761   7.464   5.096  14.242  1.9727  2.1174  0.3770
  192DOPC   C3723762   7.583   4.912  14.239 -0.3151  0.0184 -0.0667
  192DOPC   H7X23763   7.496   4.845  14.222 -1.2568  1.1769  0.1390
  192DOPC   H7Y23764   7.658   4.874  14.166 -1.1767  1.1025 -1.5550
  192DOPC   C3823765   7.653   4.909  14.374 -0.1244 -0.0455  0.7005
  192DOPC   H8X23766   7.755   4.952  14.363 -0.2737 -0.1251 -1.3624
  192DOPC   H8Y23767   7.672   4.801  14.395  0.4477  0.1729  1.3083
  192DOPC   C3923768   7.582   4.959  14.496 -0.7228  0.1100 -0.2358
  192DOPC   H9X23769   7.490   4.903  14.517 -0.0574 -0.3455  1.6483
  192DOPC  C31023770   7.627   5.072  14.554 -0.4827  0.0498 -0.2415
  192DOPC  H10X23771   7.564   5.105  14.638 -1.3726 -0.0530 -0.8553
  192DOPC  C31123772   7.746   5.164  14.519  0.2043 -0.6307  0.2631
  192DOPC  H11X23773   7.723   5.210  14.421 -0.9179 -1.4219  0.1343
  192DOPC  H11Y23774   7.847   5.118  14.524  1.3176  1.2546 -2.4438
  192DOPC  C31223775   7.750   5.275  14.633 -0.4695  0.0655 -0.7783
  192DOPC  H12X23776   7.645   5.311  14.643 -0.3340  0.6666 -1.4750
  192DOPC  H12Y23777   7.828   5.352  14.618  1.7991 -1.4076  2.3704
  192DOPC  C31323778   7.787   5.222  14.776 -0.2548  0.0543  0.2123
  192DOPC  H13X23779   7.716   5.146  14.816  0.0113  0.1838  0.9451
  192DOPC  H13Y23780   7.883   5.165  14.770 -0.2336  0.0112  0.8930
  192DOPC  C31423781   7.792   5.325  14.889 -0.2978 -0.6369 -0.8035
  192DOPC  H14X23782   7.832   5.270  14.977 -0.5859  1.1040  0.4873
  192DOPC  H14Y23783   7.869   5.399  14.859 -0.4402 -0.3404 -0.4542
  192DOPC  C31523784   7.658   5.397  14.931  0.1220 -0.3412  0.4857
  192DOPC  H15X23785   7.570   5.329  14.922 -1.9179  2.2022  0.0096
  192DOPC  H15Y23786   7.629   5.485  14.870 -0.5634 -0.0689  1.1780
  192DOPC  C31623787   7.675   5.433  15.079  0.1808 -0.3181  0.6528
  192DOPC  H16X23788   7.715   5.352  15.144  1.0635  1.1915  2.0747
  192DOPC  H16Y23789   7.749   5.514  15.098 -0.3997  0.5298 -0.5616
  192DOPC  C31723790   7.541   5.477  15.150 -0.1258  0.1089  0.2556
  192DOPC  H17X23791   7.479   5.540  15.083  0.9643 -0.4714 -1.3712
  192DOPC  H17Y23792   7.494   5.379  15.174  1.3949 -0.4887  0.9721
  192DOPC  C31823793   7.559   5.554  15.280  0.0298  0.4058  0.2909
  192DOPC  H18X23794   7.635   5.634  15.268 -1.1552  1.2925 -2.0983
  192DOPC  H18Y23795   7.467   5.600  15.322  1.4795  1.0647  2.9268
  192DOPC  H18Z23796   7.586   5.485  15.362 -0.8288  1.0804  1.1732
  193DOPC     N23797   0.005   1.284  12.744 -0.2445 -0.1895  0.1707
  193DOPC   C1223798   0.021   1.168  12.833  0.2749  0.2705  0.5613
  193DOPC  H12A23799   0.071   1.204  12.921 -0.8690 -0.7688  1.6812
  193DOPC  H12B23800   0.061   1.088  12.773 -1.7091 -0.3676 -0.0117
  193DOPC   C1323801  -0.082   1.243  12.629 -0.3869 -0.4951 -0.0902
  193DOPC  H13A23802  -0.167   1.192  12.671 -1.0175  0.2276 -0.4739
  193DOPC  H13B23803  -0.129   1.328  12.582  0.4046  0.6316  1.1007
  193DOPC  H13C23804  -0.040   1.177  12.555  3.6713  2.4974 -0.8465
  193DOPC   C1423805   0.141   1.322  12.702 -0.5974  0.6912 -0.1391
  193DOPC  H14A23806   0.210   1.349  12.781 -0.6638 -0.1834  0.2342
  193DOPC  H14B23807   0.178   1.240  12.643  0.0131 -1.3175  2.8166
  193DOPC  H14C23808   0.132   1.410  12.640  1.7307  1.0838 -0.0188
  193DOPC   C1523809  -0.060   1.396  12.828  0.2446  0.2925 -0.1306
  193DOPC  H15A23810  -0.102   1.479  12.774  1.1449 -0.1391 -1.5398
  193DOPC  H15B23811   0.017   1.438  12.891 -0.3222  0.8717  0.1913
  193DOPC  H15C23812  -0.134   1.339  12.883 -0.4446 -0.2463 -1.5710
  193DOPC   C1123813  -0.109   1.104  12.886 -0.2305 -0.0451  0.4224
  193DOPC  H11A23814  -0.170   1.058  12.805  0.9703 -0.0985 -0.4965
  193DOPC  H11B23815  -0.064   1.017  12.938 -0.1478 -0.8647 -0.9551
  193DOPC     P23816  -0.225   1.144  13.120 -0.2495  0.2403  0.1673
  193DOPC   O1323817  -0.295   1.016  13.124 -0.2477  0.3580  0.3051
  193DOPC   O1423818  -0.299   1.256  13.190 -0.1103  0.6590  0.3740
  193DOPC   O1223819  -0.179   1.181  12.978 -0.0333  0.5193  0.1585
  193DOPC   O1123820  -0.082   1.131  13.190 -0.4385  0.3816  0.2915
  193DOPC    C123821  -0.023   1.202  13.306 -0.8454  0.3951 -0.5520
  193DOPC    HA23822  -0.045   1.311  13.298 -0.8810  0.3235 -1.6305
  193DOPC    HB23823   0.088   1.193  13.304 -0.7534  0.7839  1.2442
  193DOPC    C223824  -0.065   1.144  13.441 -0.7092 -0.4508  0.1566
  193DOPC    HS23825  -0.046   1.035  13.440  0.5064 -0.3230  2.5876
  193DOPC   O2123826  -0.208   1.180  13.455  0.1845  0.0641 -0.1040
  193DOPC   C2123827  -0.259   1.116  13.559  0.5151 -0.1875  0.5239
  193DOPC   O2223828  -0.212   1.014  13.609  0.1884 -0.4339 -0.2210
  193DOPC   C2223829  -0.387   1.187  13.602  0.2541 -0.1832 -0.1199
  193DOPC   H2R23830  -0.453   1.208  13.515  1.4389 -1.0920 -1.2692
  193DOPC   H2S23831  -0.363   1.282  13.654  1.1047  0.0354 -0.8689
  193DOPC    C323832   0.029   1.191  13.553 -0.3022 -0.1764 -0.4844
  193DOPC    HX23833   0.134   1.173  13.520  0.5224  1.9104  0.7905
  193DOPC    HY23834   0.015   1.146  13.653 -0.9981 -0.8422 -0.8705
  193DOPC   O3123835   0.031   1.337  13.545  0.2325  0.2763  0.0161
  193DOPC   C3123836  -0.064   1.396  13.621 -0.1811 -0.1063  0.1070
  193DOPC   O3223837  -0.141   1.341  13.697 -0.5367 -0.2915 -0.2504
  193DOPC   C3223838  -0.056   1.542  13.591  0.7513  0.0065  0.5562
  193DOPC   H2X23839  -0.054   1.556  13.480  0.0372 -2.4487  0.1570
  193DOPC   H2Y23840  -0.147   1.593  13.628  0.3652 -0.6143  0.4772
  193DOPC   C2323841  -0.476   1.096  13.688  0.0242  0.5505 -0.9181
  193DOPC   H3R23842  -0.474   0.992  13.650  0.1379 -0.2399  1.1218
  193DOPC   H3S23843  -0.581   1.130  13.689  0.3012  1.4405  0.7774
  193DOPC   C2423844  -0.422   1.082  13.829 -0.3647 -0.6565 -0.5644
  193DOPC   H4R23845  -0.312   1.067  13.820 -0.2940  0.2252 -1.2783
  193DOPC   H4S23846  -0.454   1.001  13.897  0.5045  0.5821  1.4172
  193DOPC   C2523847  -0.434   1.213  13.916 -0.1280  0.4231 -0.1429
  193DOPC   H5R23848  -0.538   1.251  13.909 -0.1593  0.5098  0.7347
  193DOPC   H5S23849  -0.357   1.288  13.888  0.5785 -0.3818 -0.3904
  193DOPC   C2623850  -0.395   1.180  14.066  0.4468  0.0920 -0.0117
  193DOPC   H6R23851  -0.462   1.120  14.131 -0.1735  1.7372  0.9039
  193DOPC   H6S23852  -0.399   1.279  14.115 -0.9052 -0.3275  0.7727
  193DOPC   C2723853  -0.251   1.127  14.076 -0.4796  0.3587 -0.3415
  193DOPC   H7R23854  -0.171   1.195  14.040  1.3266 -1.4761  0.1008
  193DOPC   H7S23855  -0.248   1.036  14.013  1.0560 -0.0636  0.3043
  193DOPC   C2823856  -0.234   1.087  14.228  0.1145 -0.1120  0.1537
  193DOPC   H8R23857  -0.307   1.004  14.240  0.7801 -0.3770  3.2669
  193DOPC   H8S23858  -0.274   1.168  14.292 -1.7313 -0.8539 -0.0050
  193DOPC   C2923859  -0.094   1.047  14.279 -0.5911 -0.2133  0.6739
  193DOPC   H9R23860  -0.041   1.135  14.318 -0.9850 -0.4025  1.6694
  193DOPC  C21023861  -0.039   0.923  14.288  0.2384  0.3138  0.3807
  193DOPC  H10R23862   0.064   0.906  14.323 -0.1121 -0.6051  0.9999
  193DOPC  C21123863  -0.107   0.791  14.259  0.0639  0.1327 -0.6192
  193DOPC  H11R23864  -0.061   0.732  14.177 -3.9171 -1.0557 -2.2395
  193DOPC  H11S23865  -0.209   0.800  14.217 -0.0702 -0.8637 -0.5294
  193DOPC  C21223866  -0.098   0.698  14.384 -0.0833  0.4262 -0.5763
  193DOPC  H12R23867   0.007   0.680  14.416  0.2017 -2.7300 -2.8920
  193DOPC  H12S23868  -0.139   0.596  14.369  1.0373 -0.3064  1.0472
  193DOPC  C21323869  -0.188   0.759  14.495 -0.2167 -0.1282 -0.3316
  193DOPC  H13R23870  -0.286   0.770  14.444  0.3783 -0.1852 -1.5040
  193DOPC  H13S23871  -0.155   0.862  14.518 -1.2258  0.2003 -0.2972
  193DOPC  C21423872  -0.199   0.676  14.631  1.0308 -0.8907 -0.0629
  193DOPC  H14R23873  -0.230   0.574  14.600  0.8758 -0.3470 -1.7947
  193DOPC  H14S23874  -0.284   0.715  14.691 -0.2127 -1.7631 -1.1962
  193DOPC  C21523875  -0.081   0.679  14.718  0.0245  0.3550  0.0977
  193DOPC  H15R23876  -0.035   0.780  14.720 -0.0535  0.3914  0.0384
  193DOPC  H15S23877   0.002   0.626  14.665 -0.0786 -0.0358  0.3184
  193DOPC  C21623878  -0.118   0.627  14.859  0.3179 -0.3640 -0.8000
  193DOPC  H16R23879  -0.141   0.519  14.852  1.1144 -0.8507  2.5054
  193DOPC  H16S23880  -0.216   0.670  14.888  0.3276 -1.4564  1.0170
  193DOPC  C21723881  -0.010   0.632  14.966 -0.1794 -0.0380 -0.5304
  193DOPC  H17R23882  -0.050   0.632  15.069  3.2234  0.4730  0.9259
  193DOPC  H17S23883   0.052   0.724  14.951 -0.9287  0.6101  0.2493
  193DOPC  C21823884   0.084   0.509  14.948 -0.1316  0.7594 -0.3229
  193DOPC  H18R23885   0.031   0.412  14.937 -0.3173  0.5631  1.9410
  193DOPC  H18S23886   0.147   0.499  15.039  1.7304  2.7885 -1.3049
  193DOPC  H18T23887   0.147   0.511  14.856  0.4189 -4.0721 -0.3259
  193DOPC   C3323888   0.070   1.610  13.650 -0.1345  0.6540 -0.6354
  193DOPC   H3X23889   0.155   1.572  13.589  1.2314  2.1113  0.2747
  193DOPC   H3Y23890   0.084   1.583  13.756  1.9394  1.7595 -0.5662
  193DOPC   C3423891   0.077   1.755  13.636 -0.0131 -0.5927 -0.3001
  193DOPC   H4X23892   0.074   1.780  13.528 -0.5648 -0.8209 -0.3438
  193DOPC   H4Y23893   0.174   1.793  13.673 -1.2285  0.6097  1.8416
  193DOPC   C3523894  -0.034   1.843  13.700  0.4224 -0.6816  0.2603
  193DOPC   H5X23895  -0.131   1.805  13.660  0.5684 -0.3779 -0.3960
  193DOPC   H5Y23896  -0.023   1.945  13.660 -0.1816  0.2859  2.4206
  193DOPC   C3623897  -0.016   1.823  13.847 -0.3292 -0.7401 -0.0548
  193DOPC   H6X23898  -0.014   1.719  13.885  2.0272  0.1870  2.6708
  193DOPC   H6Y23899   0.085   1.866  13.862 -0.3426 -1.0898  1.1539
  193DOPC   C3723900  -0.117   1.911  13.913  0.4849  0.2611  0.2425
  193DOPC   H7X23901  -0.163   1.984  13.844 -1.3414 -1.6758 -0.7309
  193DOPC   H7Y23902  -0.198   1.849  13.958  0.3847  1.7573  2.3045
  193DOPC   C3823903  -0.059   1.985  14.041  0.2877  0.1552 -0.1533
  193DOPC   H8X23904   0.011   2.057  13.992 -0.6971 -0.0708 -1.9844
  193DOPC   H8Y23905  -0.005   1.904  14.095 -4.3874 -1.6673  2.2802
  193DOPC   C3923906  -0.164   2.059  14.114 -0.6808  0.1893 -0.0042
  193DOPC   H9X23907  -0.266   2.022  14.096 -0.1400 -2.2017  1.3762
  193DOPC  C31023908  -0.144   2.134  14.219 -0.8950  0.0254 -0.3848
  193DOPC  H10X23909  -0.231   2.196  14.243 -0.6558  0.1925  0.0772
  193DOPC  C31123910  -0.011   2.164  14.290 -0.3046 -0.6373  0.1492
  193DOPC  H11X23911   0.010   2.273  14.294  0.7249 -0.7771 -0.9331
  193DOPC  H11Y23912   0.079   2.124  14.240  1.0164  2.5497 -0.2515
  193DOPC  C31223913  -0.020   2.119  14.441  0.0739 -0.4417 -0.4459
  193DOPC  H12X23914  -0.106   2.164  14.495  0.5517 -1.0351  0.8690
  193DOPC  H12Y23915   0.078   2.151  14.482  0.5183 -0.4908 -1.4414
  193DOPC  C31323916  -0.025   1.968  14.481 -0.0007  0.0179  0.1230
  193DOPC  H13X23917  -0.107   1.909  14.434  0.3436 -0.0804 -0.3639
  193DOPC  H13Y23918   0.067   1.919  14.441 -1.0406 -0.1808 -2.1557
  193DOPC  C31423919  -0.029   1.951  14.638  0.1664  0.8952 -0.2811
  193DOPC  H14X23920   0.063   1.997  14.679  0.5531  1.4185 -1.6855
  193DOPC  H14Y23921  -0.118   1.998  14.684 -0.9576 -1.0586 -0.3801
  193DOPC  C31523922  -0.026   1.807  14.682  0.2071 -0.2074  0.8689
  193DOPC  H15X23923   0.080   1.779  14.662  0.0273  0.3414 -1.0007
  193DOPC  H15Y23924  -0.094   1.749  14.616  1.8575  1.6289 -2.7225
  193DOPC  C31623925  -0.069   1.805  14.824  0.3735  0.8525 -0.4852
  193DOPC  H16X23926  -0.009   1.884  14.875  0.4064  0.7830 -0.4164
  193DOPC  H16Y23927  -0.176   1.834  14.827  0.2321  0.3870 -0.8093
  193DOPC  C31723928  -0.047   1.681  14.912  0.3216  0.1763  0.7725
  193DOPC  H17X23929  -0.046   1.722  15.015  1.2839  0.9712  0.4698
  193DOPC  H17Y23930  -0.124   1.603  14.897 -1.0063  1.6554 -0.6029
  193DOPC  C31823931   0.089   1.606  14.888 -0.2150  0.1714 -0.2837
  193DOPC  H18X23932   0.083   1.563  14.786 -0.7475 -0.8365  0.1571
  193DOPC  H18Y23933   0.180   1.669  14.898 -0.5686  0.5057  1.1056
  193DOPC  H18Z23934   0.094   1.515  14.951  0.4257  1.7764  2.1707
  194DOPC     N23935   1.537   0.302  13.222 -0.2963 -0.6959 -0.3271
  194DOPC   C1223936   1.645   0.268  13.325  0.2054 -0.5079 -0.1750
  194DOPC  H12A23937   1.665   0.349  13.394 -1.5721 -1.7659  1.9682
  194DOPC  H12B23938   1.738   0.252  13.272  1.6996  0.9700  1.8321
  194DOPC   C1323939   1.422   0.371  13.289  0.2837 -0.3567 -0.4071
  194DOPC  H13A23940   1.339   0.393  13.223 -0.6520 -0.4821  0.7003
  194DOPC  H13B23941   1.379   0.302  13.360 -2.6997  0.2363 -1.4855
  194DOPC  H13C23942   1.459   0.446  13.357 -0.6686 -0.2964  0.0598
  194DOPC   C1423943   1.492   0.174  13.151 -0.0470  0.3881 -0.0225
  194DOPC  H14A23944   1.450   0.099  13.217 -1.2264  0.1468 -1.0267
  194DOPC  H14B23945   1.409   0.190  13.084 -1.0418 -0.9786  0.8224
  194DOPC  H14C23946   1.581   0.133  13.103  2.0176  1.9719  2.2275
  194DOPC   C1523947   1.589   0.400  13.125 -0.4494 -0.1318 -0.2572
  194DOPC  H15A23948   1.613   0.491  13.178  0.0988  1.0799 -2.4355
  194DOPC  H15B23949   1.512   0.428  13.055 -0.4965 -2.0467 -1.0495
  194DOPC  H15C23950   1.674   0.362  13.070 -0.7356 -1.6675  0.3077
  194DOPC   C1123951   1.621   0.152  13.431  0.6740  0.6058  0.0273
  194DOPC  H11A23952   1.711   0.138  13.494 -0.0762 -2.1209  0.6486
  194DOPC  H11B23953   1.528   0.170  13.490  0.5248 -2.8343  1.1087
  194DOPC     P23954   1.705  -0.078  13.312 -0.1594  0.0212  0.4999
  194DOPC   O1323955   1.824   0.003  13.266 -0.4581  0.1323  0.1332
  194DOPC   O1423956   1.643  -0.173  13.214 -0.8609 -0.0433 -0.4403
  194DOPC   O1223957   1.594   0.025  13.372 -0.3051 -0.0042  0.4646
  194DOPC   O1123958   1.751  -0.153  13.446  0.2637 -0.0358  0.7873
  194DOPC    C123959   1.661  -0.222  13.529 -0.2634  0.1984 -0.5570
  194DOPC    HA23960   1.719  -0.299  13.585 -1.9101 -0.8755 -0.2802
  194DOPC    HB23961   1.576  -0.255  13.466  0.3661  1.6990 -2.2936
  194DOPC    C223962   1.631  -0.124  13.650 -0.0227  0.3245  0.6604
  194DOPC    HS23963   1.578  -0.038  13.604 -0.7731  0.0981  1.0823
  194DOPC   O2123964   1.750  -0.098  13.723 -0.1683 -0.3573  0.4060
  194DOPC   C2123965   1.760   0.031  13.760  0.2770 -0.0842 -0.4788
  194DOPC   O2223966   1.681   0.117  13.732 -0.1996 -0.1944 -0.1303
  194DOPC   C2223967   1.885   0.056  13.851 -0.0390 -0.0222  0.0945
  194DOPC   H2R23968   1.973   0.041  13.786  0.0647  0.8151  0.0321
  194DOPC   H2S23969   1.875  -0.017  13.934  0.8996 -0.8604 -0.5168
  194DOPC    C323970   1.517  -0.183  13.741  0.1457 -0.0711 -0.4385
  194DOPC    HX23971   1.432  -0.194  13.670 -0.1717  0.4380 -0.1528
  194DOPC    HY23972   1.506  -0.102  13.817  1.2266 -0.6805  0.3854
  194DOPC   O3123973   1.562  -0.305  13.795 -0.1119 -0.6616  0.2392
  194DOPC   C3123974   1.610  -0.300  13.921  0.3738  0.4433  0.0066
  194DOPC   O3223975   1.616  -0.202  13.991 -0.4242  0.2157 -0.8872
  194DOPC   C3223976   1.673  -0.432  13.949  0.0892 -0.3805  1.1933
  194DOPC   H2X23977   1.598  -0.511  13.928 -1.4468  1.5010 -0.9373
  194DOPC   H2Y23978   1.746  -0.444  13.865 -0.1458  1.7421  0.6141
  194DOPC   C2323979   1.903   0.200  13.919 -0.4391  0.2709  0.1691
  194DOPC   H3R23980   1.803   0.213  13.966 -1.5625 -0.1165 -2.0004
  194DOPC   H3S23981   1.915   0.274  13.838 -2.5081  0.4713 -0.0232
  194DOPC   C2423982   2.019   0.200  14.018 -0.0284 -0.5681  0.5351
  194DOPC   H4R23983   2.036   0.307  14.044 -1.2387 -0.3565  0.5122
  194DOPC   H4S23984   2.111   0.158  13.972 -0.1039  2.7672 -3.2410
  194DOPC   C2523985   1.995   0.139  14.160  0.4764 -0.2161 -0.2012
  194DOPC   H5R23986   2.013   0.029  14.161  0.4543 -0.2247  1.2406
  194DOPC   H5S23987   1.891   0.170  14.183 -0.0071 -1.7250 -0.2259
  194DOPC   C2623988   2.091   0.197  14.269 -0.0428  0.8618 -0.4482
  194DOPC   H6R23989   2.076   0.305  14.288 -0.0774  0.6372  0.8980
  194DOPC   H6S23990   2.196   0.176  14.239 -0.7627 -2.6143 -0.9452
  194DOPC   C2723991   2.068   0.125  14.403 -0.2596  0.6183  0.2635
  194DOPC   H7R23992   2.082   0.015  14.394 -1.2667  0.3178  1.9066
  194DOPC   H7S23993   1.962   0.140  14.433 -0.5271 -0.3147 -0.1821
  194DOPC   C2823994   2.162   0.173  14.524 -0.0234 -0.7063 -0.1412
  194DOPC   H8R23995   2.141   0.280  14.547  1.8549 -1.0519  4.0803
  194DOPC   H8S23996   2.261   0.145  14.482 -0.4617 -0.1900 -1.5898
  194DOPC   C2923997   2.116   0.102  14.648 -0.0823  0.5366 -0.6141
  194DOPC   H9R23998   2.028   0.147  14.695 -0.8836 -0.6685 -0.9207
  194DOPC  C21023999   2.162  -0.007  14.706  0.5566  0.4554 -0.7473
  194DOPC  H10R24000   2.115  -0.047  14.797 -0.3279  0.0537 -1.3643
  194DOPC  C21124001   2.278  -0.093  14.662  0.3500  0.1633  0.5127
  194DOPC  H11R24002   2.357  -0.033  14.613  1.1749  0.1679  1.7927
  194DOPC  H11S24003   2.242  -0.162  14.583 -0.8215  0.1015  1.0742
  194DOPC  C21224004   2.346  -0.169  14.776 -0.3085 -0.4931  0.4397
  194DOPC  H12R24005   2.418  -0.239  14.728  1.5004 -0.5006  2.9390
  194DOPC  H12S24006   2.278  -0.228  14.840  1.0415 -0.8333  1.6306
  194DOPC  C21324007   2.430  -0.082  14.872  0.0409  0.1010 -0.4206
  194DOPC  H13R24008   2.364  -0.004  14.916  1.4859  0.9079  0.3697
  194DOPC  H13S24009   2.508  -0.027  14.814  0.2606  0.1830 -0.0470
  194DOPC  C21424010   2.497  -0.182  14.974 -0.4411 -0.7721 -0.3689
  194DOPC  H14R24011   2.553  -0.256  14.913  0.0058  0.5574 -1.6421
  194DOPC  H14S24012   2.423  -0.235  15.037 -1.3819 -0.0613 -0.8531
  194DOPC  C21524013   2.590  -0.096  15.059  0.4700  0.8903  0.1937
  194DOPC  H15R24014   2.540  -0.033  15.136  1.8324  1.1346  0.9014
  194DOPC  H15S24015   2.633  -0.018  14.993  0.2193  1.8550  1.1340
  194DOPC  C21624016   2.683  -0.191  15.132 -0.6265 -0.2473  0.1446
  194DOPC  H16R24017   2.730  -0.269  15.068  1.1515  1.1228 -0.2983
  194DOPC  H16S24018   2.628  -0.248  15.209 -0.8069 -0.9374 -0.4881
  194DOPC  C21724019   2.807  -0.118  15.196 -0.0032  0.3230 -0.1335
  194DOPC  H17R24020   2.868  -0.085  15.109 -0.4036 -2.2941 -1.5189
  194DOPC  H17S24021   2.866  -0.192  15.254  1.8074  0.8500 -1.2249
  194DOPC  C21824022   2.771   0.003  15.279  0.0285 -0.1481  0.3336
  194DOPC  H18R24023   2.716  -0.034  15.368  1.0198 -0.2779  0.9065
  194DOPC  H18S24024   2.700   0.074  15.231  2.7973  0.5530 -3.0789
  194DOPC  H18T24025   2.864   0.062  15.297  0.5943 -0.2135 -2.1360
  194DOPC   C3324026   1.746  -0.447  14.080  0.4705 -0.3737 -0.1733
  194DOPC   H3X24027   1.803  -0.354  14.101 -1.4244  0.9019 -0.4372
  194DOPC   H3Y24028   1.818  -0.531  14.074  0.2759 -0.6045  0.5740
  194DOPC   C3424029   1.651  -0.489  14.199  0.3519  0.7889 -0.6771
  194DOPC   H4X24030   1.589  -0.574  14.164 -1.1210  0.9856  1.2436
  194DOPC   H4Y24031   1.587  -0.400  14.218  1.0968  0.9828  1.2312
  194DOPC   C3524032   1.731  -0.541  14.319 -0.2963 -0.6992  0.5908
  194DOPC   H5X24033   1.765  -0.454  14.380  0.7871 -0.8468  0.2358
  194DOPC   H5Y24034   1.832  -0.576  14.286 -0.5175 -0.2688 -0.5925
  194DOPC   C3624035   1.656  -0.652  14.388 -0.1367 -0.0255 -0.4113
  194DOPC   H6X24036   1.547  -0.630  14.396  0.1874  1.3444  0.6124
  194DOPC   H6Y24037   1.669  -0.746  14.331  2.4804  0.6364 -1.0250
  194DOPC   C3724038   1.717  -0.688  14.526  0.5157  0.0367 -0.0015
  194DOPC   H7X24039   1.707  -0.602  14.595  0.5003  0.3778 -0.4290
  194DOPC   H7Y24040   1.650  -0.766  14.569 -0.6135  1.7443  1.4834
  194DOPC   C3824041   1.856  -0.754  14.515 -0.4037  0.1117 -0.4157
  194DOPC   H8X24042   1.917  -0.668  14.478 -1.6867  1.7420  1.0944
  194DOPC   H8Y24043   1.862  -0.823  14.428 -1.4511  0.0936 -0.4895
  194DOPC   C3924044   1.915  -0.803  14.641 -0.9058 -0.6110  0.5999
  194DOPC   H9X24045   1.917  -0.911  14.662  0.1084 -0.4733  1.2751
  194DOPC  C31024046   1.978  -0.737  14.743  0.1216 -0.7758 -0.1993
  194DOPC  H10X24047   1.995  -0.795  14.835 -0.9440 -0.6724  0.0770
  194DOPC  C31124048   2.002  -0.584  14.759 -0.8427  0.5855 -0.0175
  194DOPC  H11X24049   1.946  -0.539  14.843  0.7849 -0.7436  1.8666
  194DOPC  H11Y24050   1.977  -0.535  14.662 -1.2531 -0.0922 -0.2616
  194DOPC  C31224051   2.151  -0.545  14.789  0.2540  0.4714  0.0677
  194DOPC  H12X24052   2.171  -0.436  14.778  1.3820  0.3640  0.8802
  194DOPC  H12Y24053   2.215  -0.586  14.709  1.3575  0.2214  1.0483
  194DOPC  C31324054   2.200  -0.583  14.923  0.0721  0.0193 -0.7955
  194DOPC  H13X24055   2.178  -0.503  14.998 -2.1992 -1.2204 -0.0447
  194DOPC  H13Y24056   2.150  -0.677  14.954  0.0035  0.1883 -0.3839
  194DOPC  C31424057   2.348  -0.616  14.928 -0.3129 -0.5884  0.0808
  194DOPC  H14X24058   2.375  -0.709  14.874  0.7124 -0.7015  0.7516
  194DOPC  H14Y24059   2.404  -0.536  14.876 -1.9905  0.0928 -0.7401
  194DOPC  C31524060   2.394  -0.623  15.072  0.1370  0.5560 -0.1196
  194DOPC  H15X24061   2.338  -0.698  15.132  0.7000  0.2347  0.0128
  194DOPC  H15Y24062   2.366  -0.523  15.113  0.2714  0.4861  0.1513
  194DOPC  C31624063   2.545  -0.640  15.088 -0.3240 -0.7869 -1.1908
  194DOPC  H16X24064   2.593  -0.549  15.044  1.5690 -0.7617  0.7475
  194DOPC  H16Y24065   2.564  -0.649  15.197 -1.3777  1.9910 -0.7033
  194DOPC  C31724066   2.595  -0.772  15.022 -0.0936 -0.5208 -0.0740
  194DOPC  H17X24067   2.592  -0.768  14.911 -0.1508 -1.1616 -0.1008
  194DOPC  H17Y24068   2.700  -0.791  15.052 -0.1546 -1.4323 -0.4229
  194DOPC  C31824069   2.513  -0.883  15.074 -0.9445  0.1769  0.5885
  194DOPC  H18X24070   2.407  -0.873  15.042 -0.6329  1.5213 -0.1230
  194DOPC  H18Y24071   2.555  -0.980  15.039 -0.2035  0.0957  1.6603
  194DOPC  H18Z24072   2.514  -0.890  15.184  6.1992 -0.3106  0.9868
  195DOPC     N24073   5.055   7.460  12.885  0.2523 -0.3928 -0.0157
  195DOPC   C1224074   5.034   7.398  13.023 -0.4588 -0.2107 -0.1384
  195DOPC  H12A24075   5.033   7.292  13.007 -4.6435 -0.6202  1.5455
  195DOPC  H12B24076   4.938   7.419  13.068  0.6850  0.1772  2.2918
  195DOPC   C1324077   5.165   7.376  12.814  0.4888 -0.0708  0.0417
  195DOPC  H13A24078   5.188   7.438  12.729  1.8153  0.0736  0.4819
  195DOPC  H13B24079   5.254   7.365  12.875  0.2135 -2.4589  0.0875
  195DOPC  H13C24080   5.121   7.280  12.793  0.7853 -0.0252 -0.8201
  195DOPC   C1424081   5.093   7.604  12.893 -0.4833  0.4895  0.4851
  195DOPC  H14A24082   5.015   7.657  12.946 -0.6341  0.7143  0.0424
  195DOPC  H14B24083   5.179   7.615  12.957 -0.8999 -1.0160  1.3446
  195DOPC  H14C24084   5.110   7.645  12.795 -2.0300 -0.9089 -0.4157
  195DOPC   C1524085   4.935   7.453  12.804  0.2412  0.4769 -0.7703
  195DOPC  H15A24086   4.953   7.493  12.705  2.9302  0.2812 -0.4483
  195DOPC  H15B24087   4.853   7.513  12.841  0.8664  0.5412  0.5954
  195DOPC  H15C24088   4.902   7.351  12.790  1.4313  0.0435 -0.5626
  195DOPC   C1124089   5.140   7.416  13.140 -0.8127  0.5409 -0.3135
  195DOPC  H11A24090   5.150   7.524  13.165  0.1851  0.2605  0.5678
  195DOPC  H11B24091   5.091   7.373  13.229  0.7168 -0.9041 -0.1202
  195DOPC     P24092   5.267   7.195  13.120 -0.1102 -0.1084  0.1484
  195DOPC   O1324093   5.404   7.146  13.091 -0.2126 -0.1498  0.5006
  195DOPC   O1424094   5.159   7.130  13.042  0.6111 -0.3201  0.1322
  195DOPC   O1224095   5.264   7.351  13.106  0.5442  0.2059  0.3393
  195DOPC   O1124096   5.242   7.162  13.278 -0.1375 -0.7754 -0.1795
  195DOPC    C124097   5.322   7.244  13.360 -0.6846  0.6869 -0.1117
  195DOPC    HA24098   5.294   7.351  13.350 -0.8333  0.6640  0.0519
  195DOPC    HB24099   5.429   7.246  13.330 -1.5219 -0.6670 -3.6281
  195DOPC    C224100   5.312   7.211  13.511  0.2815 -1.0473  0.5654
  195DOPC    HS24101   5.392   7.261  13.570  1.3823 -2.9661  0.7968
  195DOPC   O2124102   5.323   7.072  13.532  0.3443 -0.2542 -0.4229
  195DOPC   C2124103   5.449   7.023  13.535  0.3694  0.8730 -0.2731
  195DOPC   O2224104   5.549   7.086  13.528  0.0193  0.0190 -0.4684
  195DOPC   C2224105   5.455   6.872  13.545  0.2671  0.0005 -0.8272
  195DOPC   H2R24106   5.540   6.842  13.609  0.2300 -2.3124 -1.7734
  195DOPC   H2S24107   5.486   6.836  13.444 -0.7933 -1.1864 -0.7554
  195DOPC    C324108   5.177   7.262  13.556  0.0739 -0.5668  0.2100
  195DOPC    HX24109   5.150   7.243  13.662  0.5820 -0.0113  0.4464
  195DOPC    HY24110   5.105   7.198  13.500  0.9577  0.7800 -2.6960
  195DOPC   O3124111   5.162   7.403  13.538  0.7696  0.0123 -0.1466
  195DOPC   C3124112   5.041   7.441  13.540 -0.7790 -0.2372  0.7616
  195DOPC   O3224113   4.945   7.378  13.572  0.4078  0.3703  0.4614
  195DOPC   C3224114   5.037   7.589  13.491  0.0493  0.3792 -0.0124
  195DOPC   H2X24115   5.108   7.595  13.406 -1.2886 -0.6183 -1.2438
  195DOPC   H2Y24116   4.934   7.613  13.456 -1.6970 -3.7905  1.6213
  195DOPC   C2324117   5.334   6.791  13.579  0.1521 -0.1610 -0.0434
  195DOPC   H3R24118   5.356   6.687  13.547  2.4483 -0.4809  2.2270
  195DOPC   H3S24119   5.251   6.829  13.515 -1.3946 -0.5713  1.6457
  195DOPC   C2424120   5.293   6.787  13.728 -0.0167  0.3967 -0.3799
  195DOPC   H4R24121   5.215   6.708  13.732  1.2623 -0.8522  1.6092
  195DOPC   H4S24122   5.255   6.889  13.749  1.3269  0.3006  2.9838
  195DOPC   C2524123   5.406   6.754  13.822 -0.2870 -0.0253 -0.3495
  195DOPC   H5R24124   5.482   6.832  13.799 -0.9053  0.4968 -0.6565
  195DOPC   H5S24125   5.451   6.657  13.792  2.3928  0.3887  1.8518
  195DOPC   C2624126   5.370   6.772  13.973 -0.3155  0.4499 -0.2426
  195DOPC   H6R24127   5.289   6.703  14.004  1.0481 -1.3612 -0.4865
  195DOPC   H6S24128   5.317   6.869  13.979 -2.1308 -0.5964  3.2791
  195DOPC   C2724129   5.492   6.782  14.072 -0.3102  0.2851  0.0129
  195DOPC   H7R24130   5.501   6.891  14.091 -0.8502  0.3581 -0.1340
  195DOPC   H7S24131   5.586   6.739  14.031  0.0348  0.5025  0.5723
  195DOPC   C2824132   5.459   6.714  14.207 -0.6704 -0.0698  0.5059
  195DOPC   H8R24133   5.363   6.752  14.249 -0.3849 -0.9165  1.9665
  195DOPC   H8S24134   5.547   6.737  14.271 -1.3923  1.6800  0.9467
  195DOPC   C2924135   5.460   6.565  14.201 -0.1498 -0.4550  0.2928
  195DOPC   H9R24136   5.542   6.520  14.143 -0.3347  0.6643 -0.8935
  195DOPC  C21024137   5.363   6.491  14.259  1.0643  0.0256 -0.7691
  195DOPC  H10R24138   5.375   6.382  14.254  1.1458  0.0014 -0.1456
  195DOPC  C21124139   5.239   6.535  14.342 -0.0619 -1.0955 -0.6361
  195DOPC  H11R24140   5.153   6.469  14.315 -0.6946 -0.4531 -0.2300
  195DOPC  H11S24141   5.208   6.638  14.316  1.0907 -0.3155  0.9046
  195DOPC  C21224142   5.263   6.537  14.496 -0.2474  0.2166  0.2480
  195DOPC  H12R24143   5.368   6.560  14.526  0.1480 -1.6381  0.3778
  195DOPC  H12S24144   5.240   6.437  14.538  1.8432  0.6962  2.7867
  195DOPC  C21324145   5.173   6.639  14.564  0.4323 -1.0102  0.0127
  195DOPC  H13R24146   5.150   6.597  14.664  2.1071 -1.6969  0.1252
  195DOPC  H13S24147   5.080   6.655  14.504  0.4456  0.8213  0.4071
  195DOPC  C21424148   5.218   6.782  14.582  0.5044 -0.8114 -0.7055
  195DOPC  H14R24149   5.188   6.835  14.490  1.5660  2.0000  0.4512
  195DOPC  H14S24150   5.325   6.789  14.610 -0.2775  0.8794  2.4451
  195DOPC  C21524151   5.136   6.849  14.698 -0.1943 -0.0987 -0.0725
  195DOPC  H15R24152   5.028   6.826  14.684  0.0303  0.0887 -2.4308
  195DOPC  H15S24153   5.153   6.958  14.703 -0.3256 -0.0704 -0.2419
  195DOPC  C21624154   5.181   6.790  14.838 -0.2965  0.8197  0.6583
  195DOPC  H16R24155   5.290   6.810  14.844 -0.0790 -0.4980  1.6126
  195DOPC  H16S24156   5.166   6.680  14.843  0.7637  0.5859 -0.7937
  195DOPC  C21724157   5.119   6.868  14.962  0.2283 -0.2090  0.8801
  195DOPC  H17R24158   5.025   6.816  14.991 -0.1741  0.7595  1.3572
  195DOPC  H17S24159   5.093   6.963  14.910 -0.8809 -0.2694  1.3064
  195DOPC  C21824160   5.202   6.880  15.092  0.0574 -0.5300 -0.0740
  195DOPC  H18R24161   5.223   6.779  15.135  0.6161 -1.4057 -2.2645
  195DOPC  H18S24162   5.129   6.932  15.157 -1.7806  0.4305 -2.7386
  195DOPC  H18T24163   5.291   6.945  15.077 -0.9564  0.3540 -3.0129
  195DOPC   C3324164   5.084   7.692  13.604 -0.5355  0.5346  0.1088
  195DOPC   H3X24165   5.052   7.646  13.700 -2.3261  1.4896  0.0124
  195DOPC   H3Y24166   5.015   7.777  13.588 -2.3756 -1.1258 -1.3375
  195DOPC   C3424167   5.233   7.729  13.591  0.4530 -0.0871 -0.2428
  195DOPC   H4X24168   5.258   7.740  13.483  2.8051 -1.0359  0.1399
  195DOPC   H4Y24169   5.294   7.643  13.626  1.6003  0.8077  0.0429
  195DOPC   C3524170   5.279   7.856  13.659  0.5367  0.2112 -0.0827
  195DOPC   H5X24171   5.245   7.942  13.597 -1.8923 -0.4983  0.1503
  195DOPC   H5Y24172   5.390   7.853  13.659  0.5307 -0.3138  0.5492
  195DOPC   C3624173   5.213   7.871  13.796 -0.0155 -0.2127 -0.1550
  195DOPC   H6X24174   5.114   7.919  13.780 -0.0102 -0.5931 -1.4449
  195DOPC   H6Y24175   5.189   7.775  13.845  2.4235 -0.6682  0.2872
  195DOPC   C3724176   5.283   7.963  13.888 -0.1555 -0.3825 -0.0348
  195DOPC   H7X24177   5.385   7.922  13.903  0.0360  0.5294  1.3999
  195DOPC   H7Y24178   5.290   8.059  13.833 -0.4647  0.3979  1.2302
  195DOPC   C3824179   5.216   7.981  14.015  0.1513 -0.1602 -0.5969
  195DOPC   H8X24180   5.221   7.890  14.078 -2.1613  0.0509 -0.0198
  195DOPC   H8Y24181   5.107   7.978  13.999  0.1509 -2.0650 -0.4821
  195DOPC   C3924182   5.255   8.099  14.100 -0.2251 -0.0061 -0.5654
  195DOPC   H9X24183   5.212   8.191  14.057 -1.6438  0.6799  2.1316
  195DOPC  C31024184   5.337   8.102  14.209 -0.4183 -0.2027  0.3471
  195DOPC  H10X24185   5.341   8.201  14.258  0.6696 -0.2925  0.4720
  195DOPC  C31124186   5.418   7.993  14.286  0.0265 -0.0183  0.5546
  195DOPC  H11X24187   5.518   7.997  14.237 -0.2317 -0.8508 -0.0570
  195DOPC  H11Y24188   5.372   7.892  14.281 -0.4057  0.2273 -0.8580
  195DOPC  C31224189   5.420   8.034  14.437 -0.3646  0.5991  0.6513
  195DOPC  H12X24190   5.454   8.139  14.449 -2.4295  1.2834  0.9155
  195DOPC  H12Y24191   5.496   7.966  14.480  0.3196  1.1805  0.3742
  195DOPC  C31324192   5.285   8.017  14.511 -0.5842 -0.4745 -0.4895
  195DOPC  H13X24193   5.201   8.077  14.467 -0.8727 -0.6217 -0.1437
  195DOPC  H13Y24194   5.262   7.908  14.510 -0.8057 -0.4371  0.1694
  195DOPC  C31424195   5.306   8.055  14.654  0.0171  0.0534 -0.8471
  195DOPC  H14X24196   5.374   7.987  14.709  0.7211  1.9010  0.6794
  195DOPC  H14Y24197   5.355   8.154  14.666 -1.0084  0.6288 -1.2690
  195DOPC  C31524198   5.176   8.060  14.735  0.3696  0.3116 -0.7097
  195DOPC  H15X24199   5.120   7.965  14.721  0.7243  0.2026 -1.4842
  195DOPC  H15Y24200   5.114   8.140  14.689 -1.2611 -0.0872  0.6878
  195DOPC  C31624201   5.207   8.082  14.883  0.0764  0.4509 -0.2862
  195DOPC  H16X24202   5.190   7.995  14.949 -1.9312  1.3155  0.4301
  195DOPC  H16Y24203   5.314   8.106  14.895  0.9013 -3.0574  0.4175
  195DOPC  C31724204   5.126   8.200  14.955 -0.2728 -0.0148 -0.4970
  195DOPC  H17X24205   5.192   8.239  15.035 -2.0056 -0.6125  1.3049
  195DOPC  H17Y24206   5.110   8.280  14.881 -1.9255  0.4358  0.3019
  195DOPC  C31824207   4.992   8.154  15.009  0.3657  0.1627  0.0795
  195DOPC  H18X24208   5.008   8.080  15.090  0.5368 -0.5846 -0.6225
  195DOPC  H18Y24209   4.923   8.232  15.047 -0.1727 -0.0644 -0.4240
  195DOPC  H18Z24210   4.929   8.111  14.929 -0.2658  0.2120  0.5483
  196DOPC     N24211   0.680   1.247  13.047 -0.2769 -0.4260  0.3621
  196DOPC   C1224212   0.690   1.232  13.194  0.4822 -0.2005  0.2359
  196DOPC  H12A24213   0.599   1.266  13.240  0.6255  0.5029 -0.0004
  196DOPC  H12B24214   0.776   1.286  13.231 -1.4176  2.1797  1.3999
  196DOPC   C1324215   0.811   1.222  12.980 -0.2494  0.5888  0.1466
  196DOPC  H13A24216   0.801   1.242  12.875  0.8953 -0.7472 -0.2479
  196DOPC  H13B24217   0.893   1.278  13.023  0.8575 -0.1902 -0.8765
  196DOPC  H13C24218   0.833   1.118  12.999 -0.8622  0.1999 -1.1893
  196DOPC   C1424219   0.644   1.393  13.018  0.5379  0.4715  0.2697
  196DOPC  H14A24220   0.543   1.419  13.045 -0.0151  0.7906 -1.8999
  196DOPC  H14B24221   0.715   1.466  13.054 -1.4103  2.7216 -0.2350
  196DOPC  H14C24222   0.665   1.415  12.914  0.3333 -0.1561  0.0934
  196DOPC   C1524223   0.581   1.158  12.986  0.5305  0.5984  0.2509
  196DOPC  H15A24224   0.604   1.055  13.010 -0.9571 -0.7879 -3.4526
  196DOPC  H15B24225   0.578   1.163  12.878  0.1335  0.6648  0.2636
  196DOPC  H15C24226   0.482   1.169  13.028 -0.3168  1.7168 -1.8935
  196DOPC   C1124227   0.707   1.080  13.233  0.0464  0.1809 -0.1614
  196DOPC  H11A24228   0.687   1.061  13.341 -1.7561 -1.4637 -0.7287
  196DOPC  H11B24229   0.627   1.026  13.179 -0.0629  1.0892 -0.9170
  196DOPC     P24230   0.962   1.054  13.280  0.3030 -0.1280 -0.2596
  196DOPC   O1324231   0.972   1.189  13.337 -0.4862  0.3484 -0.1552
  196DOPC   O1424232   1.082   0.999  13.212 -0.3288  0.6310 -0.4026
  196DOPC   O1224233   0.838   1.036  13.185  0.4624  0.1693  0.2900
  196DOPC   O1124234   0.916   0.961  13.409 -0.4453 -0.0780  0.5104
  196DOPC    C124235   0.894   0.819  13.416  0.3812 -0.4344  0.1937
  196DOPC    HA24236   0.972   0.770  13.477  0.9464 -3.2271 -2.5464
  196DOPC    HB24237   0.902   0.784  13.311  1.2406  1.0546 -0.2745
  196DOPC    C224238   0.757   0.799  13.476  0.2566  0.0003 -0.0296
  196DOPC    HS24239   0.687   0.854  13.410  0.1281  1.5895  1.3537
  196DOPC   O2124240   0.747   0.856  13.609 -0.7311 -0.2637 -0.2079
  196DOPC   C2124241   0.625   0.862  13.655  0.3976 -0.6273 -0.1190
  196DOPC   O2224242   0.524   0.855  13.590 -0.1127 -0.7983  0.0150
  196DOPC   C2224243   0.627   0.884  13.807 -0.1804 -0.6422 -0.3858
  196DOPC   H2R24244   0.561   0.971  13.828  0.5738 -0.3676  0.9330
  196DOPC   H2S24245   0.730   0.913  13.835 -1.2129  0.2950  2.7726
  196DOPC    C324246   0.717   0.652  13.476 -0.1190 -0.6710 -0.6041
  196DOPC    HX24247   0.729   0.635  13.367 -0.5624 -1.8507 -0.4811
  196DOPC    HY24248   0.607   0.652  13.491 -0.0341  1.3420  0.5026
  196DOPC   O3124249   0.807   0.574  13.563 -0.1944 -0.3891  0.0177
  196DOPC   C3124250   0.887   0.491  13.501  0.1497  0.0770 -0.3893
  196DOPC   O3224251   0.905   0.492  13.380 -0.1731 -0.2623  0.0252
  196DOPC   C3224252   0.966   0.402  13.601  1.0933  0.0138 -0.7485
  196DOPC   H2X24253   0.927   0.298  13.589 -1.1547  0.6189  0.8413
  196DOPC   H2Y24254   1.075   0.403  13.577  1.5013  0.4881  1.0221
  196DOPC   C2324255   0.577   0.761  13.891  0.0330 -0.2993 -0.0895
  196DOPC   H3R24256   0.631   0.670  13.856  0.5487  0.1450 -0.4855
  196DOPC   H3S24257   0.477   0.737  13.850  1.2326 -2.2328 -2.0973
  196DOPC   C2424258   0.588   0.803  14.041  0.0197  0.0735 -0.0008
  196DOPC   H4R24259   0.530   0.896  14.058 -0.9095 -0.7713  1.6922
  196DOPC   H4S24260   0.695   0.820  14.066 -0.2201  2.1368 -0.1692
  196DOPC   C2524261   0.541   0.694  14.142 -0.1337  0.1906  0.5364
  196DOPC   H5R24262   0.590   0.598  14.115  0.6142  0.9958 -1.0970
  196DOPC   H5S24263   0.433   0.694  14.113 -0.0330  2.1592  0.0317
  196DOPC   C2624264   0.560   0.727  14.291  0.1233 -0.6172 -0.3466
  196DOPC   H6R24265   0.518   0.824  14.326 -0.8612 -0.5365 -1.6816
  196DOPC   H6S24266   0.670   0.735  14.305  0.2076  0.6135 -1.5529
  196DOPC   C2724267   0.516   0.610  14.379  0.0245  0.2171  0.2735
  196DOPC   H7R24268   0.558   0.622  14.481 -0.2112 -1.9697  0.6619
  196DOPC   H7S24269   0.570   0.524  14.335 -1.2922 -0.5509  0.1171
  196DOPC   C2824270   0.367   0.568  14.378  0.6503 -0.2872  1.1441
  196DOPC   H8R24271   0.339   0.484  14.445  0.1349 -0.5567  0.6027
  196DOPC   H8S24272   0.325   0.534  14.281 -0.6254  1.2601  1.1088
  196DOPC   C2924273   0.289   0.693  14.416 -0.3785 -0.5457 -0.2559
  196DOPC   H9R24274   0.267   0.753  14.326  1.3232 -0.0652 -0.3980
  196DOPC  C21024275   0.264   0.733  14.539 -0.1248 -0.2430 -0.6155
  196DOPC  H10R24276   0.215   0.831  14.551  1.2197  0.2418  1.6438
  196DOPC  C21124277   0.300   0.666  14.671  0.0045 -0.1388  0.0900
  196DOPC  H11R24278   0.332   0.561  14.656 -2.2603 -1.2289  2.3015
  196DOPC  H11S24279   0.212   0.663  14.739  0.7510  2.1207  1.2822
  196DOPC  C21224280   0.412   0.748  14.741 -0.4180 -0.4499 -0.0613
  196DOPC  H12R24281   0.380   0.852  14.763 -1.4913 -0.4519 -1.5107
  196DOPC  H12S24282   0.487   0.766  14.661  0.2104 -0.9480  0.3979
  196DOPC  C21324283   0.479   0.665  14.853 -0.3499 -0.0753  0.4717
  196DOPC  H13R24284   0.496   0.561  14.816 -2.1491 -0.0702 -0.4445
  196DOPC  H13S24285   0.399   0.663  14.930 -2.5282  2.1480 -1.5867
  196DOPC  C21424286   0.618   0.717  14.901  0.6008 -0.5583 -0.3572
  196DOPC  H14R24287   0.620   0.827  14.917  1.8473 -0.7506  1.0625
  196DOPC  H14S24288   0.702   0.691  14.833  2.9093  1.3896  1.5612
  196DOPC  C21524289   0.645   0.642  15.040 -0.0730 -0.4714  0.1179
  196DOPC  H15R24290   0.628   0.534  15.019 -1.4084 -0.7563  2.2939
  196DOPC  H15S24291   0.569   0.668  15.117 -0.8607 -2.8482  0.2232
  196DOPC  C21624292   0.790   0.664  15.089 -0.2640  0.5670 -0.2940
  196DOPC  H16R24293   0.867   0.640  15.013  0.7344 -1.5538  1.2890
  196DOPC  H16S24294   0.821   0.610  15.182  3.2687  5.4556  1.8171
  196DOPC  C21724295   0.807   0.812  15.139  0.7058  0.3822  0.5285
  196DOPC  H17R24296   0.871   0.810  15.230  2.3435  0.6341 -0.5892
  196DOPC  H17S24297   0.711   0.854  15.176  0.6787 -1.2398  2.4930
  196DOPC  C21824298   0.886   0.897  15.037  0.6925  0.1632  0.2743
  196DOPC  H18R24299   0.852   0.868  14.935  0.2434 -0.8224  0.6904
  196DOPC  H18S24300   0.997   0.901  15.037  0.6787  0.7509  0.0389
  196DOPC  H18T24301   0.855   1.002  15.057  0.4267 -0.2432  2.1807
  196DOPC   C3324302   0.937   0.428  13.753 -0.3100  0.2158 -0.4884
  196DOPC   H3X24303   0.980   0.345  13.813 -2.6123 -0.7563 -0.0680
  196DOPC   H3Y24304   0.828   0.435  13.772 -0.3002 -0.3459 -0.2118
  196DOPC   C3424305   1.000   0.559  13.805  0.0326  0.6664 -0.3283
  196DOPC   H4X24306   0.960   0.639  13.739 -1.6675 -1.2131 -1.7167
  196DOPC   H4Y24307   1.111   0.561  13.801  0.0340  3.3650 -0.8191
  196DOPC   C3524308   0.969   0.582  13.952  0.5380  0.0070  0.4013
  196DOPC   H5X24309   1.004   0.492  14.005 -0.7078 -0.3878  0.5959
  196DOPC   H5Y24310   0.858   0.580  13.963  0.1669  0.0838 -2.5173
  196DOPC   C3624311   1.033   0.711  14.023  0.3985  0.1200  0.6817
  196DOPC   H6X24312   0.989   0.724  14.124  1.9885 -1.7975  1.6988
  196DOPC   H6Y24313   1.138   0.676  14.035  0.3391  0.3666  2.1472
  196DOPC   C3724314   1.025   0.839  13.938  0.3106  0.0695  0.2185
  196DOPC   H7X24315   1.069   0.820  13.838 -1.1127  2.2022 -0.9074
  196DOPC   H7Y24316   0.921   0.873  13.918  0.8832  1.8737  0.1241
  196DOPC   C3824317   1.100   0.959  14.010 -1.1057 -0.1059  0.2261
  196DOPC   H8X24318   1.041   0.997  14.096  1.0471 -0.6382  2.0473
  196DOPC   H8Y24319   1.091   1.045  13.941  1.6938  0.9887  1.0855
  196DOPC   C3924320   1.248   0.946  14.048 -0.0989  0.4897 -0.1662
  196DOPC   H9X24321   1.323   0.966  13.970 -0.0094 -0.2050 -0.2700
  196DOPC  C31024322   1.300   0.920  14.170 -0.1873 -0.3191 -0.0455
  196DOPC  H10X24323   1.409   0.926  14.183 -0.4494  2.1482  1.8272
  196DOPC  C31124324   1.220   0.897  14.293 -0.3643  0.5331 -0.7356
  196DOPC  H11X24325   1.113   0.920  14.271 -0.3709  0.1085 -1.1797
  196DOPC  H11Y24326   1.253   0.957  14.380 -1.8167 -2.8667  2.4661
  196DOPC  C31224327   1.240   0.753  14.341 -0.6661  0.4319 -0.0908
  196DOPC  H12X24328   1.344   0.747  14.379 -0.2438  2.2973 -0.8591
  196DOPC  H12Y24329   1.225   0.685  14.254 -3.4622 -1.0173  1.3496
  196DOPC  C31324330   1.133   0.716  14.452  0.2428  0.2352 -0.4566
  196DOPC  H13X24331   1.127   0.808  14.514  0.0335 -0.8689  1.2241
  196DOPC  H13Y24332   1.038   0.687  14.403 -0.0844  0.8665 -0.2021
  196DOPC  C31424333   1.176   0.600  14.542 -0.2460  0.2471  0.2829
  196DOPC  H14X24334   1.094   0.553  14.601 -0.5507 -0.0622 -0.3739
  196DOPC  H14Y24335   1.200   0.513  14.478 -0.8716 -0.9807  1.6430
  196DOPC  C31524336   1.298   0.624  14.627  0.5657 -0.2739  0.0754
  196DOPC  H15X24337   1.266   0.704  14.697  0.2243 -1.3164  1.1361
  196DOPC  H15Y24338   1.387   0.652  14.567 -0.3865  1.8854 -0.4025
  196DOPC  C31624339   1.327   0.507  14.723  0.1969 -0.9606  0.4510
  196DOPC  H16X24340   1.350   0.551  14.823  1.9070  1.0098 -0.7294
  196DOPC  H16Y24341   1.234   0.447  14.732  0.2853 -0.9852  1.2982
  196DOPC  C31724342   1.439   0.411  14.669  0.0679  1.3821 -0.8358
  196DOPC  H17X24343   1.425   0.381  14.563  1.5457  0.4475 -0.7887
  196DOPC  H17Y24344   1.534   0.467  14.681 -0.7532  2.4668  1.0644
  196DOPC  C31824345   1.449   0.277  14.756 -0.7793  0.4404 -0.2448
  196DOPC  H18X24346   1.363   0.213  14.727 -0.2654 -0.1678 -0.4594
  196DOPC  H18Y24347   1.545   0.227  14.733 -0.2207  0.5247  1.7205
  196DOPC  H18Z24348   1.459   0.295  14.865  1.3472 -0.1285 -0.3001
  197DOPC     N24349   1.612   6.247  13.024  1.3118  0.2967 -0.4347
  197DOPC   C1224350   1.740   6.311  13.069 -0.7957  0.2556  0.1748
  197DOPC  H12A24351   1.806   6.227  13.087 -1.8170 -0.8460 -1.0955
  197DOPC  H12B24352   1.733   6.350  13.170  2.8639 -0.4901  0.8827
  197DOPC   C1324353   1.546   6.177  13.148  0.3258  0.0408 -0.1558
  197DOPC  H13A24354   1.611   6.098  13.184 -1.3162 -1.1020  0.4044
  197DOPC  H13B24355   1.530   6.253  13.223 -0.5435  1.1863 -1.4572
  197DOPC  H13C24356   1.449   6.140  13.120 -0.8332  2.4543  0.3903
  197DOPC   C1424357   1.621   6.146  12.913 -0.0048  0.3051 -0.2740
  197DOPC  H14A24358   1.672   6.201  12.835  0.4310  1.5906  0.8707
  197DOPC  H14B24359   1.671   6.054  12.941 -1.1830 -1.1345 -2.6033
  197DOPC  H14C24360   1.521   6.119  12.881  0.2739  0.3074 -1.1712
  197DOPC   C1524361   1.517   6.351  12.993  0.3948  0.3114  0.0374
  197DOPC  H15A24362   1.503   6.413  13.080 -0.3697  0.1547  0.0316
  197DOPC  H15B24363   1.416   6.328  12.963 -0.6856  2.1958  1.9868
  197DOPC  H15C24364   1.553   6.408  12.909 -1.1326  1.3559  0.0511
  197DOPC   C1124365   1.832   6.402  12.985 -0.1885  0.1651  0.7153
  197DOPC  H11A24366   1.934   6.401  13.029 -0.1219  0.4408  0.5713
  197DOPC  H11B24367   1.845   6.371  12.879  0.1736  0.7207  0.5883
  197DOPC     P24368   1.797   6.634  13.112  0.0649  0.1484  0.1660
  197DOPC   O1324369   1.673   6.711  13.112  0.3071 -0.1825 -0.0340
  197DOPC   O1424370   1.925   6.710  13.101  0.3244 -0.0864  0.2526
  197DOPC   O1224371   1.787   6.538  12.985  0.6481  1.0788  0.1481
  197DOPC   O1124372   1.799   6.540  13.238 -0.4744  0.4477  0.2854
  197DOPC    C124373   1.911   6.537  13.320 -0.1175  0.1097  0.1964
  197DOPC    HA24374   1.897   6.625  13.386 -1.2473  0.1755 -0.1204
  197DOPC    HB24375   2.008   6.536  13.266  0.9336  1.1798  1.9715
  197DOPC    C224376   1.905   6.416  13.405  0.2660  0.9914 -0.2455
  197DOPC    HS24377   1.875   6.328  13.345  0.0822 -0.9086  2.4175
  197DOPC   O2124378   1.800   6.435  13.500  0.1843  0.0369 -0.2847
  197DOPC   C2124379   1.757   6.326  13.558  0.6736  0.2929 -0.1030
  197DOPC   O2224380   1.795   6.213  13.537  0.4259  0.7156 -0.1144
  197DOPC   C2224381   1.647   6.360  13.654  0.6320 -0.0691 -0.3396
  197DOPC   H2R24382   1.551   6.324  13.610 -1.7769 -0.2796  4.4819
  197DOPC   H2S24383   1.638   6.470  13.670  0.2907 -0.1124 -0.2281
  197DOPC    C324384   2.036   6.377  13.486 -0.5617 -0.0086 -0.5018
  197DOPC    HX24385   2.110   6.358  13.406 -0.9931  0.9560 -1.1462
  197DOPC    HY24386   2.026   6.276  13.531  0.9988 -0.3761 -0.9249
  197DOPC   O3124387   2.069   6.472  13.593  0.2951  0.3956 -0.5335
  197DOPC   C3124388   2.168   6.559  13.561  0.9259  0.0478 -0.2366
  197DOPC   O3224389   2.230   6.555  13.455  0.1335 -0.7126 -0.4090
  197DOPC   C3224390   2.160   6.670  13.659 -0.7573 -0.5626 -0.2328
  197DOPC   H2X24391   2.054   6.704  13.657 -0.7771 -0.6356 -0.4546
  197DOPC   H2Y24392   2.189   6.629  13.758  2.6179 -1.2071 -1.3806
  197DOPC   C2324393   1.668   6.279  13.784 -0.3290 -0.1151 -0.5487
  197DOPC   H3R24394   1.775   6.288  13.811 -0.4457 -0.5955  0.1114
  197DOPC   H3S24395   1.646   6.170  13.775 -1.9351 -0.0743  1.7600
  197DOPC   C2424396   1.607   6.342  13.902  0.2503 -0.5006 -0.1256
  197DOPC   H4R24397   1.497   6.338  13.881  0.5020 -0.6704 -1.5247
  197DOPC   H4S24398   1.636   6.450  13.903  1.3516 -0.7786 -0.6505
  197DOPC   C2524399   1.644   6.272  14.031  0.2164 -0.9024 -0.0538
  197DOPC   H5R24400   1.750   6.294  14.056 -0.0422  2.2390 -1.2991
  197DOPC   H5S24401   1.625   6.163  14.037 -0.1759 -0.9993 -2.2735
  197DOPC   C2624402   1.564   6.340  14.149 -0.5820 -0.1007 -0.0390
  197DOPC   H6R24403   1.454   6.326  14.144 -0.5109 -0.8613  0.3632
  197DOPC   H6S24404   1.599   6.445  14.142  1.5941 -0.6829  1.0208
  197DOPC   C2724405   1.608   6.289  14.286 -0.2038  0.0977 -0.3491
  197DOPC   H7R24406   1.707   6.238  14.291 -0.5747 -0.7453 -1.3210
  197DOPC   H7S24407   1.537   6.211  14.320  0.2944  0.3401  1.3962
  197DOPC   C2824408   1.582   6.396  14.393 -0.6930 -0.3700 -0.0346
  197DOPC   H8R24409   1.471   6.409  14.391 -0.4756  2.1934  0.5691
  197DOPC   H8S24410   1.632   6.489  14.357  1.0944 -0.5581  1.7902
  197DOPC   C2924411   1.619   6.360  14.534  0.0382 -0.1938  0.0474
  197DOPC   H9R24412   1.542   6.313  14.597 -0.6422 -0.1040 -0.7008
  197DOPC  C21024413   1.724   6.411  14.604  0.1577  0.3050  0.1387
  197DOPC  H10R24414   1.728   6.376  14.709 -2.9708 -0.0154  0.2536
  197DOPC  C21124415   1.828   6.513  14.560 -0.6611  0.0681 -0.1919
  197DOPC  H11R24416   1.854   6.579  14.646  0.2468 -0.6428  0.0929
  197DOPC  H11S24417   1.797   6.595  14.491  0.8036  2.0854  1.4268
  197DOPC  C21224418   1.965   6.452  14.514  0.2138 -0.0900  0.2476
  197DOPC  H12R24419   2.039   6.534  14.522  0.4817 -0.2484 -0.5027
  197DOPC  H12S24420   1.954   6.401  14.416  2.4703  1.0632 -0.6830
  197DOPC  C21324421   2.014   6.352  14.613  0.7661 -0.7626 -0.8488
  197DOPC  H13R24422   1.945   6.266  14.611 -1.2274  0.6919  0.7059
  197DOPC  H13S24423   2.008   6.375  14.722 -1.4173 -3.5806 -0.2827
  197DOPC  C21424424   2.160   6.313  14.580  0.1015 -0.4369 -0.7743
  197DOPC  H14R24425   2.163   6.283  14.473 -0.4607 -1.4581 -0.5131
  197DOPC  H14S24426   2.181   6.232  14.653 -1.5974 -0.5914 -0.4155
  197DOPC  C21524427   2.262   6.416  14.615 -0.4592 -0.1467  0.0119
  197DOPC  H15R24428   2.243   6.498  14.542 -0.4460 -0.8058 -0.7509
  197DOPC  H15S24429   2.365   6.379  14.599 -0.7397 -1.5961  1.3719
  197DOPC  C21624430   2.249   6.482  14.752 -0.2116  0.0334 -0.0797
  197DOPC  H16R24431   2.236   6.397  14.823  2.2814 -0.0259  0.3900
  197DOPC  H16S24432   2.161   6.546  14.770  2.7052  3.3562  4.4377
  197DOPC  C21724433   2.372   6.568  14.776 -0.3943  0.5105  0.1425
  197DOPC  H17R24434   2.358   6.618  14.874 -3.4369 -0.6053  0.3926
  197DOPC  H17S24435   2.357   6.651  14.703 -0.4958  0.1324 -0.2749
  197DOPC  C21824436   2.510   6.499  14.759  0.5304 -0.6934  0.1397
  197DOPC  H18R24437   2.599   6.534  14.816  0.4183 -2.3026  1.3688
  197DOPC  H18S24438   2.528   6.500  14.649  0.0673  0.4095  0.0628
  197DOPC  H18T24439   2.495   6.391  14.782 -2.8104 -0.4988 -0.6808
  197DOPC   C3324440   2.259   6.784  13.636 -0.2020 -0.2680 -0.1118
  197DOPC   H3X24441   2.232   6.842  13.546  0.6139  0.3226  0.0143
  197DOPC   H3Y24442   2.359   6.741  13.615 -0.2391 -0.4527  0.0770
  197DOPC   C3424443   2.277   6.881  13.751 -0.1276  0.5923 -0.8965
  197DOPC   H4X24444   2.335   6.966  13.708 -0.7881  0.9866 -1.0179
  197DOPC   H4Y24445   2.332   6.838  13.838  1.7925  2.2409 -1.2180
  197DOPC   C3524446   2.145   6.943  13.813 -0.6376 -0.4478 -0.1247
  197DOPC   H5X24447   2.082   6.858  13.847 -3.9758  1.8485 -0.0884
  197DOPC   H5Y24448   2.102   6.998  13.726  0.3939  2.6620  1.2016
  197DOPC   C3624449   2.174   7.044  13.928  0.1995 -0.2751 -0.3788
  197DOPC   H6X24450   2.215   6.978  14.006 -1.7499 -2.1787 -0.8555
  197DOPC   H6Y24451   2.247   7.122  13.898  0.8647 -0.2776  1.1497
  197DOPC   C3724452   2.054   7.120  13.989  0.4504 -0.1420 -0.0158
  197DOPC   H7X24453   2.013   7.180  13.905 -0.8034 -1.2591 -0.2527
  197DOPC   H7Y24454   1.980   7.042  14.017 -0.7447  0.5353 -1.1570
  197DOPC   C3824455   2.085   7.201  14.117 -0.2823  0.1881 -0.9077
  197DOPC   H8X24456   2.144   7.128  14.177 -0.6408  0.8975  0.3366
  197DOPC   H8Y24457   1.991   7.236  14.166  0.1939  0.9646 -0.5455
  197DOPC   C3924458   2.169   7.322  14.090  0.6165  0.3460 -0.5189
  197DOPC   H9X24459   2.158   7.369  13.990 -1.4368  0.6487 -0.1998
  197DOPC  C31024460   2.256   7.371  14.176  0.1644 -0.2608  0.6306
  197DOPC  H10X24461   2.313   7.459  14.142 -0.4351 -0.5082 -1.0603
  197DOPC  C31124462   2.294   7.323  14.311  0.1256  0.4197  0.1931
  197DOPC  H11X24463   2.217   7.259  14.358 -1.9206  0.4265 -2.8747
  197DOPC  H11Y24464   2.301   7.411  14.379 -2.8844  2.9519 -2.3943
  197DOPC  C31224465   2.435   7.255  14.299  0.3978  0.4652  0.2652
  197DOPC  H12X24466   2.413   7.181  14.219 -2.6361 -0.8743  2.1549
  197DOPC  H12Y24467   2.451   7.205  14.397  1.6098  0.8627  0.2836
  197DOPC  C31324468   2.558   7.347  14.268  0.2485  0.7014 -0.3206
  197DOPC  H13X24469   2.655   7.293  14.274  0.4080  1.1728  2.3828
  197DOPC  H13Y24470   2.546   7.379  14.162  0.6663  3.3689  0.3654
  197DOPC  C31424471   2.563   7.476  14.345  0.1175 -0.3449 -0.7489
  197DOPC  H14X24472   2.636   7.543  14.295  2.1624 -2.1583 -0.3240
  197DOPC  H14Y24473   2.465   7.526  14.363  0.5697 -0.3046  1.9162
  197DOPC  C31524474   2.622   7.446  14.484  0.6383  0.3046  0.1908
  197DOPC  H15X24475   2.709   7.385  14.450 -1.2982 -1.4024 -2.0676
  197DOPC  H15Y24476   2.545   7.383  14.535 -0.3459  2.1619  1.0805
  197DOPC  C31624477   2.671   7.568  14.567  0.0868  0.4724 -0.1595
  197DOPC  H16X24478   2.734   7.626  14.496  0.4461  0.8119  0.4226
  197DOPC  H16Y24479   2.583   7.633  14.592 -1.2329 -0.1306 -2.8613
  197DOPC  C31724480   2.766   7.540  14.684 -1.0210 -0.1206 -0.0524
  197DOPC  H17X24481   2.713   7.478  14.760  0.3742  1.5951  2.4733
  197DOPC  H17Y24482   2.856   7.482  14.654 -0.8167 -0.6365  1.4930
  197DOPC  C31824483   2.820   7.675  14.738  0.8053  0.1452 -0.0938
  197DOPC  H18X24484   2.741   7.742  14.779  2.8858  1.4656  1.9808
  197DOPC  H18Y24485   2.895   7.653  14.817  0.4555 -0.8150 -0.0129
  197DOPC  H18Z24486   2.871   7.725  14.654  1.5331  0.3124  0.4377
  198DOPC     N24487   6.772   6.855  12.604 -0.1939 -0.0383 -0.2242
  198DOPC   C1224488   6.750   6.783  12.734 -0.1321 -0.0925  0.1985
  198DOPC  H12A24489   6.807   6.692  12.726 -1.0333 -0.8094  1.6296
  198DOPC  H12B24490   6.648   6.751  12.747  0.3529 -1.2817  1.2117
  198DOPC   C1324491   6.715   6.772  12.489 -0.3355 -0.3473 -0.0775
  198DOPC  H13A24492   6.719   6.836  12.402  1.0528  0.5983  0.6442
  198DOPC  H13B24493   6.783   6.695  12.458  0.5924  0.4206 -0.0079
  198DOPC  H13C24494   6.609   6.748  12.492  0.2570 -3.7877 -1.8726
  198DOPC   C1424495   6.921   6.888  12.582  0.1077  0.0474 -0.6668
  198DOPC  H14A24496   6.931   6.964  12.657 -2.0673 -0.7484  0.5334
  198DOPC  H14B24497   6.986   6.805  12.607  2.4889  2.4961  1.8362
  198DOPC  H14C24498   6.939   6.922  12.481  2.4735  2.6370  0.5324
  198DOPC   C1524499   6.714   6.990  12.600  0.2035  1.2844 -0.4655
  198DOPC  H15A24500   6.731   7.035  12.503  0.0815 -0.8460 -1.5452
  198DOPC  H15B24501   6.756   7.048  12.680 -1.2313 -0.0492  1.3390
  198DOPC  H15C24502   6.607   6.983  12.615  0.2467 -0.0004 -0.6664
  198DOPC   C1124503   6.802   6.856  12.864 -0.7714 -0.4000  0.9040
  198DOPC  H11A24504   6.797   6.786  12.951  1.1369 -1.3704  0.2922
  198DOPC  H11B24505   6.912   6.863  12.849 -0.8754  0.1482  0.3792
  198DOPC     P24506   6.623   7.015  12.980 -0.1035 -0.1831  0.4482
  198DOPC   O1324507   6.502   6.960  12.916 -0.5385 -0.0561 -0.1615
  198DOPC   O1424508   6.620   7.160  13.013 -0.4597  0.0065  0.1963
  198DOPC   O1224509   6.745   6.986  12.885  0.1063 -0.1220 -0.1549
  198DOPC   O1124510   6.644   6.936  13.118  0.5056  0.1922  0.3393
  198DOPC    C124511   6.761   6.945  13.201 -0.5298 -0.0591  0.3747
  198DOPC    HA24512   6.836   7.012  13.154  0.9216 -1.2981  0.8208
  198DOPC    HB24513   6.800   6.841  13.205  0.7951  0.4233  0.3734
  198DOPC    C224514   6.742   7.010  13.341 -0.1553  0.1669  0.5358
  198DOPC    HS24515   6.835   7.064  13.367  0.5292 -0.7570  0.0657
  198DOPC   O2124516   6.697   6.916  13.442 -0.3709  0.0160  0.8415
  198DOPC   C2124517   6.802   6.841  13.481 -0.0042  0.2315 -0.2029
  198DOPC   O2224518   6.917   6.851  13.438  0.6626  0.2462 -0.1673
  198DOPC   C2224519   6.762   6.729  13.573  0.0285  1.1205  0.2780
  198DOPC   H2R24520   6.856   6.692  13.619  0.4347  0.4071 -1.0427
  198DOPC   H2S24521   6.716   6.642  13.520  4.0596 -0.7903 -0.4606
  198DOPC    C324522   6.633   7.122  13.323  0.5606  0.3717  0.6486
  198DOPC    HX24523   6.544   7.068  13.282 -0.8507  1.0908  2.6058
  198DOPC    HY24524   6.667   7.192  13.244  0.2103  0.6779  0.7647
  198DOPC   O3124525   6.607   7.181  13.450  0.2975  0.2531 -0.0850
  198DOPC   C3124526   6.487   7.160  13.515  0.2322 -0.1608  0.4152
  198DOPC   O3224527   6.395   7.096  13.470  0.2391 -0.0978 -0.1114
  198DOPC   C3224528   6.503   7.222  13.653  0.0097  0.0752  0.0476
  198DOPC   H2X24529   6.602   7.186  13.689 -0.5219 -1.2976  0.2195
  198DOPC   H2Y24530   6.520   7.331  13.641  0.4920  0.1710  1.4485
  198DOPC   C2324531   6.669   6.780  13.686  0.0395 -0.2101  0.4482
  198DOPC   H3R24532   6.623   6.697  13.742  0.0840 -1.0582 -0.7353
  198DOPC   H3S24533   6.589   6.844  13.642  0.3826 -1.5745 -2.3611
  198DOPC   C2424534   6.743   6.872  13.788  0.1784 -0.1023  0.1600
  198DOPC   H4R24535   6.786   6.962  13.739 -2.1288 -0.1426 -2.2044
  198DOPC   H4S24536   6.826   6.821  13.840 -0.3998 -1.1447  0.0823
  198DOPC   C2524537   6.653   6.930  13.896 -0.1125  0.1869 -0.8459
  198DOPC   H5R24538   6.601   6.839  13.932  1.3023 -0.6067 -0.7345
  198DOPC   H5S24539   6.577   6.999  13.852  0.3502  0.9600 -0.4560
  198DOPC   C2624540   6.720   7.005  14.005 -0.5251 -0.4688 -0.5106
  198DOPC   H6R24541   6.641   7.076  14.039  0.7306  0.7365 -0.0438
  198DOPC   H6S24542   6.804   7.067  13.968 -1.5273  1.2589  0.0040
  198DOPC   C2724543   6.767   6.918  14.121 -0.1784  0.1058 -0.7020
  198DOPC   H7R24544   6.809   6.827  14.075  0.7071  0.5572 -0.8148
  198DOPC   H7S24545   6.678   6.891  14.182  0.2236 -0.5740 -0.4161
  198DOPC   C2824546   6.871   6.986  14.210  0.1435 -0.7000  0.3013
  198DOPC   H8R24547   6.832   7.086  14.236  0.0535 -0.2625 -1.3777
  198DOPC   H8S24548   6.964   6.990  14.148  0.3689 -0.1161  0.6642
  198DOPC   C2924549   6.898   6.899  14.330 -0.0283  0.6327 -0.5094
  198DOPC   H9R24550   6.914   6.793  14.304 -1.0318  0.6076 -1.0918
  198DOPC  C21024551   6.894   6.943  14.454 -0.4224  0.2724  0.2950
  198DOPC  H10R24552   6.932   6.867  14.524  0.9871  0.7542  0.0775
  198DOPC  C21124553   6.861   7.070  14.521  0.1303 -0.2262  0.0927
  198DOPC  H11R24554   6.829   7.146  14.447 -2.4962 -0.2362  1.0879
  198DOPC  H11S24555   6.953   7.111  14.569  1.6075 -0.6215 -2.2843
  198DOPC  C21224556   6.754   7.078  14.635  0.4162  0.0209  0.1163
  198DOPC  H12R24557   6.739   7.185  14.658  0.1603  0.3145 -1.3039
  198DOPC  H12S24558   6.785   7.030  14.730  2.2920  3.0007  1.1551
  198DOPC  C21324559   6.616   7.021  14.583 -0.2564  0.4837 -0.0084
  198DOPC  H13R24560   6.636   6.916  14.554  1.0699  1.0093 -1.1315
  198DOPC  H13S24561   6.596   7.072  14.486  2.0367 -1.5923 -1.6720
  198DOPC  C21424562   6.505   7.032  14.681 -0.1997  0.9406  0.8020
  198DOPC  H14R24563   6.535   6.998  14.783 -2.5877  0.6728  1.4862
  198DOPC  H14S24564   6.417   6.977  14.640  0.2710 -0.7386  1.9432
  198DOPC  C21524565   6.464   7.181  14.689  0.0129  0.3462  0.2999
  198DOPC  H15R24566   6.443   7.210  14.584 -0.1149 -0.0041  0.2247
  198DOPC  H15S24567   6.550   7.233  14.735  0.1893 -1.4659  2.1775
  198DOPC  C21624568   6.339   7.191  14.772  0.5101  0.7687 -0.2304
  198DOPC  H16R24569   6.370   7.162  14.875  1.0132 -1.9169 -1.0513
  198DOPC  H16S24570   6.259   7.121  14.737  0.9543  0.9013 -1.5762
  198DOPC  C21724571   6.269   7.325  14.776 -0.2589  0.3878  0.4459
  198DOPC  H17R24572   6.220   7.351  14.680 -1.3156  3.4006  1.6914
  198DOPC  H17S24573   6.345   7.402  14.802 -0.2136  0.4842  0.0497
  198DOPC  C21824574   6.158   7.344  14.876  0.3102  0.6910  0.0826
  198DOPC  H18R24575   6.072   7.273  14.875  0.8241  0.0467 -0.8042
  198DOPC  H18S24576   6.107   7.441  14.863 -1.9224 -0.2433  1.2432
  198DOPC  H18T24577   6.210   7.343  14.974 -0.9436  1.9885  0.7825
  198DOPC   C3324578   6.381   7.175  13.736  0.3778  0.7080  0.5342
  198DOPC   H3X24579   6.372   7.064  13.739  1.0682  0.6616  1.2848
  198DOPC   H3Y24580   6.287   7.211  13.690  0.4719 -0.6570 -0.8240
  198DOPC   C3424581   6.379   7.224  13.880  0.0627  0.0554 -0.1104
  198DOPC   H4X24582   6.390   7.334  13.876  0.4862  0.0121 -0.1509
  198DOPC   H4Y24583   6.467   7.188  13.937  0.3744 -0.7124 -1.0412
  198DOPC   C3524584   6.251   7.186  13.957  0.2476  0.1526  0.2973
  198DOPC   H5X24585   6.255   7.204  14.067 -0.5414 -2.6395  0.8710
  198DOPC   H5Y24586   6.230   7.077  13.962 -0.4323  0.1615 -1.6109
  198DOPC   C3624587   6.128   7.262  13.895 -0.4042  0.2986 -0.2948
  198DOPC   H6X24588   6.148   7.372  13.902 -0.9463  0.3304  1.0368
  198DOPC   H6Y24589   6.105   7.232  13.791 -3.4490 -1.1283  0.6876
  198DOPC   C3724590   6.000   7.236  13.977 -0.2354 -0.1043 -0.8396
  198DOPC   H7X24591   6.016   7.213  14.084 -3.2008 -0.7376 -0.4689
  198DOPC   H7Y24592   5.954   7.337  13.980 -0.7304 -0.3574  0.9173
  198DOPC   C3824593   5.896   7.138  13.917 -0.3978 -0.8038 -0.2881
  198DOPC   H8X24594   5.937   7.035  13.928 -1.1089 -0.9462  1.4892
  198DOPC   H8Y24595   5.883   7.166  13.811 -1.5763  0.3369  0.1272
  198DOPC   C3924596   5.767   7.150  13.991 -1.1138 -0.3416 -0.1432
  198DOPC   H9X24597   5.702   7.225  13.942 -2.4851  0.0566  2.1026
  198DOPC  C31024598   5.724   7.069  14.087 -0.3401 -0.5186 -0.5123
  198DOPC  H10X24599   5.618   7.075  14.115 -0.1805  1.7359 -0.1871
  198DOPC  C31124600   5.792   6.951  14.144  0.4475  0.1139 -0.4615
  198DOPC  H11X24601   5.902   6.948  14.130  0.8530  0.7587  2.0406
  198DOPC  H11Y24602   5.756   6.851  14.110 -0.1273  0.3392 -0.5272
  198DOPC  C31224603   5.783   6.965  14.302  0.3470 -0.2465 -0.2105
  198DOPC  H12X24604   5.684   6.920  14.324  0.7256 -2.0331 -1.8820
  198DOPC  H12Y24605   5.792   7.067  14.344 -1.1750 -0.2318  0.1210
  198DOPC  C31324606   5.890   6.876  14.376  0.4179 -0.2124 -0.4095
  198DOPC  H13X24607   5.840   6.859  14.473  1.5526 -1.4772 -0.0178
  198DOPC  H13Y24608   5.921   6.782  14.325 -0.2742  0.1246 -1.4846
  198DOPC  C31424609   6.022   6.965  14.397 -0.1741  0.1111 -0.7635
  198DOPC  H14X24610   5.985   7.069  14.380 -2.1802 -0.2064  1.2010
  198DOPC  H14Y24611   6.054   6.954  14.503  2.8970 -2.0563 -1.7773
  198DOPC  C31524612   6.142   6.944  14.301  0.5222 -0.1871 -0.5294
  198DOPC  H15X24613   6.212   7.027  14.321  1.3269 -1.0435  0.2957
  198DOPC  H15Y24614   6.109   6.944  14.195  0.4881  1.0983 -0.5258
  198DOPC  C31624615   6.227   6.824  14.328  0.1989  0.4164 -1.0959
  198DOPC  H16X24616   6.229   6.817  14.439  1.1991 -1.6931 -1.1999
  198DOPC  H16Y24617   6.189   6.729  14.284  0.2841  0.8146 -2.0333
  198DOPC  C31724618   6.371   6.845  14.284 -0.3005 -0.4810  0.0045
  198DOPC  H17X24619   6.395   6.843  14.175  0.7982 -1.3833  0.2379
  198DOPC  H17Y24620   6.400   6.946  14.319  0.7448 -0.3043 -1.2789
  198DOPC  C31824621   6.460   6.741  14.358  0.4313  0.1938 -0.0106
  198DOPC  H18X24622   6.433   6.633  14.352  1.9574 -0.1930 -0.3945
  198DOPC  H18Y24623   6.565   6.748  14.322  0.3616  2.1473  0.0658
  198DOPC  H18Z24624   6.467   6.774  14.464 -0.3721  0.4492 -0.0262
  199DOPC     N24625   5.950   7.495  13.141  0.1092 -0.0755  0.4444
  199DOPC   C1224626   5.947   7.545  13.288 -0.2770  0.0420 -0.6184
  199DOPC  H12A24627   6.047   7.523  13.324 -0.6277  0.5425  0.7032
  199DOPC  H12B24628   5.879   7.485  13.346  1.0564  0.7346  1.8473
  199DOPC   C1324629   5.817   7.518  13.083 -0.3550 -0.3773 -0.0601
  199DOPC  H13A24630   5.806   7.482  12.982 -1.5970  1.7184 -0.7348
  199DOPC  H13B24631   5.738   7.466  13.135 -0.7811 -0.6997 -0.9986
  199DOPC  H13C24632   5.799   7.624  13.073  1.7011 -0.2187 -4.1231
  199DOPC   C1424633   5.985   7.357  13.122 -0.3008 -0.6546  0.3730
  199DOPC  H14A24634   5.916   7.298  13.181 -0.3542  1.3808  2.5140
  199DOPC  H14B24635   5.992   7.325  13.019  0.1000  2.7721 -0.7940
  199DOPC  H14C24636   6.085   7.341  13.160  0.1972  0.5629 -0.3951
  199DOPC   C1524637   6.052   7.572  13.073 -0.3964 -0.3479 -0.5209
  199DOPC  H15A24638   6.040   7.679  13.076 -1.5416 -0.4705 -0.2958
  199DOPC  H15B24639   6.063   7.542  12.970  0.1617 -2.4979  0.1169
  199DOPC  H15C24640   6.146   7.546  13.120 -0.7161 -1.0207 -0.2399
  199DOPC   C1124641   5.906   7.695  13.319 -0.3198 -0.3714 -0.8440
  199DOPC  H11A24642   5.800   7.703  13.287 -0.4748 -1.0716 -0.5213
  199DOPC  H11B24643   5.899   7.715  13.428  1.0595  0.2103 -0.8371
  199DOPC     P24644   5.946   7.939  13.247 -0.3498  0.2603 -0.1671
  199DOPC   O1324645   5.817   7.947  13.177 -0.1480  0.5010  0.1399
  199DOPC   O1424646   6.063   8.020  13.188  0.1382 -0.8397  0.3591
  199DOPC   O1224647   5.992   7.783  13.252 -0.5660  0.4740  0.1595
  199DOPC   O1124648   5.932   7.978  13.397 -0.2992 -0.8025 -0.2945
  199DOPC    C124649   6.032   8.042  13.474 -0.3265 -0.2465  1.0692
  199DOPC    HA24650   5.994   8.120  13.543 -1.5646 -1.0137  1.2836
  199DOPC    HB24651   6.106   8.091  13.407 -0.8840 -0.8681 -0.0403
  199DOPC    C224652   6.115   7.941  13.555  0.0650  1.1457 -0.6431
  199DOPC    HS24653   6.138   7.850  13.496  2.1236  0.4190  1.1788
  199DOPC   O2124654   6.050   7.925  13.681 -0.3008 -0.7440 -0.3772
  199DOPC   C2124655   6.090   7.809  13.734 -0.1256 -1.3412  0.6805
  199DOPC   O2224656   6.166   7.732  13.684 -0.1393 -0.4484  0.8820
  199DOPC   C2224657   6.019   7.788  13.860 -0.1643 -0.0966  0.5360
  199DOPC   H2R24658   5.911   7.778  13.839 -0.1009 -1.2517  0.7093
  199DOPC   H2S24659   6.027   7.881  13.920 -1.0551  0.4733 -0.1970
  199DOPC    C324660   6.260   7.985  13.574 -0.7499  0.0442  0.1823
  199DOPC    HX24661   6.303   7.985  13.471  1.0474  0.5253  0.8819
  199DOPC    HY24662   6.329   7.909  13.617  2.5185  2.4332 -0.4475
  199DOPC   O3124663   6.266   8.105  13.647 -0.0828  0.5115 -0.1896
  199DOPC   C3124664   6.381   8.167  13.648  0.1412  0.2077 -0.2883
  199DOPC   O3224665   6.484   8.118  13.614 -0.4428 -0.0344  0.7765
  199DOPC   C3224666   6.359   8.301  13.711  0.0723  0.5810  0.6346
  199DOPC   H2X24667   6.422   8.376  13.660 -0.5735  0.2267 -0.7156
  199DOPC   H2Y24668   6.252   8.330  13.702 -0.1888 -0.8507 -1.6143
  199DOPC   C2324669   6.074   7.664  13.946  0.2861 -0.2786  0.4714
  199DOPC   H3R24670   6.058   7.573  13.884  1.4670 -0.6634  0.7153
  199DOPC   H3S24671   6.007   7.653  14.034  0.0549  0.2648  0.3649
  199DOPC   C2424672   6.218   7.691  13.999  0.2981  0.0241  0.4930
  199DOPC   H4R24673   6.228   7.789  14.051  3.3954 -0.0630  0.2670
  199DOPC   H4S24674   6.292   7.688  13.916 -0.4462 -0.1188 -0.1828
  199DOPC   C2524675   6.274   7.583  14.095  0.8985  0.7255 -0.5341
  199DOPC   H5R24676   6.359   7.621  14.157 -1.7858  1.6873  2.9095
  199DOPC   H5S24677   6.320   7.496  14.044  1.4160  0.7733 -0.1569
  199DOPC   C2624678   6.174   7.532  14.198  0.8065  0.0088  0.2410
  199DOPC   H6R24679   6.118   7.450  14.148 -0.6786 -0.0568  1.8770
  199DOPC   H6S24680   6.106   7.608  14.242 -0.1179 -0.1535 -0.8675
  199DOPC   C2724681   6.240   7.447  14.306 -0.3101  0.7270 -0.6384
  199DOPC   H7R24682   6.289   7.516  14.378 -1.0861 -0.9047  1.5347
  199DOPC   H7S24683   6.319   7.380  14.266 -1.7641 -1.8366  0.5601
  199DOPC   C2824684   6.157   7.357  14.401  0.2910 -0.2742 -0.9088
  199DOPC   H8R24685   6.227   7.305  14.470  1.0586 -0.0548 -1.5041
  199DOPC   H8S24686   6.114   7.276  14.337  0.5732 -0.4310 -0.8995
  199DOPC   C2924687   6.041   7.431  14.469 -0.0778  0.0045  0.2548
  199DOPC   H9R24688   6.069   7.479  14.564  0.9416  0.8124 -0.4119
  199DOPC  C21024689   5.907   7.437  14.449 -0.0761 -0.7474  0.7089
  199DOPC  H10R24690   5.850   7.505  14.514 -0.2930 -1.1730  0.9747
  199DOPC  C21124691   5.830   7.360  14.344 -0.3756  0.2598  0.9304
  199DOPC  H11R24692   5.747   7.289  14.363  0.0113 -1.5902 -3.1773
  199DOPC  H11S24693   5.893   7.283  14.296 -0.1437  0.0873  1.5024
  199DOPC  C21224694   5.770   7.454  14.231  0.5048 -0.2162 -0.4419
  199DOPC  H12R24695   5.726   7.385  14.156 -1.3952 -2.1434  2.2695
  199DOPC  H12S24696   5.843   7.522  14.182  0.9490 -0.2585  0.1480
  199DOPC  C21324697   5.655   7.540  14.289 -0.4587 -0.1971 -0.5863
  199DOPC  H13R24698   5.680   7.588  14.386 -0.4640 -1.0999 -0.1275
  199DOPC  H13S24699   5.580   7.461  14.311  0.9749 -1.3597  0.2623
  199DOPC  C21424700   5.599   7.653  14.203  0.1401 -0.5204 -0.7327
  199DOPC  H14R24701   5.668   7.740  14.208  1.4557 -1.5507 -0.1648
  199DOPC  H14S24702   5.504   7.687  14.250 -0.2877 -1.9161 -0.5426
  199DOPC  C21524703   5.578   7.614  14.063 -0.6487  0.0428  0.8622
  199DOPC  H15R24704   5.677   7.586  14.020 -0.3743  1.7361  0.2963
  199DOPC  H15S24705   5.554   7.701  13.998 -2.2502  0.2019  1.6291
  199DOPC  C21624706   5.486   7.496  14.043  0.2727 -0.1390 -0.1296
  199DOPC  H16R24707   5.438   7.469  14.140  1.6611  1.7200  1.1663
  199DOPC  H16S24708   5.542   7.406  14.012  1.6025  0.6548 -0.1319
  199DOPC  C21724709   5.391   7.530  13.929 -0.5278 -0.0321  0.1861
  199DOPC  H17R24710   5.446   7.563  13.838 -0.2953  3.4392  1.4203
  199DOPC  H17S24711   5.342   7.623  13.967  1.3500  0.4641  1.5387
  199DOPC  C21824712   5.280   7.420  13.905 -0.3602  0.2991  0.0822
  199DOPC  H18R24713   5.340   7.327  13.892  1.0535  1.1586  0.2604
  199DOPC  H18S24714   5.210   7.421  13.819 -1.0113  1.2088  0.6163
  199DOPC  H18T24715   5.224   7.425  14.000  0.9306 -1.4875  1.0018
  199DOPC   C3324716   6.422   8.297  13.854  0.0194 -0.1727 -0.4580
  199DOPC   H3X24717   6.531   8.276  13.853  0.1263  0.3394  0.1837
  199DOPC   H3Y24718   6.373   8.220  13.917 -0.3150 -1.0398 -1.7212
  199DOPC   C3424719   6.410   8.435  13.912 -0.2814 -0.1382  0.0748
  199DOPC   H4X24720   6.305   8.470  13.912 -0.8134 -1.6408  1.4690
  199DOPC   H4Y24721   6.460   8.516  13.854  2.9143 -1.1887  1.1359
  199DOPC   C3524722   6.476   8.447  14.056  0.4742 -0.2516 -0.0206
  199DOPC   H5X24723   6.584   8.423  14.069  0.6549  1.4335  2.1349
  199DOPC   H5Y24724   6.421   8.394  14.137  1.1628  0.2108  0.7710
  199DOPC   C3624725   6.473   8.596  14.097  0.1585  0.2821  0.4177
  199DOPC   H6X24726   6.559   8.634  14.156  0.7586  2.6696 -1.8166
  199DOPC   H6Y24727   6.465   8.652  14.001 -3.3230 -0.3915  0.1705
  199DOPC   C3724728   6.344   8.640  14.175 -0.5043  0.6950  0.4719
  199DOPC   H7X24729   6.250   8.623  14.117  1.0346  2.2694 -2.7328
  199DOPC   H7Y24730   6.333   8.566  14.258  1.5220  0.3702  0.5050
  199DOPC   C3824731   6.337   8.789  14.217 -0.2931  0.5441  0.1701
  199DOPC   H8X24732   6.423   8.799  14.288  1.6878 -0.6095 -1.9455
  199DOPC   H8Y24733   6.237   8.813  14.259 -0.8531  0.6948 -1.2198
  199DOPC   C3924734   6.368   8.890  14.105  0.0157  0.3586  0.4281
  199DOPC   H9X24735   6.456   8.858  14.047 -2.7283 -1.7784 -2.8677
  199DOPC  C31024736   6.303   9.003  14.073  0.9169  0.3224  0.3984
  199DOPC  H10X24737   6.348   9.065  13.994  2.1489 -1.7631 -0.6354
  199DOPC  C31124738   6.179   9.069  14.132 -0.1132 -0.1975  0.3716
  199DOPC  H11X24739   6.092   9.004  14.111  0.6447 -1.6586  1.5411
  199DOPC  H11Y24740   6.164   9.162  14.073  1.9917  1.4722  2.2957
  199DOPC  C31224741   6.180   9.096  14.284 -0.2422 -0.4641 -0.1288
  199DOPC  H12X24742   6.194   9.001  14.340 -1.8287 -1.3964 -1.2395
  199DOPC  H12Y24743   6.087   9.146  14.318  1.1152  2.0689  0.1104
  199DOPC  C31324744   6.303   9.183  14.324 -0.3396 -0.0315  0.2118
  199DOPC  H13X24745   6.396   9.145  14.277  0.4261  3.7933 -1.7696
  199DOPC  H13Y24746   6.299   9.281  14.271 -1.6064 -0.2794 -0.1871
  199DOPC  C31424747   6.315   9.195  14.474 -0.3247 -0.2129 -0.1786
  199DOPC  H14X24748   6.374   9.287  14.493 -1.0655 -0.0846  1.7174
  199DOPC  H14Y24749   6.218   9.223  14.520 -2.0163 -2.7250 -1.9605
  199DOPC  C31524750   6.390   9.075  14.540 -0.1031  0.0145 -0.3444
  199DOPC  H15X24751   6.491   9.073  14.494 -0.2180  0.6900 -0.6534
  199DOPC  H15Y24752   6.330   8.985  14.517  0.0281 -0.4228  0.9431
  199DOPC  C31624753   6.387   9.087  14.690 -0.1145 -0.0550  0.4665
  199DOPC  H16X24754   6.457   9.169  14.719 -0.7509  0.5164  0.4206
  199DOPC  H16Y24755   6.283   9.111  14.721  0.2710 -1.0910  2.7355
  199DOPC  C31724756   6.421   8.962  14.770 -0.2340 -0.4944 -0.1678
  199DOPC  H17X24757   6.527   8.938  14.744  0.5428  1.1111  1.3086
  199DOPC  H17Y24758   6.421   8.980  14.880  0.1631 -3.6951  0.4501
  199DOPC  C31824759   6.329   8.845  14.749  0.9047 -0.0046  0.5928
  199DOPC  H18X24760   6.223   8.875  14.766  0.6276 -1.1606  1.0161
  199DOPC  H18Y24761   6.338   8.806  14.646  0.5107 -0.2748  0.6592
  199DOPC  H18Z24762   6.365   8.764  14.816  1.3368  0.4943  0.9729
  200DOPC     N24763   0.851   0.320  12.772 -0.7162  0.0171  0.6889
  200DOPC   C1224764   0.896   0.205  12.862 -0.2603  0.4389  0.3901
  200DOPC  H12A24765   1.001   0.188  12.843 -0.8236 -1.0256 -1.8978
  200DOPC  H12B24766   0.842   0.113  12.844  1.8810 -0.6730 -0.8021
  200DOPC   C1324767   0.704   0.348  12.774  1.5147  0.3226  0.4290
  200DOPC  H13A24768   0.653   0.277  12.711  0.1076  1.6033  0.0766
  200DOPC  H13B24769   0.661   0.342  12.873  0.4545  0.0396 -0.0334
  200DOPC  H13C24770   0.687   0.446  12.732 -0.1171  1.0185  2.5538
  200DOPC   C1424771   0.871   0.276  12.628 -0.8665 -0.7205  0.1437
  200DOPC  H14A24772   0.811   0.189  12.609  0.8095 -1.4283 -2.4238
  200DOPC  H14B24773   0.861   0.353  12.553  0.9166 -2.7791 -2.3988
  200DOPC  H14C24774   0.976   0.250  12.618 -0.1950  2.0532 -1.1245
  200DOPC   C1524775   0.932   0.441  12.794  0.7906  0.5420 -0.0862
  200DOPC  H15A24776   0.904   0.522  12.728 -3.7513 -0.6079  0.0791
  200DOPC  H15B24777   1.038   0.431  12.779  1.1557  0.0445  2.4259
  200DOPC  H15C24778   0.911   0.471  12.895 -0.4598 -0.7909  0.0890
  200DOPC   C1124779   0.886   0.218  13.016 -0.1634 -0.1946  0.3833
  200DOPC  H11A24780   0.781   0.250  13.031 -0.8151 -0.9886 -1.9844
  200DOPC  H11B24781   0.905   0.122  13.069  1.3752 -0.2874 -0.2825
  200DOPC     P24782   1.126   0.295  13.058  0.3941 -0.0605 -0.2782
  200DOPC   O1324783   1.192   0.424  13.081 -0.1110  0.3469  1.0373
  200DOPC   O1424784   1.170   0.223  12.941 -0.0514  1.0432  0.5862
  200DOPC   O1224785   0.971   0.318  13.074  0.3506 -0.2844  0.0272
  200DOPC   O1124786   1.152   0.204  13.184 -0.3456  0.6356  0.0413
  200DOPC    C124787   1.084   0.203  13.308  0.2793 -0.2987 -0.2315
  200DOPC    HA24788   0.974   0.217  13.294  0.3409  0.4178 -0.0489
  200DOPC    HB24789   1.112   0.294  13.365  0.7290 -1.0559  0.7671
  200DOPC    C224790   1.117   0.081  13.389 -0.7494 -0.0584  0.1149
  200DOPC    HS24791   1.090   0.001  13.317 -1.7649  0.8053 -0.4910
  200DOPC   O2124792   1.022   0.082  13.498  0.1549  0.6953  0.2618
  200DOPC   C2124793   0.991  -0.033  13.554 -0.0399 -0.2577  0.7102
  200DOPC   O2224794   1.035  -0.141  13.520 -0.5669 -0.6682  0.5761
  200DOPC   C2224795   0.919  -0.013  13.679 -0.3561 -0.0089  0.7473
  200DOPC   H2R24796   0.812  -0.003  13.653 -0.7488 -1.4940  1.6231
  200DOPC   H2S24797   0.952   0.087  13.713  0.3385  0.0466 -0.0591
  200DOPC    C324798   1.263   0.078  13.434  0.0949  0.2034 -0.2904
  200DOPC    HX24799   1.323   0.100  13.344 -1.0114  1.9669 -0.6593
  200DOPC    HY24800   1.289  -0.021  13.477 -0.3071  0.8999  1.6650
  200DOPC   O3124801   1.290   0.189  13.528  0.2510  0.0538 -0.2173
  200DOPC   C3124802   1.270   0.166  13.665  0.1665  0.1221  0.2475
  200DOPC   O3224803   1.225   0.059  13.707 -0.4540 -0.4200  0.2976
  200DOPC   C3224804   1.324   0.282  13.747 -0.3240 -0.3366 -0.4558
  200DOPC   H2X24805   1.431   0.298  13.721 -0.1685  0.1537  0.4248
  200DOPC   H2Y24806   1.264   0.372  13.724 -0.3765  0.2007  1.5937
  200DOPC   C2324807   0.955  -0.111  13.799  0.3791 -0.5630 -0.0378
  200DOPC   H3R24808   1.064  -0.092  13.805  0.2603 -0.0234  0.4862
  200DOPC   H3S24809   0.928  -0.215  13.770 -3.4079  0.2060  0.2106
  200DOPC   C2424810   0.883  -0.075  13.934  0.8460 -0.4030 -0.4187
  200DOPC   H4R24811   0.773  -0.082  13.920  0.8462 -1.7245  0.0918
  200DOPC   H4S24812   0.908   0.031  13.956 -0.6000 -0.3493  1.1675
  200DOPC   C2524813   0.924  -0.172  14.049  0.8086 -0.6763 -0.1724
  200DOPC   H5R24814   1.030  -0.187  14.077  0.0805 -4.4137  1.1116
  200DOPC   H5S24815   0.896  -0.276  14.024 -0.2580 -1.0444  2.2929
  200DOPC   C2624816   0.838  -0.155  14.183 -0.2260 -0.0592  0.1889
  200DOPC   H6R24817   0.735  -0.178  14.150  0.1223  0.8993 -1.6461
  200DOPC   H6S24818   0.850  -0.057  14.234  1.1689 -0.7173  1.2428
  200DOPC   C2724819   0.886  -0.252  14.293  0.4336 -0.3810  0.2515
  200DOPC   H7R24820   0.976  -0.210  14.340 -0.0528  0.2619  0.6241
  200DOPC   H7S24821   0.905  -0.348  14.240 -2.3816 -0.3282 -1.0412
  200DOPC   C2824822   0.788  -0.273  14.411  0.3528 -0.2046 -0.9604
  200DOPC   H8R24823   0.831  -0.355  14.473  2.6126  0.5490 -1.4235
  200DOPC   H8S24824   0.695  -0.317  14.370  0.7128 -1.2762 -0.6625
  200DOPC   C2924825   0.780  -0.144  14.500  0.6602  0.1191  0.6013
  200DOPC   H9R24826   0.718  -0.062  14.459  1.2656 -0.1448 -0.9061
  200DOPC  C21024827   0.825  -0.126  14.619 -0.1671  0.3993 -0.2082
  200DOPC  H10R24828   0.811  -0.028  14.668 -0.7788  0.7939 -1.1312
  200DOPC  C21124829   0.905  -0.217  14.710  1.3211  0.4827 -0.6058
  200DOPC  H11R24830   0.860  -0.318  14.704  0.9809  0.5745  0.2359
  200DOPC  H11S24831   0.898  -0.182  14.815  0.4112  0.0592 -0.5220
  200DOPC  C21224832   1.048  -0.223  14.659  0.0773 -0.0039  0.4897
  200DOPC  H12R24833   1.044  -0.254  14.552  0.3340  2.6816 -0.3801
  200DOPC  H12S24834   1.108  -0.308  14.697  1.1333 -0.0319 -1.1220
  200DOPC  C21324835   1.127  -0.091  14.657 -0.1452  0.0730 -0.1204
  200DOPC  H13R24836   1.106  -0.043  14.755  0.2915 -0.6275  0.3231
  200DOPC  H13S24837   1.086  -0.015  14.586 -0.2185  0.8892  0.7650
  200DOPC  C21424838   1.279  -0.097  14.641  0.6859  0.7193  0.0151
  200DOPC  H14R24839   1.317  -0.201  14.643  0.8345  0.6368 -2.7424
  200DOPC  H14S24840   1.320  -0.040  14.727 -3.1923  0.9538  1.8969
  200DOPC  C21524841   1.329  -0.049  14.503 -0.1064 -0.6959 -0.2154
  200DOPC  H15R24842   1.297   0.057  14.488 -1.0330 -1.3202 -3.2745
  200DOPC  H15S24843   1.284  -0.114  14.425 -2.1840  2.9077 -2.3061
  200DOPC  C21624844   1.483  -0.073  14.486 -0.0310 -0.2682 -0.6410
  200DOPC  H16R24845   1.514  -0.179  14.482  0.8054 -0.0199 -1.0548
  200DOPC  H16S24846   1.524  -0.030  14.580 -0.9094  0.0062 -0.3683
  200DOPC  C21724847   1.544  -0.007  14.353 -0.9255  0.2918  0.1648
  200DOPC  H17R24848   1.519   0.101  14.352  0.3649  0.6082 -0.6999
  200DOPC  H17S24849   1.488  -0.047  14.266 -1.0249  1.3533 -0.2775
  200DOPC  C21824850   1.693  -0.033  14.330  0.2069 -0.0501 -0.1317
  200DOPC  H18R24851   1.718  -0.141  14.338  1.3871  0.2764  0.9867
  200DOPC  H18S24852   1.765   0.007  14.405  1.2193 -2.1677  0.1180
  200DOPC  H18T24853   1.724   0.002  14.229 -0.4831 -0.3742 -0.4595
  200DOPC   C3324854   1.325   0.246  13.900  0.3188  0.3861 -0.0801
  200DOPC   H3X24855   1.398   0.164  13.918 -0.3711 -0.1779  0.2123
  200DOPC   H3Y24856   1.221   0.218  13.925  0.8903 -0.8788  1.0626
  200DOPC   C3424857   1.361   0.364  13.987 -0.1925  0.5968 -0.1261
  200DOPC   H4X24858   1.303   0.458  13.980  1.4567  1.7457  1.0026
  200DOPC   H4Y24859   1.469   0.380  13.964 -0.1783 -0.9148 -1.3074
  200DOPC   C3524860   1.341   0.320  14.133  0.0355  0.6458  0.4211
  200DOPC   H5X24861   1.392   0.389  14.203 -0.0096 -0.3927  1.5116
  200DOPC   H5Y24862   1.392   0.223  14.148 -3.6351 -1.1765  2.6992
  200DOPC   C3624863   1.190   0.293  14.170 -0.2980 -0.3459 -0.3570
  200DOPC   H6X24864   1.136   0.387  14.147  1.8917  0.7793 -1.1702
  200DOPC   H6Y24865   1.130   0.225  14.106 -1.8528 -0.0323  0.7157
  200DOPC   C3724866   1.179   0.239  14.317 -0.7330  0.0501  0.4958
  200DOPC   H7X24867   1.220   0.136  14.307  0.3171  0.4500  0.5749
  200DOPC   H7Y24868   1.237   0.303  14.386  0.1772  0.8867 -0.9963
  200DOPC   C3824869   1.027   0.218  14.357 -0.3428 -0.6259  0.3152
  200DOPC   H8X24870   1.023   0.176  14.460 -0.4953  1.0206  1.0270
  200DOPC   H8Y24871   0.976   0.148  14.287  0.9101 -0.6027 -0.6430
  200DOPC   C3924872   0.958   0.354  14.364  0.7061  0.4353 -0.5647
  200DOPC   H9X24873   0.990   0.422  14.444 -0.5780 -0.8520  1.1379
  200DOPC  C31024874   0.856   0.389  14.283 -0.3365  0.3377 -0.4500
  200DOPC  H10X24875   0.793   0.476  14.308 -2.7491 -1.0508 -1.4063
  200DOPC  C31124876   0.791   0.314  14.170  0.0879 -0.4415 -0.5555
  200DOPC  H11X24877   0.864   0.248  14.118 -1.0836 -3.3920  1.3062
  200DOPC  H11Y24878   0.771   0.391  14.093  3.4125  0.6525 -0.5054
  200DOPC  C31224879   0.664   0.231  14.207 -0.1653 -0.7596 -0.2605
  200DOPC  H12X24880   0.611   0.293  14.283  1.8872  0.7659  0.0034
  200DOPC  H12Y24881   0.688   0.135  14.256 -1.6569  0.1481  2.5096
  200DOPC  C31324882   0.575   0.203  14.079 -0.3251 -0.0143 -0.8573
  200DOPC  H13X24883   0.541   0.302  14.043 -0.0717  0.6412  0.6397
  200DOPC  H13Y24884   0.632   0.154  13.997  1.7467  1.4950 -0.4096
  200DOPC  C31424885   0.451   0.118  14.114  0.2083  0.3711 -0.6050
  200DOPC  H14X24886   0.389   0.169  14.190  0.7485  1.4938 -0.9004
  200DOPC  H14Y24887   0.387   0.109  14.024 -1.1645  0.2251  0.3683
  200DOPC  C31524888   0.480  -0.030  14.155 -0.4790  0.0120 -0.2449
  200DOPC  H15X24889   0.551  -0.026  14.239  1.3635 -0.1137 -1.7276
  200DOPC  H15Y24890   0.538  -0.089  14.080 -0.6293 -1.0013  0.4176
  200DOPC  C31624891   0.352  -0.112  14.183  0.3266  0.3533 -0.2861
  200DOPC  H16X24892   0.274  -0.060  14.241 -1.1020 -1.0918 -0.8385
  200DOPC  H16Y24893   0.302  -0.145  14.089 -3.7262  0.2907  1.7133
  200DOPC  C31724894   0.381  -0.247  14.251 -0.3672 -0.1204  0.0754
  200DOPC  H17X24895   0.460  -0.305  14.200 -1.7061 -1.5546 -0.4486
  200DOPC  H17Y24896   0.412  -0.238  14.357 -1.4625 -0.4624  0.4456
  200DOPC  C31824897   0.256  -0.335  14.237 -0.3069 -0.6624  0.6219
  200DOPC  H18X24898   0.241  -0.387  14.140 -0.0322 -0.0120  0.2196
  200DOPC  H18Y24899   0.263  -0.413  14.315  0.8016  0.6957  1.9223
  200DOPC  H18Z24900   0.166  -0.272  14.257  0.0140  1.0365 -2.5543
  201SOD    SOD24901   0.215   1.849  18.915 -0.1794 -0.3931 -0.2889
  202SOD    SOD24902   0.892   3.399  12.099  0.1851 -0.3030  0.0366
  203SOD    SOD24903   5.002   5.276  17.257 -0.1461  0.3159  0.0738
  204SOD    SOD24904   3.864   6.070  12.629 -0.4890  0.4451 -0.2755
  205SOD    SOD24905   5.315   6.951  18.563 -0.4816 -0.0878  0.0450
  206SOD    SOD24906   0.699   2.386  10.640  0.2550 -0.1386 -0.3715
  207SOD    SOD24907   2.084   4.822  12.352  0.0746 -0.2812  0.8838
  208SOD    SOD24908   5.400   3.407  16.616  0.0289  0.6558  0.0370
  209SOD    SOD24909   0.194   3.999  11.623 -0.0241  0.2824 -0.1749
  210SOD    SOD24910   2.367   5.161  18.235 -0.4862 -0.0524  0.4431
  211SOD    SOD24911   5.031   7.536  17.802  0.1888 -0.1077  0.4116
  212SOD    SOD24912   1.680   5.989  18.944 -0.3767 -0.2072  0.0208
  213SOD    SOD24913   1.446   0.721  12.842 -0.4304  0.1682  0.9281
  214SOD    SOD24914   2.475   3.357  17.111  0.3180  0.0485 -0.2348
  215SOD    SOD24915   4.917   2.627  17.504  0.0844 -0.6283 -0.0169
  216SOD    SOD24916   6.232   7.046  17.134  0.2919 -0.0111  0.0906
  217SOD    SOD24917   6.826   6.416  13.229  0.3543  0.5266  0.1200
  218SOD    SOD24918   3.397   6.800  18.300 -0.3371  0.0460 -0.5071
  219SOD    SOD24919   1.826   1.068  16.992  0.2133 -0.0839 -0.4497
  220SOD    SOD24920   5.382   1.022  11.357  0.0040 -0.4062  0.1748
  221SOD    SOD24921   7.675   5.251  12.563  0.3026  0.0938 -0.3627
  222SOD    SOD24922   6.136   2.124  17.168 -0.0724  0.1049 -0.0972
  223SOD    SOD24923   0.332   3.231  13.286  0.2257 -0.3929 -0.0127
  224SOD    SOD24924   3.966   3.200  12.831  0.1871 -0.4051 -0.6216
  225SOD    SOD24925   0.959   1.674  11.104  0.0379 -0.1796 -0.1688
  226SOD    SOD24926   2.594   0.718  18.529 -0.4182 -0.3889  0.1408
  227CLA    CLA24927   0.059   2.287  11.818 -0.3652  0.0001 -0.3285
  228CLA    CLA24928   7.437   4.352  11.563 -0.1821  0.2966 -0.0382
  229CLA    CLA24929   0.451   7.360  11.351 -0.1900  0.2595 -0.3601
  230CLA    CLA24930   7.011   7.662  17.793  0.1015  0.1445 -0.2605
  231CLA    CLA24931   4.722   0.615  16.853  0.0783  0.1450 -0.3638
  232CLA    CLA24932   1.623   3.827  17.644  0.0885 -0.2895 -0.0055
  233CLA    CLA24933   3.269   7.028  18.680  0.1077 -0.2904 -0.1681
  234CLA    CLA24934   7.073   3.187  17.880  0.2286  0.2431  0.2984
  235CLA    CLA24935   7.499   6.266  12.089  0.1117  0.0667 -0.2670
  236CLA    CLA24936   7.191   5.760  18.016 -0.3444  0.1011 -0.1045
  237CLA    CLA24937   0.179   4.652  18.612  0.0038 -0.2058  0.3411
  238CLA    CLA24938   2.358   2.329  11.547 -0.3093  0.2478  0.0791
  239CLA    CLA24939   2.041   4.198  11.786  0.0570  0.3446  0.2378
  240CLA    CLA24940   4.830   6.164  18.922  0.1100 -0.5099 -0.2023
  241CLA    CLA24941   6.058   5.254  11.690 -0.0677  0.0416  0.1890
  242CLA    CLA24942   5.198   1.239  18.622 -0.2533  0.0149 -0.0110
  243CLA    CLA24943   0.498   1.170  12.287  0.1381 -0.2652  0.5150
  244CLA    CLA24944   4.082   3.510  11.883  0.4714  0.0316 -0.0564
  245CLA    CLA24945   0.246   3.827  11.994 -0.2601  0.0331 -0.2856
  246CLA    CLA24946   5.073   0.012  18.822  0.1595 -0.0661  0.1678
  247CLA    CLA24947   0.743   1.771  11.764  0.0494  0.0311 -0.2746
  248CLA    CLA24948   7.084   2.768  11.074  0.0637 -0.0557  0.3062
  249CLA    CLA24949   0.409   5.038  12.512 -0.3666 -0.0852  0.1906
  250CLA    CLA24950   0.897   2.632  19.262  0.1006  0.0518 -0.1829
  251CLA    CLA24951   5.792   6.074  17.602 -0.1643 -0.2067  0.0849
  252CLA    CLA24952   7.437   6.251  11.014 -0.2801 -0.1526 -0.3161
  253TIP3   OH224953   4.493   3.844  17.958 -0.1094 -0.0031 -0.4086
  253TIP3    H124954   4.407   3.881  17.937 -0.7267 -1.0290  0.1709
  253TIP3    H224955   4.553   3.884  17.895 -1.2422 -0.2254 -1.6955
  254TIP3   OH224956   6.018   2.733  17.755 -0.2139  0.0969 -0.1590
  254TIP3    H124957   6.009   2.691  17.669  2.6514  1.1384 -1.0930
  254TIP3    H224958   5.993   2.824  17.739 -0.4807  0.1099  0.3279
  255TIP3   OH224959   3.279   6.468  19.138  0.5184 -0.0080 -0.8229
  255TIP3    H124960   3.345   6.469  19.208 -0.5260 -1.9569  0.2781
  255TIP3    H224961   3.285   6.555  19.098  4.4038 -0.3348 -1.4265
  256TIP3   OH224962   4.408   4.375  18.255  0.0294 -0.2924  0.1528
  256TIP3    H124963   4.319   4.364  18.290 -0.1477 -0.0813 -0.2150
  256TIP3    H224964   4.452   4.432  18.318 -0.4751  0.5837 -0.2546
  257TIP3   OH224965   2.599   6.290  18.695 -0.2844 -0.5610 -1.0865
  257TIP3    H124966   2.560   6.363  18.744 -0.1451 -0.7067 -0.7569
  257TIP3    H224967   2.648   6.241  18.760 -0.7576 -1.2171 -1.2226
  258TIP3   OH224968   2.579   5.649  19.054  0.1977  0.2743 -0.2530
  258TIP3    H124969   2.583   5.601  19.137 -0.2326  0.8524  0.1058
  258TIP3    H224970   2.490   5.685  19.051  0.0342 -0.1941 -1.2270
  259TIP3   OH224971   2.079   7.054  17.431 -0.3452  0.2896  0.6752
  259TIP3    H124972   2.111   7.027  17.345  1.1526 -0.2013  1.3591
  259TIP3    H224973   1.996   7.099  17.412 -1.2482 -1.8495 -0.8024
  260TIP3   OH224974   4.969   5.741  19.191 -0.0036  0.1973 -0.3118
  260TIP3    H124975   5.005   5.668  19.242  2.7766  0.7914 -1.2415
  260TIP3    H224976   4.906   5.699  19.132 -1.4405 -0.8291  1.8188
  261TIP3   OH224977   6.125   6.310  17.540 -0.4512  0.3295 -0.2152
  261TIP3    H124978   6.188   6.343  17.603 -1.1386  3.2615 -0.9101
  261TIP3    H224979   6.176   6.256  17.480  0.6084 -0.6472  1.5123
  262TIP3   OH224980   6.698   6.449  16.730 -0.6224 -0.5405  0.2749
  262TIP3    H124981   6.728   6.529  16.688 -0.0420 -0.3842  0.9607
  262TIP3    H224982   6.611   6.470  16.764  0.0160  0.2289  1.5393
  263TIP3   OH224983   0.380   3.798  16.695  0.0228  0.3033  0.3565
  263TIP3    H124984   0.378   3.703  16.706  0.8786  0.3602  1.1002
  263TIP3    H224985   0.455   3.814  16.637  0.9393  0.6196  1.5763
  264TIP3   OH224986   4.437   6.641  19.502 -0.7765 -0.0388  0.2173
  264TIP3    H124987   4.481   6.699  19.440 -3.0863  2.3816  0.6777
  264TIP3    H224988   4.426   6.694  19.581 -0.8919 -1.9465  1.5493
  265TIP3   OH224989   0.338   1.299  18.967  0.5716 -0.2725 -0.1578
  265TIP3    H124990   0.337   1.222  19.024 -2.7327 -2.1877 -2.4969
  265TIP3    H224991   0.255   1.344  18.986  0.1012 -0.1374 -2.2879
  266TIP3   OH224992   5.752   2.782  18.401  0.4876 -0.6022  0.4239
  266TIP3    H124993   5.798   2.862  18.428 -0.7319  0.4148 -0.3430
  266TIP3    H224994   5.766   2.777  18.307  1.0645 -1.6559  0.5580
  267TIP3   OH224995   3.608   0.811  17.231 -0.0077 -0.2858 -0.5883
  267TIP3    H124996   3.600   0.723  17.268  0.4873 -0.3208 -0.5596
  267TIP3    H224997   3.701   0.832  17.237 -0.3269  0.8799  0.8455
  268TIP3   OH224998   4.445   3.277  17.177  0.5686 -0.4385 -0.7868
  268TIP3    H124999   4.507   3.278  17.104  2.1915  1.7476  0.4817
  268TIP3    H225000   4.413   3.367  17.183 -0.8460 -0.9723  0.1616
  269TIP3   OH225001   2.076   6.744  18.189  0.2153  0.1951  0.1273
  269TIP3    H125002   2.009   6.812  18.198 -0.9519 -0.5300 -2.2933
  269TIP3    H225003   2.056   6.682  18.259 -1.8536 -0.1236 -0.6604
  270TIP3   OH225004   5.674   3.752  18.028  0.1688  0.2899 -0.6799
  270TIP3    H125005   5.708   3.721  18.112  1.8090 -0.1528 -1.4493
  270TIP3    H225006   5.748   3.797  17.987  0.3667 -1.9421 -3.0602
  271TIP3   OH225007   5.196   6.815  19.064 -0.7630 -0.2855 -0.0721
  271TIP3    H125008   5.182   6.771  19.148  0.1341  0.8625  0.7091
  271TIP3    H225009   5.190   6.745  18.999 -0.8213 -1.3061  0.9961
  272TIP3   OH225010   1.611   3.531  17.541 -0.3205  0.2630 -0.6433
  272TIP3    H125011   1.583   3.608  17.589 -0.9073  0.0452 -0.6245
  272TIP3    H225012   1.707   3.536  17.539 -0.3500  0.8786 -0.4680
  273TIP3   OH225013   4.022   4.656  17.475  0.0231 -0.0212  0.0042
  273TIP3    H125014   4.068   4.610  17.404 -0.2121  0.0467 -0.1952
  273TIP3    H225015   3.932   4.622  17.470  0.4599 -1.5724  1.5933
  274TIP3   OH225016   0.598   0.028  18.633 -0.0472 -0.2182 -0.2486
  274TIP3    H125017   0.583   0.066  18.719 -0.3156  0.3960 -0.5632
  274TIP3    H225018   0.585   0.100  18.571  1.4332 -0.3269 -0.7245
  275TIP3   OH225019   3.780   4.504  19.449 -0.2483  0.5567 -0.1220
  275TIP3    H125020   3.820   4.495  19.363 -0.0311  1.0859 -0.0827
  275TIP3    H225021   3.840   4.458  19.508 -0.5975 -0.1425 -0.2981
  276TIP3   OH225022   7.471   0.658  18.101  0.4807  0.2136 -0.7512
  276TIP3    H125023   7.543   0.720  18.111  1.1123 -0.8635  2.3294
  276TIP3    H225024   7.513   0.572  18.095 -0.3981 -0.6488  3.0063
  277TIP3   OH225025   1.150   1.864  19.579  0.2256 -0.1698 -0.0622
  277TIP3    H125026   1.136   1.916  19.657  0.5597 -0.9883  0.5588
  277TIP3    H225027   1.083   1.893  19.517  0.4103  0.9807  0.2656
  278TIP3   OH225028   6.765   0.936  19.502  0.4168 -0.1255 -0.1034
  278TIP3    H125029   6.705   0.995  19.547 -2.7335 -0.6795 -3.1196
  278TIP3    H225030   6.796   0.986  19.426  1.9457 -0.6847  0.0990
  279TIP3   OH225031   4.160   5.709  16.954 -0.3104 -0.6905 -0.6205
  279TIP3    H125032   4.077   5.755  16.971  0.3679  0.4826 -0.3374
  279TIP3    H225033   4.199   5.699  17.041  0.5075  0.1054 -0.8787
  280TIP3   OH225034   6.342   7.251  17.865 -0.6391  0.0450 -0.4941
  280TIP3    H125035   6.357   7.193  17.939  0.3509 -0.9584 -1.4486
  280TIP3    H225036   6.251   7.280  17.875 -0.6386 -0.3883  0.8757
  281TIP3   OH225037   0.489   6.814  17.555  0.2289 -0.7820  0.1370
  281TIP3    H125038   0.469   6.900  17.520 -0.4561 -0.7552  0.5917
  281TIP3    H225039   0.509   6.761  17.477 -1.0135 -0.6522 -0.2794
  282TIP3   OH225040   0.628   4.051  19.271 -0.6607  0.1334 -0.8293
  282TIP3    H125041   0.614   4.110  19.344  0.2726  1.9112 -2.0081
  282TIP3    H225042   0.596   4.099  19.194 -0.5433 -1.1893 -1.7437
  283TIP3   OH225043   7.275   4.829  18.447 -0.4991  0.0393 -0.2884
  283TIP3    H125044   7.199   4.863  18.400 -0.6580  0.0900 -0.0012
  283TIP3    H225045   7.323   4.908  18.474 -0.1636 -0.0009 -0.7605
  284TIP3   OH225046   2.474   5.435  12.187 -0.7747  0.3048 -0.3590
  284TIP3    H125047   2.535   5.367  12.158 -0.5269  0.6141 -0.5789
  284TIP3    H225048   2.415   5.391  12.247 -0.2497  0.0301 -0.0388
  285TIP3   OH225049   1.279   5.296  10.575 -0.6184 -0.5725  0.0131
  285TIP3    H125050   1.279   5.201  10.584 -1.0473 -0.4255  2.2947
  285TIP3    H225051   1.234   5.313  10.493 -0.3777 -2.3331 -0.5223
  286TIP3   OH225052   1.418   3.592  11.101 -0.1536 -0.0506  0.0953
  286TIP3    H125053   1.491   3.575  11.160 -0.1739  0.2773  0.2184
  286TIP3    H225054   1.396   3.684  11.116 -1.7426 -0.5830  1.3998
  287TIP3   OH225055   2.382   1.388  11.238  0.2393 -0.4649 -0.1215
  287TIP3    H125056   2.447   1.321  11.258  1.3202  0.5994  0.0809
  287TIP3    H225057   2.427   1.471  11.258 -0.9178  0.3302 -0.7262
  288TIP3   OH225058   5.612   4.260  12.922 -0.1418  0.1694 -0.0812
  288TIP3    H125059   5.517   4.261  12.933 -0.0298  1.0888  0.9574
  288TIP3    H225060   5.628   4.318  12.847 -0.3717  0.4928  0.1154
  289TIP3   OH225061   2.757   6.764  11.972  0.7679  0.2367 -0.1712
  289TIP3    H125062   2.758   6.804  11.885  0.1422  1.1474  0.2312
  289TIP3    H225063   2.827   6.698  11.969 -0.4509 -1.0716 -1.9728
  290TIP3   OH225064   4.217   2.453  11.029 -0.6653 -0.0605 -0.1321
  290TIP3    H125065   4.213   2.362  11.000 -0.1993 -0.1462  0.0707
  290TIP3    H225066   4.262   2.499  10.959 -2.4300  0.3629 -1.0635
  291TIP3   OH225067   6.312   3.001  11.210 -0.0465 -0.0213  0.2444
  291TIP3    H125068   6.394   3.049  11.198  0.1269 -0.4793 -0.4868
  291TIP3    H225069   6.282   2.983  11.121 -0.9329  0.1196  0.5073
  292TIP3   OH225070   4.459   0.401  11.563 -0.6054  0.2599 -0.3432
  292TIP3    H125071   4.435   0.404  11.470  0.2532 -0.1428 -0.5890
  292TIP3    H225072   4.553   0.419  11.564 -0.4458 -0.5280  0.3674
  293TIP3   OH225073   6.216   1.556  12.302  0.1045 -0.7288  0.3884
  293TIP3    H125074   6.222   1.488  12.370  2.5680 -1.0877 -0.1026
  293TIP3    H225075   6.234   1.638  12.349 -1.6339 -0.5068  0.7458
  294TIP3   OH225076   7.175   7.410  11.055  0.7886 -0.3153  0.1090
  294TIP3    H125077   7.124   7.396  10.975  0.7792 -0.7241  0.1811
  294TIP3    H225078   7.146   7.340  11.114 -0.6904  1.1839  1.2368
  295TIP3   OH225079   2.662   3.475  10.815 -0.7822 -0.0916  0.1134
  295TIP3    H125080   2.706   3.559  10.832  0.5315 -0.6777 -0.3281
  295TIP3    H225081   2.674   3.425  10.895 -0.5267 -0.2949 -0.0488
  296TIP3   OH225082   1.762   6.967  10.621 -0.8113  0.1609  0.3276
  296TIP3    H125083   1.676   7.000  10.646  0.2043  0.6481  3.5813
  296TIP3    H225084   1.813   7.046  10.600 -0.9769 -0.0985 -1.1703
  297TIP3   OH225085   3.865   5.279  10.621 -0.1066 -0.9981  0.0857
  297TIP3    H125086   3.947   5.322  10.595 -0.3648  0.3044  1.3025
  297TIP3    H225087   3.891   5.190  10.645  1.1232 -0.3763  1.2077
  298TIP3   OH225088   5.058   4.511  10.835 -0.7654  0.1986 -0.0439
  298TIP3    H125089   5.049   4.595  10.881 -1.1238  1.0050 -1.5030
  298TIP3    H225090   5.142   4.476  10.863 -0.3738  1.3057  0.1913
  299TIP3   OH225091   6.537   3.979  10.601  0.1080 -0.5493 -0.2633
  299TIP3    H125092   6.442   3.989  10.594  0.2565 -0.1041 -2.2513
  299TIP3    H225093   6.561   4.035  10.675 -1.0326  0.4313 -0.5831
  300TIP3   OH225094   5.780   2.658  11.465  0.9735 -0.3052  0.7895
  300TIP3    H125095   5.781   2.724  11.535  0.5367 -0.7623  1.2269
  300TIP3    H225096   5.867   2.618  11.469  0.3038 -1.6867  2.3750
  301TIP3   OH225097   4.602   4.603  11.789 -0.0727 -0.0834 -0.1370
  301TIP3    H125098   4.666   4.674  11.787 -0.3415  0.1551 -0.4988
  301TIP3    H225099   4.567   4.605  11.878  0.1670  0.0170 -0.0445
  302TIP3   OH225100   7.549   2.193  10.317 -0.0213  0.2436  0.1383
  302TIP3    H125101   7.585   2.211  10.404 -0.2475  0.0601  0.2706
  302TIP3    H225102   7.529   2.279  10.282  1.9249  0.4683 -0.5382
  303TIP3   OH225103   0.055   4.038  12.118 -0.3377 -0.3083 -0.5360
  303TIP3    H125104   0.121   3.980  12.078  0.6715  0.5287 -0.1171
  303TIP3    H225105  -0.020   4.032  12.059  0.3143 -0.8400 -1.3391
  304TIP3   OH225106   0.355   1.064  12.777  0.2120  0.1476 -0.2794
  304TIP3    H125107   0.330   0.991  12.833  0.5680 -0.2643 -0.6543
  304TIP3    H225108   0.294   1.060  12.703 -0.5313  0.9434  0.2654
  305TIP3   OH225109   2.124   2.665  11.653  0.0331 -0.0434  0.4091
  305TIP3    H125110   2.104   2.581  11.613  0.9694  0.3203 -0.9075
  305TIP3    H225111   2.214   2.656  11.685 -0.4196 -0.0562  1.7471
  306TIP3   OH225112   5.336   3.607  11.096 -0.0108 -0.1886  0.1304
  306TIP3    H125113   5.274   3.654  11.151 -0.5077 -2.3143  1.4904
  306TIP3    H225114   5.283   3.544  11.048  0.9119 -1.1104  0.2764
  307TIP3   OH225115   6.434   2.575  11.194  0.0209 -0.6437  0.2267
  307TIP3    H125116   6.365   2.558  11.259 -0.5381  0.9906  0.0851
  307TIP3    H225117   6.515   2.550  11.239 -0.4096 -0.0408  1.3832
  308TIP3   OH225118   5.115   1.958  13.156 -0.2138  0.1358 -0.0444
  308TIP3    H125119   5.201   1.918  13.172 -0.4283  0.1432  1.2341
  308TIP3    H225120   5.134   2.051  13.147 -0.1137  0.1871  0.6173
  309TIP3   OH225121   2.262   6.633  11.815  0.2958 -0.6026  0.3924
  309TIP3    H125122   2.285   6.560  11.757  0.7682 -0.4863  0.4315
  309TIP3    H225123   2.172   6.613  11.843 -0.1118 -0.4337 -0.7253
  310TIP3   OH225124   3.428   1.362  11.384  0.0895 -0.2910  0.3696
  310TIP3    H125125   3.454   1.337  11.296 -2.2510  2.5564 -1.2992
  310TIP3    H225126   3.346   1.314  11.399  0.2611 -0.4465  0.8570
  311TIP3   OH225127   2.956   5.831  11.508 -0.5896 -0.2410  0.2599
  311TIP3    H125128   2.879   5.835  11.565  0.2592 -0.9507  1.5135
  311TIP3    H225129   2.957   5.742  11.475 -0.0383 -0.3819  0.6458
  312TIP3   OH225130   1.729   2.006  11.555  0.1386  0.3660 -0.0935
  312TIP3    H125131   1.721   1.933  11.494  2.5379  2.3278 -2.9794
  312TIP3    H225132   1.639   2.033  11.571 -0.7201 -2.1182 -0.2098
  313TIP3   OH225133   6.439   6.754  12.761 -0.1134  0.2421 -0.1833
  313TIP3    H125134   6.470   6.837  12.797 -0.4230  0.4059 -0.2931
  313TIP3    H225135   6.375   6.722  12.825 -1.8282  1.2858 -1.2905
  314TIP3   OH225136   3.572   4.292  10.616  0.1969 -0.1215  0.2663
  314TIP3    H125137   3.557   4.366  10.557  0.7255  0.3094  0.6695
  314TIP3    H225138   3.544   4.324  10.702 -1.4405 -1.0473  0.1157
  315TIP3   OH225139   6.143   0.081  10.807  0.3306  0.4697  0.4276
  315TIP3    H125140   6.087   0.149  10.844  0.5023 -0.5570  2.7184
  315TIP3    H225141   6.082   0.017  10.770  0.1355  1.1362 -0.4399
  316TIP3   OH225142   6.218   4.424  12.081 -0.3133 -0.1613 -0.8048
  316TIP3    H125143   6.225   4.440  12.175 -0.0690  1.4991 -1.0880
  316TIP3    H225144   6.128   4.446  12.059 -0.7343 -1.7174 -0.7830
  317TIP3   OH225145   6.737   3.171  12.505 -0.0629 -0.2209  0.0789
  317TIP3    H125146   6.781   3.215  12.432 -2.2442  1.7161 -0.1762
  317TIP3    H225147   6.794   3.187  12.580  0.4037  0.9870 -0.4993
  318TIP3   OH225148   2.066   3.630  11.177 -0.0388 -0.7907 -0.0999
  318TIP3    H125149   2.078   3.610  11.270  1.4068 -1.0544 -0.3147
  318TIP3    H225150   2.010   3.559  11.145 -4.0456  1.4394  1.3294
  319TIP3   OH225151   5.975   7.378  12.334  0.0115 -0.4065  0.2134
  319TIP3    H125152   6.042   7.441  12.306  0.3317 -1.3895 -1.3859
  319TIP3    H225153   6.001   7.352  12.422 -0.3407  1.9362  1.0899
  320TIP3   OH225154   7.035   2.644  10.761  0.0566  0.0352 -0.1744
  320TIP3    H125155   7.067   2.660  10.850  1.8190 -2.0894 -0.3383
  320TIP3    H225156   7.061   2.721  10.712  0.4072  0.5718  0.8190
  321TIP3   OH225157   6.093   0.137  11.254  0.1389 -0.4995 -0.2252
  321TIP3    H125158   6.143   0.118  11.175  2.6479  0.3374  1.0518
  321TIP3    H225159   6.020   0.190  11.224  0.8904 -0.4315 -2.0261
  322TIP3   OH225160   2.739   2.844  12.062  0.1688  0.0598  0.3087
  322TIP3    H125161   2.797   2.792  12.117 -0.3492 -1.0030 -0.1233
  322TIP3    H225162   2.651   2.819  12.089 -0.1632  2.5246  1.7845
  323TIP3   OH225163   0.171   6.108  18.540 -0.0468 -1.1076 -0.1044
  323TIP3    H125164   0.132   6.152  18.616 -0.8665 -1.8728 -0.0654
  323TIP3    H225165   0.099   6.100  18.478  0.3792 -1.3784 -0.5699
  324TIP3   OH225166   3.822   5.447  19.441  0.1304 -0.3978 -0.0067
  324TIP3    H125167   3.896   5.498  19.473 -1.1866  1.1562  0.7336
  324TIP3    H225168   3.830   5.449  19.346 -0.2401  1.8508 -0.0436
  325TIP3   OH225169   7.060   3.504  17.810 -0.1559 -0.5840  0.4030
  325TIP3    H125170   7.065   3.410  17.824 -1.3953 -0.6624  0.4453
  325TIP3    H225171   7.147   3.537  17.833  0.3966 -1.7493  0.0468
  326TIP3   OH225172   2.610   1.882  18.611 -0.7573  0.0965 -0.3021
  326TIP3    H125173   2.534   1.938  18.602  0.2183  1.2736 -1.5793
  326TIP3    H225174   2.682   1.941  18.630  0.4729 -0.5608 -2.5662
  327TIP3   OH225175   1.664   3.675  18.135 -0.4275  0.3943  0.5514
  327TIP3    H125176   1.749   3.709  18.161  0.2314 -0.6364 -0.1489
  327TIP3    H225177   1.609   3.683  18.213  0.7899 -0.4435  1.5364
  328TIP3   OH225178   1.691   2.245  17.985 -0.1545 -0.7409 -0.2408
  328TIP3    H125179   1.648   2.322  18.024  1.0163 -0.4607  0.5567
  328TIP3    H225180   1.761   2.282  17.930  0.9311 -1.2151  0.7700
  329TIP3   OH225181   1.112   2.146  16.904  0.2420 -0.0095 -0.4998
  329TIP3    H125182   1.038   2.206  16.891 -1.5793 -1.8226  0.8583
  329TIP3    H225183   1.071   2.061  16.923  2.6992 -1.2502 -0.3494
  330TIP3   OH225184   5.942   3.487  18.156 -0.3722 -0.2608  0.0557
  330TIP3    H125185   5.955   3.394  18.175 -0.4314  0.0510  1.7309
  330TIP3    H225186   5.898   3.522  18.233 -2.6801  0.6693 -1.5723
  331TIP3   OH225187   6.250   2.343  18.405  0.7310 -0.0310 -0.2114
  331TIP3    H125188   6.219   2.265  18.358 -0.7068  0.0837  0.5064
  331TIP3    H225189   6.281   2.309  18.490  1.0453  0.0719 -0.2809
  332TIP3   OH225190   2.153   5.968  19.530  0.3298  0.0895  0.8723
  332TIP3    H125191   2.060   5.990  19.535  0.1589 -0.2206 -0.5124
  332TIP3    H225192   2.172   5.923  19.612 -0.5895  0.6946  1.4378
  333TIP3   OH225193   6.734   5.948  16.548  0.2267  0.3451 -0.1670
  333TIP3    H125194   6.702   6.038  16.540 -2.1045 -0.1931  1.9395
  333TIP3    H225195   6.668   5.903  16.601  1.7932 -2.3888 -0.3336
  334TIP3   OH225196   6.287   2.842  19.624 -0.4961  0.0053  0.2533
  334TIP3    H125197   6.332   2.763  19.593 -0.4010  0.2397 -0.2006
  334TIP3    H225198   6.347   2.913  19.603  0.6215 -0.0094  2.9243
  335TIP3   OH225199   4.686   1.206  17.005 -0.2786 -0.1531  0.6967
  335TIP3    H125200   4.631   1.150  17.059 -0.8179  1.1085  1.5056
  335TIP3    H225201   4.631   1.230  16.930  0.0786 -0.9696  0.1553
  336TIP3   OH225202   4.839   7.143  17.708  0.5967 -0.5638 -0.4020
  336TIP3    H125203   4.754   7.154  17.748  0.4381 -0.7160 -0.6914
  336TIP3    H225204   4.869   7.232  17.689  0.6503 -0.4956 -0.0037
  337TIP3   OH225205   3.526   4.118  18.559 -0.1468  0.0929  0.2722
  337TIP3    H125206   3.517   4.026  18.586 -1.2673  0.2947  0.6245
  337TIP3    H225207   3.444   4.138  18.515  0.1973  0.8608 -0.0325
  338TIP3   OH225208   4.800   6.130  17.966  0.0698  0.2560  0.3226
  338TIP3    H125209   4.804   6.145  18.061  0.5641 -1.0817  0.5337
  338TIP3    H225210   4.880   6.170  17.933  0.1226  0.3334  0.5369
  339TIP3   OH225211   2.573   4.284  19.265  0.0299 -0.4347 -0.0974
  339TIP3    H125212   2.479   4.301  19.272  0.1142  0.7916 -1.3454
  339TIP3    H225213   2.579   4.190  19.248 -1.0576 -0.3680 -1.0110
  340TIP3   OH225214   4.443   3.612  18.487 -0.7347 -0.6503 -0.0960
  340TIP3    H125215   4.537   3.600  18.496 -0.8127 -0.9150  0.4351
  340TIP3    H225216   4.406   3.527  18.510 -1.0555 -0.8992 -1.4482
  341TIP3   OH225217   1.436   7.033  18.707 -0.0867 -0.2832 -0.1796
  341TIP3    H125218   1.373   7.024  18.635 -0.6812  0.8794  0.1640
  341TIP3    H225219   1.383   7.020  18.786  0.2632 -0.0516  0.0930
  342TIP3   OH225220   0.703   0.098  17.141  0.4630  0.0582  0.0064
  342TIP3    H125221   0.738   0.181  17.172  0.0810 -0.0276  0.7006
  342TIP3    H225222   0.753   0.032  17.188  1.2497 -0.1273 -1.0733
  343TIP3   OH225223   2.247   1.856  18.385  0.4988 -0.1194  0.0896
  343TIP3    H125224   2.178   1.872  18.320 -0.1003 -0.5512  0.6046
  343TIP3    H225225   2.279   1.769  18.364  0.9099  0.0873 -0.1581
  344TIP3   OH225226   6.326   1.100  18.209 -0.3077  0.2463 -0.4345
  344TIP3    H125227   6.342   1.012  18.243 -0.6247 -0.1377 -1.2522
  344TIP3    H225228   6.404   1.150  18.234 -0.1577 -0.2426  0.1000
  345TIP3   OH225229   3.113   5.037  17.578  0.5894  0.2458  0.1267
  345TIP3    H125230   3.071   5.119  17.605  1.3085 -0.2560  3.1009
  345TIP3    H225231   3.203   5.046  17.608  1.3065 -0.7269 -1.6273
  346TIP3   OH225232   0.734   0.299  19.197 -0.2218  0.0039  0.7810
  346TIP3    H125233   0.651   0.339  19.171  0.1445 -0.3808 -1.0898
  346TIP3    H225234   0.753   0.236  19.128  3.0899  2.1372 -0.4811
  347TIP3   OH225235   2.683   1.212  19.540 -0.0520 -0.1098  0.2804
  347TIP3    H125236   2.763   1.261  19.559 -0.6249  0.4253  1.3838
  347TIP3    H225237   2.612   1.268  19.572 -0.8951 -0.5063 -0.8121
  348TIP3   OH225238   1.792   5.113  19.371  0.4587  0.0444  0.1570
  348TIP3    H125239   1.821   5.036  19.420  0.2372  0.0407  0.2830
  348TIP3    H225240   1.731   5.079  19.306  2.7931 -0.3548 -1.9909
  349TIP3   OH225241   4.924   1.113  18.686  0.0818  0.1804  0.1216
  349TIP3    H125242   5.008   1.157  18.672  0.4561 -0.6886 -0.3788
  349TIP3    H225243   4.941   1.051  18.757 -0.9480  2.1564  2.2514
  350TIP3   OH225244   2.299   5.372  17.181  0.6195  0.1106  0.3519
  350TIP3    H125245   2.264   5.336  17.262  0.9801  2.0372  1.4388
  350TIP3    H225246   2.223   5.380  17.123  0.5628 -2.4316 -0.0226
  351TIP3   OH225247   1.605   2.793  18.986 -0.3450  0.3387 -0.3456
  351TIP3    H125248   1.687   2.745  18.997 -0.5799  0.1683  0.8565
  351TIP3    H225249   1.631   2.878  18.953  0.2559  0.0584 -0.6120
  352TIP3   OH225250   1.967   1.888  17.275  0.4194 -0.0365  0.3644
  352TIP3    H125251   1.949   1.908  17.367  1.3724 -1.8345  0.9810
  352TIP3    H225252   2.013   1.805  17.277 -0.4501 -0.6369 -1.8358
  353TIP3   OH225253   7.288   0.224  18.126 -0.1064 -0.1150 -0.1004
  353TIP3    H125254   7.306   0.130  18.126 -1.2026 -0.3395 -0.2759
  353TIP3    H225255   7.365   0.263  18.167  1.3979 -0.8569 -2.1009
  354TIP3   OH225256   3.708   3.791  17.368 -0.8973 -0.2399  0.4246
  354TIP3    H125257   3.624   3.793  17.415 -2.4685 -1.6236 -2.1023
  354TIP3    H225258   3.728   3.883  17.351 -0.7345  0.2496  2.8916
  355TIP3   OH225259   3.258   6.548  17.715 -0.2524 -0.5105  0.3210
  355TIP3    H125260   3.208   6.573  17.637  2.0916 -0.1937 -1.1913
  355TIP3    H225261   3.244   6.454  17.723 -1.1001 -0.4256 -0.0423
  356TIP3   OH225262   6.574   2.990  18.358  0.1283 -0.4355  0.8972
  356TIP3    H125263   6.512   3.052  18.320  0.8026  0.3758  1.0895
  356TIP3    H225264   6.610   2.944  18.282  0.7479  0.4920  0.6137
  357TIP3   OH225265   1.416   6.905  18.232 -0.2679 -0.2662 -0.0556
  357TIP3    H125266   1.437   6.855  18.311  0.8481 -0.0303 -0.1875
  357TIP3    H225267   1.363   6.979  18.262  0.9117  0.3274  0.6096
  358TIP3   OH225268   0.029   3.240  19.209  0.4432 -0.0516  0.7821
  358TIP3    H125269  -0.030   3.206  19.276 -1.0227 -0.9886 -0.8739
  358TIP3    H225270   0.051   3.163  19.156 -0.5996  1.0180 -1.3471
  359TIP3   OH225271   0.496   3.807  18.108 -0.9263  0.3802  0.0779
  359TIP3    H125272   0.504   3.837  18.199  0.8375  0.7638 -0.1746
  359TIP3    H225273   0.414   3.845  18.077 -0.2374  2.4949  0.6928
  360TIP3   OH225274   6.552   7.567  17.887 -0.0309 -0.4487 -0.0137
  360TIP3    H125275   6.559   7.489  17.942 -0.5467 -0.9575 -0.6446
  360TIP3    H225276   6.475   7.551  17.833 -0.4723  0.7620  0.2323
  361TIP3   OH225277   0.604   5.208  19.028 -0.0473  0.2524 -0.4712
  361TIP3    H125278   0.654   5.127  19.033 -1.5043 -0.6147  0.8532
  361TIP3    H225279   0.520   5.188  19.070 -0.0735  2.7307  0.8770
  362TIP3   OH225280   2.369   3.401  18.214 -0.3558 -0.1643 -0.3441
  362TIP3    H125281   2.283   3.399  18.172 -0.1437 -1.6452 -0.7501
  362TIP3    H225282   2.349   3.400  18.308 -0.8034 -1.0620 -0.4310
  363TIP3   OH225283   5.373   1.650  19.021  0.4888  0.8367  0.0325
  363TIP3    H125284   5.323   1.617  18.946 -0.6881 -0.4831  1.3153
  363TIP3    H225285   5.381   1.744  19.005 -0.6684  0.7664 -1.2128
  364TIP3   OH225286   2.483   3.322  17.368  0.0773  0.0214 -0.4803
  364TIP3    H125287   2.459   3.413  17.386 -1.5768 -0.4661 -0.0639
  364TIP3    H225288   2.573   3.315  17.399  0.1394  1.4402 -0.2546
  365TIP3   OH225289   6.297   7.239  18.683 -0.0879  0.3899  0.1659
  365TIP3    H125290   6.379   7.289  18.681  0.6039 -0.7372 -0.9836
  365TIP3    H225291   6.260   7.258  18.769  1.8907  0.1379  1.1291
  366TIP3   OH225292   2.465   6.477  18.869 -0.3033 -0.5502  0.2910
  366TIP3    H125293   2.380   6.446  18.839  0.3024 -2.3923  0.3537
  366TIP3    H225294   2.445   6.528  18.948 -1.3569 -0.7585  0.1775
  367TIP3   OH225295   3.068   5.839  17.957 -0.0477  0.1879 -0.2786
  367TIP3    H125296   3.109   5.756  17.933  0.2116  0.7816 -2.0303
  367TIP3    H225297   3.006   5.816  18.026  0.6596 -1.2993 -0.0915
  368TIP3   OH225298   7.656   0.505  18.399  0.1018 -0.2937 -0.0032
  368TIP3    H125299   7.595   0.445  18.357 -2.3340  1.5373  0.6652
  368TIP3    H225300   7.684   0.565  18.330  0.4330 -0.5763 -0.1161
  369TIP3   OH225301   7.563   2.611  16.870 -0.0938  0.2730 -0.6054
  369TIP3    H125302   7.504   2.549  16.828  1.2873 -0.8879 -0.8769
  369TIP3    H225303   7.526   2.624  16.958 -0.8760 -0.2303 -0.8510
  370TIP3   OH225304   2.558   3.352  19.083 -0.2463  0.1627 -0.1291
  370TIP3    H125305   2.618   3.376  19.153 -1.3059  1.1268  0.4835
  370TIP3    H225306   2.614   3.309  19.017  0.8520 -0.2713  1.0405
  371TIP3   OH225307   4.494   0.186  17.857  0.3570  0.4493  0.1705
  371TIP3    H125308   4.443   0.155  17.782  0.2626 -0.5733  0.6394
  371TIP3    H225309   4.427   0.213  17.921  0.2880 -2.1515  1.3219
  372TIP3   OH225310   6.523   7.417  18.726  0.6377 -0.3856  0.2432
  372TIP3    H125311   6.491   7.504  18.750  1.0577  0.2046 -1.2342
  372TIP3    H225312   6.615   7.430  18.705  0.6632 -1.1539 -0.1366
  373TIP3   OH225313   7.663   6.029  19.597 -0.1082 -0.1909  0.1115
  373TIP3    H125314   7.574   5.994  19.605 -0.5865  1.1513  0.9107
  373TIP3    H225315   7.716   5.953  19.572 -1.1856 -1.3793  1.2827
  374TIP3   OH225316   1.385   3.394  17.458 -0.0114 -0.0421 -0.1146
  374TIP3    H125317   1.425   3.333  17.396 -1.5268  0.8648 -2.0955
  374TIP3    H225318   1.454   3.458  17.477  1.0238 -1.3352  0.5860
  375TIP3   OH225319   6.573   3.411  18.582 -0.1613  0.0401 -1.3794
  375TIP3    H125320   6.629   3.425  18.505  1.9144 -1.4282 -0.2681
  375TIP3    H225321   6.572   3.316  18.593  1.4068  0.2438  1.5653
  376TIP3   OH225322   2.115   3.719  19.393 -0.6124  0.5566  0.0535
  376TIP3    H125323   2.099   3.743  19.302 -0.8036 -1.7829 -0.6103
  376TIP3    H225324   2.037   3.669  19.419 -0.7505  1.5488  1.6686
  377TIP3   OH225325   0.290   5.720  17.551 -0.4261 -0.7356  0.1546
  377TIP3    H125326   0.301   5.754  17.639  0.8044  0.0540 -0.2784
  377TIP3    H225327   0.326   5.631  17.554  2.4436  0.3275 -0.2201
  378TIP3   OH225328   3.776   6.916  19.179  0.2111  0.2391  0.4025
  378TIP3    H125329   3.838   6.938  19.248  0.3172  1.3098 -0.0107
  378TIP3    H225330   3.798   6.826  19.154  1.5886  0.5858  0.2752
  379TIP3   OH225331   0.011   4.362  17.218  0.7707  0.2499 -0.6628
  379TIP3    H125332  -0.082   4.381  17.214  0.8162  0.8707  0.5912
  379TIP3    H225333   0.016   4.274  17.256  0.6972 -0.1098 -1.4534
  380TIP3   OH225334   4.100   6.343  17.521  0.6352  0.1465 -0.4916
  380TIP3    H125335   4.162   6.410  17.491  1.2805  0.2904  1.0878
  380TIP3    H225336   4.015   6.387  17.521  0.9606  0.7844 -0.0543
  381TIP3   OH225337   3.336   7.422  17.323  0.2939  0.1065 -0.3970
  381TIP3    H125338   3.331   7.416  17.419  2.2308 -4.0257 -0.3201
  381TIP3    H225339   3.282   7.349  17.292  2.7651 -1.1178 -2.1546
  382TIP3   OH225340   6.464   3.806  17.554  0.2702  0.4971 -0.1673
  382TIP3    H125341   6.497   3.863  17.623  0.4704  0.5114 -0.2721
  382TIP3    H225342   6.508   3.837  17.474  1.9044 -1.0113  0.0692
  383TIP3   OH225343   0.509   3.802  19.256 -0.1637 -0.2756 -0.4696
  383TIP3    H125344   0.540   3.746  19.328 -1.3848  0.9360  1.0539
  383TIP3    H225345   0.539   3.890  19.279 -1.1812  0.2442 -1.0757
  384TIP3   OH225346   4.769   6.770  17.467  0.8307  0.2519 -0.1033
  384TIP3    H125347   4.678   6.801  17.465  0.9137  0.4883 -0.3097
  384TIP3    H225348   4.820   6.846  17.439  0.9584 -0.3945 -1.7031
  385TIP3   OH225349   3.141   2.130  17.446 -0.5989  0.7374  0.1195
  385TIP3    H125350   3.080   2.057  17.433  1.0903 -0.5371 -0.9098
  385TIP3    H225351   3.153   2.168  17.359  0.6756  0.4614  0.1567
  386TIP3   OH225352   7.037   3.448  18.337  0.3115  0.4423 -0.0265
  386TIP3    H125353   7.021   3.368  18.288 -0.3968 -0.7224  1.9991
  386TIP3    H225354   7.074   3.509  18.272  0.2867 -1.2831 -1.7499
  387TIP3   OH225355   0.787   6.645  18.511 -0.0776 -0.0125  0.0120
  387TIP3    H125356   0.749   6.705  18.575 -0.7774  0.6051 -0.9594
  387TIP3    H225357   0.747   6.560  18.532 -0.7325  0.2962  0.0465
  388TIP3   OH225358   2.744   5.976  18.392  0.0004 -0.0714  0.6131
  388TIP3    H125359   2.668   6.018  18.352  1.5515  0.3613 -2.1404
  388TIP3    H225360   2.779   6.041  18.453 -0.2173  0.8449 -0.2175
  389TIP3   OH225361   3.923   6.723  17.809 -0.3948  0.2472  0.0070
  389TIP3    H125362   4.010   6.717  17.847 -0.1431  0.2810 -0.5520
  389TIP3    H225363   3.930   6.676  17.725 -1.0468 -0.2059  0.1930
  390TIP3   OH225364   6.212   3.061  17.688 -0.0563  0.4779 -0.0416
  390TIP3    H125365   6.235   2.972  17.714  0.3344  0.7606  0.5740
  390TIP3    H225366   6.119   3.068  17.710 -0.1288  0.1733 -0.2352
  391TIP3   OH225367   2.738   5.878  19.056 -0.1737 -0.0041 -0.2129
  391TIP3    H125368   2.757   5.910  18.968  1.0956  0.4543  0.2084
  391TIP3    H225369   2.696   5.793  19.042  2.1093 -1.0462 -1.2449
  392TIP3   OH225370   3.589   1.852  19.309 -0.1422 -0.1418 -0.0748
  392TIP3    H125371   3.535   1.824  19.235  0.6384 -1.6930 -0.0854
  392TIP3    H225372   3.561   1.796  19.382  2.3783 -2.0182 -0.4338
  393TIP3   OH225373   4.826   5.993  17.320  0.0010 -0.1117 -0.3849
  393TIP3    H125374   4.854   6.065  17.264 -0.0024  0.2331  0.0472
  393TIP3    H225375   4.857   6.017  17.408 -2.2182  0.6535  0.2728
  394TIP3   OH225376   1.127   3.425  17.903 -0.4473  0.0918  0.4124
  394TIP3    H125377   1.056   3.362  17.894 -0.2591 -0.0640  0.0054
  394TIP3    H225378   1.195   3.393  17.844  0.1823 -0.0736  1.2134
  395TIP3   OH225379   2.808   5.382  19.386  0.4086  0.2158  0.2066
  395TIP3    H125380   2.887   5.401  19.437  0.2922  0.1017  0.4287
  395TIP3    H225381   2.834   5.310  19.329  0.8798  1.0831 -0.7015
  396TIP3   OH225382   7.342   4.227  18.558 -0.6398  0.5673 -0.1461
  396TIP3    H125383   7.280   4.157  18.579  0.6682 -0.2855  1.0758
  396TIP3    H225384   7.294   4.308  18.577 -1.9641 -0.0024 -0.9681
  397TIP3   OH225385   0.604   5.083  19.811  0.7603  0.1967 -0.2707
  397TIP3    H125386   0.626   5.075  19.904  0.3967 -1.7044 -0.3026
  397TIP3    H225387   0.654   5.013  19.769 -1.0170 -0.6362 -1.1071
  398TIP3   OH225388   3.146   0.979  17.479 -0.3514 -0.1199 -0.4771
  398TIP3    H125389   3.052   0.986  17.493 -0.3391  1.2255 -0.8814
  398TIP3    H225390   3.158   1.004  17.387  0.5750  1.8792  0.1173
  399TIP3   OH225391   6.445   6.225  17.062 -0.8708 -0.6729  0.4366
  399TIP3    H125392   6.378   6.289  17.039 -0.1808  0.3104  1.0636
  399TIP3    H225393   6.522   6.252  17.012  0.1297  0.4500  2.4599
  400TIP3   OH225394   5.877   5.405  17.459  0.1396  0.2665 -0.1969
  400TIP3    H125395   5.831   5.338  17.409  1.9092 -0.2782 -1.2023
  400TIP3    H225396   5.866   5.485  17.408  2.8518 -0.4999 -2.2170
  401TIP3   OH225397   7.625   4.717  18.272 -0.2792  0.0197 -0.1280
  401TIP3    H125398   7.596   4.741  18.360 -0.3663 -0.9411  0.1210
  401TIP3    H225399   7.643   4.801  18.229 -0.0437  0.5000  0.8688
  402TIP3   OH225400   7.506   2.826  19.164  0.5480  0.5941 -0.3599
  402TIP3    H125401   7.601   2.819  19.173  0.4762  1.6418  1.9859
  402TIP3    H225402   7.491   2.915  19.132  0.3320  1.0489  0.9470
  403TIP3   OH225403   0.455   0.699  17.140  0.1454  0.2880 -0.0841
  403TIP3    H125404   0.412   0.739  17.064 -1.5622 -0.3864  0.4768
  403TIP3    H225405   0.530   0.652  17.104 -2.0412 -2.1839 -1.8169
  404TIP3   OH225406   0.376   7.560  18.545  0.2309 -0.7268 -0.6527
  404TIP3    H125407   0.421   7.644  18.560 -0.3623 -0.3118 -1.1338
  404TIP3    H225408   0.442   7.494  18.562  0.8197 -0.1428 -0.6291
  405TIP3   OH225409   6.476   6.022  17.228 -0.1141  0.3696  0.0439
  405TIP3    H125410   6.462   6.099  17.172 -1.1915 -0.4112 -0.8211
  405TIP3    H225411   6.447   5.948  17.174  1.1523 -0.6828  0.7514
  406TIP3   OH225412   3.830   0.297  19.345 -0.0830 -0.2263 -0.2034
  406TIP3    H125413   3.837   0.256  19.258 -1.9235 -1.4861  0.1785
  406TIP3    H225414   3.800   0.227  19.402  3.3939 -0.0922  2.0767
  407TIP3   OH225415   1.918   5.657  17.188  0.5131 -0.2160  0.3095
  407TIP3    H125416   1.868   5.602  17.248  0.2930 -0.2475  0.0999
  407TIP3    H225417   1.883   5.745  17.201  1.2131 -0.0246  1.0119
  408TIP3   OH225418   7.500   7.279  17.714 -0.0939  0.1672 -0.0957
  408TIP3    H125419   7.434   7.311  17.775 -0.2212 -0.3075  0.0195
  408TIP3    H225420   7.573   7.251  17.770 -0.0230  0.1695 -0.1873
  409TIP3   OH225421   5.081   2.052  19.511 -0.0671 -0.1417 -0.3978
  409TIP3    H125422   5.002   2.003  19.486  0.4944 -1.6222  0.5831
  409TIP3    H225423   5.153   1.992  19.492  0.6959  0.5431  0.2820
  410TIP3   OH225424   3.233   1.165  18.037  0.1497  0.1374 -0.1487
  410TIP3    H125425   3.177   1.168  17.959  1.5895 -0.2091 -1.2390
  410TIP3    H225426   3.311   1.215  18.013  1.5597 -1.7497  0.2556
  411TIP3   OH225427   5.635   1.020  18.174 -0.3801 -0.1713  0.3651
  411TIP3    H125428   5.589   0.982  18.099 -0.8514 -1.9853  1.5199
  411TIP3    H225429   5.638   0.950  18.239  0.6257  1.1285  1.8004
  412TIP3   OH225430   3.070   1.022  16.981 -0.1721  0.1776  0.3809
  412TIP3    H125431   3.156   0.981  16.978 -1.9754 -4.1625 -0.0251
  412TIP3    H225432   3.052   1.031  17.075 -0.6776 -2.6531  0.6467
  413TIP3   OH225433   1.093   1.291  18.914 -0.1136  0.0754  0.0120
  413TIP3    H125434   1.073   1.224  18.848  0.0189  0.5337 -0.5039
  413TIP3    H225435   1.183   1.318  18.895 -0.0088  0.0776  0.5013
  414TIP3   OH225436   3.688   0.116  17.609  0.0477  0.2736 -0.2848
  414TIP3    H125437   3.662   0.188  17.666 -0.5418 -0.1744  0.0174
  414TIP3    H225438   3.696   0.040  17.667 -0.2095 -0.1095 -0.7391
  415TIP3   OH225439   1.043   4.118  17.631 -0.1053  0.5574  0.7916
  415TIP3    H125440   1.112   4.091  17.690 -0.3918  2.5478  2.1209
  415TIP3    H225441   1.068   4.206  17.602 -0.9327  0.3896 -0.5443
  416TIP3   OH225442   6.014   6.970  17.120 -0.3027 -0.2869 -0.4186
  416TIP3    H125443   5.937   7.009  17.078  0.2228  0.1090 -1.0308
  416TIP3    H225444   6.032   6.891  17.068 -1.5524 -1.5726  1.0001
  417TIP3   OH225445   6.466   1.601  16.732 -0.2908 -0.0758  0.4378
  417TIP3    H125446   6.500   1.690  16.741  0.2579 -0.0520 -1.4826
  417TIP3    H225447   6.451   1.590  16.639 -2.6735 -1.1918  0.8738
  418TIP3   OH225448   4.034   2.125  17.865  0.4004 -0.0300 -0.0957
  418TIP3    H125449   3.996   2.038  17.863 -0.5705  0.3628  0.4720
  418TIP3    H225450   4.082   2.129  17.948  0.7505 -0.1430 -0.2902
  419TIP3   OH225451   1.453   2.398  17.405 -0.3213 -0.0543  0.0010
  419TIP3    H125452   1.408   2.394  17.490  0.5859 -0.2006  0.4832
  419TIP3    H225453   1.460   2.492  17.387  2.5101  0.1950  1.7696
  420TIP3   OH225454   2.722   4.261  17.469  0.2780  0.0254  0.3280
  420TIP3    H125455   2.748   4.231  17.556 -0.9922  1.5711  1.2992
  420TIP3    H225456   2.634   4.296  17.481 -0.1447 -0.2081 -1.7084
  421TIP3   OH225457   2.068   1.366  17.126 -0.0990  0.5196 -0.3313
  421TIP3    H125458   2.036   1.276  17.126 -0.7472  0.7304  1.0130
  421TIP3    H225459   2.018   1.409  17.056 -0.4753  0.0635 -0.3468
  422TIP3   OH225460   0.182   2.529  17.910  0.1242 -0.1892  0.1959
  422TIP3    H125461   0.118   2.598  17.890 -0.7640 -1.4570 -1.6401
  422TIP3    H225462   0.223   2.509  17.825  2.0252 -0.3425  1.1058
  423TIP3   OH225463   4.950   0.751  17.579 -0.3546 -0.1277  0.1669
  423TIP3    H125464   4.995   0.772  17.661 -0.2739  1.4706 -0.2475
  423TIP3    H225465   5.017   0.715  17.522  0.1843  1.2305 -0.0782
  424TIP3   OH225466   6.349   7.171  18.215  0.5492 -0.4081  0.1306
  424TIP3    H125467   6.379   7.082  18.232  1.0209 -0.3998 -0.6161
  424TIP3    H225468   6.281   7.163  18.149 -0.2798 -0.3138  0.9498
  425TIP3   OH225469   1.278   1.256  16.722 -0.2787  0.8896  0.2783
  425TIP3    H125470   1.320   1.326  16.771  1.1080  0.6446 -0.5095
  425TIP3    H225471   1.227   1.208  16.787  0.7541  1.1527  1.3033
  426TIP3   OH225472   2.660   6.417  19.636  0.0405 -0.2786 -0.0370
  426TIP3    H125473   2.735   6.474  19.623 -1.3090  1.7347  0.5182
  426TIP3    H225474   2.694   6.329  19.623  2.4256  0.5736 -0.0238
  427TIP3   OH225475   1.527   5.671  19.589 -0.4257  0.1233  0.0942
  427TIP3    H125476   1.510   5.636  19.502  0.7421 -0.1200 -0.0453
  427TIP3    H225477   1.517   5.596  19.648 -1.9553  0.4343  0.2916
  428TIP3   OH225478   0.864   6.276  18.477  0.4010  0.2026 -0.1234
  428TIP3    H125479   0.782   6.324  18.489 -0.1387 -0.5329 -0.7919
  428TIP3    H225480   0.908   6.320  18.404 -0.5252 -0.8487 -1.3570
  429TIP3   OH225481   4.693   4.754  18.133 -0.0055 -0.2237 -0.0331
  429TIP3    H125482   4.715   4.758  18.040  2.6471  0.2846  0.5247
  429TIP3    H225483   4.730   4.671  18.163 -2.0422 -1.0432  0.3517
  430TIP3   OH225484   0.277   5.851  17.180 -0.1354  0.1244  0.2722
  430TIP3    H125485   0.348   5.820  17.237 -0.2800  1.0428  0.9802
  430TIP3    H225486   0.239   5.925  17.227 -0.4609  0.7214 -0.8849
  431TIP3   OH225487   2.027   2.027  16.910 -0.5192  0.0444 -0.4331
  431TIP3    H125488   2.119   2.018  16.935  0.0059 -0.0387 -2.1952
  431TIP3    H225489   2.019   2.117  16.880 -1.3980  0.4801  1.0339
  432TIP3   OH225490   2.280   3.705  18.424  0.5252  0.5582  0.9698
  432TIP3    H125491   2.304   3.714  18.332 -0.2892 -0.1316  0.6779
  432TIP3    H225492   2.309   3.618  18.449  0.6222  0.6906  1.3275
  433TIP3   OH225493   6.885   0.885  19.169  0.7594  0.4064 -0.3036
  433TIP3    H125494   6.969   0.868  19.212  0.1684 -0.7394  0.4281
  433TIP3    H225495   6.882   0.822  19.097 -0.5724 -1.4167  1.2367
  434TIP3   OH225496   3.265   2.614  17.180 -0.1091 -0.1499 -1.1023
  434TIP3    H125497   3.305   2.543  17.129 -0.5631 -0.3767 -1.1363
  434TIP3    H225498   3.206   2.658  17.118  0.7111  0.7208 -1.2998
  435TIP3   OH225499   3.405   6.312  17.387  0.6412 -0.2385 -0.1474
  435TIP3    H125500   3.311   6.302  17.397  0.5343 -0.5633 -1.3015
  435TIP3    H225501   3.440   6.225  17.408  0.4205 -0.9095 -2.3291
  436TIP3   OH225502   6.300   2.349  16.830  0.1385  0.2858  0.2439
  436TIP3    H125503   6.393   2.339  16.853 -0.0764  1.7582  2.0511
  436TIP3    H225504   6.298   2.349  16.735  2.1020  0.8451  0.1607
  437TIP3   OH225505   2.782   0.619  18.857 -0.1710 -0.1852 -0.2687
  437TIP3    H125506   2.858   0.590  18.906  0.1274  0.3112 -0.4210
  437TIP3    H225507   2.804   0.601  18.765  0.0409  0.5387 -0.3697
  438TIP3   OH225508   7.495   3.020  18.198 -0.2079 -0.3111 -0.0999
  438TIP3    H125509   7.485   2.931  18.165 -2.7077 -0.9103  1.9066
  438TIP3    H225510   7.428   3.071  18.153 -0.4484 -0.0473  0.5340
  439TIP3   OH225511   1.538   4.067  19.678 -0.2294  0.1878 -0.8067
  439TIP3    H125512   1.582   3.989  19.643  3.0659  1.2189  0.5858
  439TIP3    H225513   1.514   4.042  19.768  0.2900  0.5373 -0.5618
  440TIP3   OH225514   1.597   0.836  19.191 -0.2157  0.0014 -0.3621
  440TIP3    H125515   1.527   0.894  19.219  1.3096  1.9252 -0.3140
  440TIP3    H225516   1.611   0.859  19.099 -0.7169 -1.5304 -0.8441
  441TIP3   OH225517   4.711   3.089  17.752  0.0249  0.1909 -0.5284
  441TIP3    H125518   4.786   3.102  17.694 -0.2704  1.1286 -0.7252
  441TIP3    H225519   4.638   3.129  17.705 -0.0227  1.9278  0.9066
  442TIP3   OH225520   5.355   4.654  19.177 -0.5402  0.3393  0.0937
  442TIP3    H125521   5.360   4.748  19.190  0.6352  0.0921  1.8878
  442TIP3    H225522   5.265   4.638  19.150 -0.9127  1.9166  0.3008
  443TIP3   OH225523   5.527   0.383  19.615 -0.4892 -0.6794 -0.0540
  443TIP3    H125524   5.600   0.376  19.554  0.1871  1.5376  0.4100
  443TIP3    H225525   5.462   0.320  19.583  0.7948 -1.2591 -1.6387
  444TIP3   OH225526   5.972   4.956  18.669  0.2444 -0.2297 -0.2630
  444TIP3    H125527   5.910   4.898  18.625 -0.9328  2.6850 -2.9120
  444TIP3    H225528   6.056   4.938  18.627  0.4551 -1.6342  0.7030
  445TIP3   OH225529   0.919   4.085  17.294 -0.2027 -0.2774  0.0629
  445TIP3    H125530   0.903   4.007  17.347  0.7109 -0.3610  0.2385
  445TIP3    H225531   0.917   4.053  17.203 -1.7075 -0.1442  0.0200
  446TIP3   OH225532   7.131   4.590  19.466 -0.3881  0.1201 -0.2008
  446TIP3    H125533   7.196   4.638  19.518  1.4445 -0.3240 -1.9319
  446TIP3    H225534   7.176   4.509  19.440 -1.7085 -0.3059 -1.3088
  447TIP3   OH225535   6.008   6.591  19.068 -0.6181  0.4132  0.3073
  447TIP3    H125536   6.043   6.669  19.024  0.8410 -0.0987  0.4911
  447TIP3    H225537   6.055   6.587  19.151  1.3710 -2.0579 -0.7785
  448TIP3   OH225538   5.862   1.765  17.543  0.0524  0.1140  0.0423
  448TIP3    H125539   5.815   1.698  17.593 -0.6914  0.8615  0.3632
  448TIP3    H225540   5.889   1.720  17.463 -1.5880 -0.2320 -0.3531
  449TIP3   OH225541   4.724   0.554  18.441  0.5120  0.5012  0.1341
  449TIP3    H125542   4.643   0.519  18.479  1.5259 -1.4046  0.6925
  449TIP3    H225543   4.744   0.495  18.369  0.0407  2.5306 -1.7482
  450TIP3   OH225544   1.742   5.734  17.915  0.0512 -0.0019 -0.3803
  450TIP3    H125545   1.777   5.769  17.997 -1.1835 -2.5387  1.3672
  450TIP3    H225546   1.809   5.672  17.886 -1.1818 -2.0972  0.9779
  451TIP3   OH225547   1.549   6.626  19.231  0.6080  0.2554  0.2773
  451TIP3    H125548   1.534   6.534  19.206 -0.8641  0.2430  1.1046
  451TIP3    H225549   1.578   6.668  19.150  0.4921 -0.7698 -0.3145
  452TIP3   OH225550   6.081   7.522  17.562  0.3393  0.3439  0.7293
  452TIP3    H125551   6.068   7.504  17.469 -0.3704 -1.7854  1.1685
  452TIP3    H225552   5.997   7.501  17.602  0.6607  1.1670  1.8778
  453TIP3   OH225553   5.306   1.371  18.356  0.0819 -0.5263  0.1638
  453TIP3    H125554   5.245   1.379  18.283  0.5114 -0.7150 -0.2182
  453TIP3    H225555   5.260   1.316  18.419 -0.5602  0.1785  0.3303
  454TIP3   OH225556   7.295   3.610  19.520 -0.3443  0.1878 -0.1754
  454TIP3    H125557   7.308   3.705  19.518 -0.1898  0.1645 -0.2912
  454TIP3    H225558   7.231   3.596  19.591  1.3538  0.1763  1.4271
  455TIP3   OH225559   5.855   3.175  19.058  0.6595  0.3169  0.5316
  455TIP3    H125560   5.798   3.159  19.134  0.4826 -1.0862  0.1254
  455TIP3    H225561   5.941   3.146  19.086  1.1477  2.0420  0.9929
  456TIP3   OH225562   5.348   6.561  16.544  0.2298  0.2917  0.0229
  456TIP3    H125563   5.331   6.581  16.452  1.8676  0.6499 -0.2301
  456TIP3    H225564   5.275   6.601  16.591 -0.7535 -0.0915 -1.1227
  457TIP3   OH225565   0.464   4.586  16.773 -0.9514  0.3944  0.8938
  457TIP3    H125566   0.477   4.493  16.789 -0.1926  0.3430  0.0184
  457TIP3    H225567   0.522   4.607  16.701 -2.4759  1.1470 -0.1805
  458TIP3   OH225568   7.541   3.984  18.882 -0.1349  0.5207  0.4589
  458TIP3    H125569   7.564   3.958  18.971  0.0244  0.8818  0.5229
  458TIP3    H225570   7.615   4.035  18.851  1.2684 -2.2246 -1.0574
  459TIP3   OH225571   4.476   6.189  18.062  0.1828  0.5071 -0.2685
  459TIP3    H125572   4.553   6.220  18.014 -0.7499  0.3817 -1.9029
  459TIP3    H225573   4.463   6.254  18.131  1.3293  0.9075 -0.4104
  460TIP3   OH225574   3.601   0.343  18.360 -0.0309  0.5886  0.0152
  460TIP3    H125575   3.619   0.277  18.293  1.0470  0.3135  0.5441
  460TIP3    H225576   3.680   0.397  18.361  0.4133 -0.0338  1.7493
  461TIP3   OH225577   3.807   0.848  19.447 -0.1575  0.6564 -0.3156
  461TIP3    H125578   3.819   0.755  19.427 -1.1913  1.2242 -4.5234
  461TIP3    H225579   3.743   0.850  19.518 -1.2602 -1.8900 -1.1308
  462TIP3   OH225580   5.668   0.040  19.286 -0.0930 -0.0045 -0.2991
  462TIP3    H125581   5.718  -0.024  19.236  0.4463 -0.5236  0.8793
  462TIP3    H225582   5.606   0.077  19.222  1.0625 -0.0994 -1.5202
  463TIP3   OH225583   4.673   7.616  17.242 -0.1619 -0.3310  0.1444
  463TIP3    H125584   4.601   7.554  17.228  0.4647 -0.7684 -1.2658
  463TIP3    H225585   4.633   7.702  17.232 -0.2470 -0.5760 -2.2794
  464TIP3   OH225586   6.489   7.471  19.389  0.8034  0.1573  0.2943
  464TIP3    H125587   6.490   7.463  19.484 -1.3869 -2.3729  0.2454
  464TIP3    H225588   6.567   7.423  19.360  0.3997 -0.8588  0.8124
  465TIP3   OH225589   0.559   3.402  17.572 -0.0830  0.1181  0.1419
  465TIP3    H125590   0.646   3.389  17.609  0.5016 -0.0652 -1.2174
  465TIP3    H225591   0.499   3.393  17.646  1.1519  2.3590  1.5180
  466TIP3   OH225592   1.273   1.481  17.475  0.2371  0.0542  0.1456
  466TIP3    H125593   1.285   1.388  17.458 -2.4025 -0.4385  0.5004
  466TIP3    H225594   1.273   1.522  17.389 -0.5137 -0.5877 -0.1680
  467TIP3   OH225595   5.688   6.662  18.526 -0.0009 -0.2233  0.0551
  467TIP3    H125596   5.670   6.583  18.474 -1.7335  0.7264 -0.8516
  467TIP3    H225597   5.626   6.727  18.494  1.2598  1.4796  0.9144
  468TIP3   OH225598   6.308   0.302  18.648 -0.7460 -0.1858  0.2399
  468TIP3    H125599   6.322   0.396  18.643 -1.2316 -0.1828 -1.7293
  468TIP3    H225600   6.229   0.291  18.700 -0.7350  0.4822  0.3978
  469TIP3   OH225601   4.555   7.258  18.261  0.3179  0.8162 -0.5641
  469TIP3    H125602   4.462   7.278  18.269  0.4081  1.1554 -0.3588
  469TIP3    H225603   4.569   7.186  18.323 -0.1420 -0.3526 -1.7765
  470TIP3   OH225604   4.661   2.946  18.009  0.4749 -0.3677 -0.0659
  470TIP3    H125605   4.674   2.993  17.927 -3.7672  0.0832 -0.7356
  470TIP3    H225606   4.663   2.854  17.985 -2.8311 -0.2420 -1.3081
  471TIP3   OH225607   6.619   1.429  17.980 -0.0210 -0.8129  0.0340
  471TIP3    H125608   6.527   1.410  17.999 -0.1951  0.0191  0.0325
  471TIP3    H225609   6.663   1.418  18.065 -0.6100  1.6906  0.7547
  472TIP3   OH225610   4.639   0.480  19.409 -0.1265  0.4230 -0.0351
  472TIP3    H125611   4.679   0.465  19.323 -0.2414  1.5578 -0.3040
  472TIP3    H225612   4.706   0.454  19.472  0.7426  1.4779 -0.4823
  473TIP3   OH225613   6.945   2.476  17.467  0.1969 -0.1073  0.1610
  473TIP3    H125614   6.936   2.554  17.523 -1.8181 -1.0023  1.2183
  473TIP3    H225615   7.037   2.452  17.475  0.1548  0.2127  2.6328
  474TIP3   OH225616   4.156   5.748  17.228 -0.0234 -0.8033 -0.1652
  474TIP3    H125617   4.197   5.768  17.312 -0.5820 -0.4929  0.0401
  474TIP3    H225618   4.070   5.789  17.234  1.0897  2.1426 -2.1388
  475TIP3   OH225619   3.145   5.377  19.221  0.0375  0.1833 -0.5676
  475TIP3    H125620   3.178   5.288  19.229 -0.6883 -0.1128 -0.8631
  475TIP3    H225621   3.076   5.372  19.154 -0.1152  0.9330 -0.4781
  476TIP3   OH225622   1.758   7.102  17.968 -0.0133 -0.1590  0.2086
  476TIP3    H125623   1.781   7.180  17.917 -1.2321  0.5427  0.7037
  476TIP3    H225624   1.756   7.031  17.903  0.0531  0.4197 -0.4420
  477TIP3   OH225625   7.048   5.178  19.574 -0.0120 -0.1166 -0.1014
  477TIP3    H125626   7.033   5.243  19.506  0.8571  0.5095  0.2917
  477TIP3    H225627   7.007   5.215  19.652  0.8202  0.1626  0.2178
  478TIP3   OH225628   4.765   6.103  16.516 -0.4368 -0.5217  0.2738
  478TIP3    H125629   4.796   6.076  16.429  1.2974 -1.2973  1.0816
  478TIP3    H225630   4.716   6.028  16.549  2.0169 -1.7467  1.3870
  479TIP3   OH225631   2.573   0.339  19.208 -0.1008  0.4021  0.1067
  479TIP3    H125632   2.601   0.331  19.299 -1.0176  1.5829  0.5223
  479TIP3    H225633   2.504   0.406  19.210 -0.8690 -0.2897 -1.2928
  480TIP3   OH225634   3.585   7.098  17.186  0.7419 -0.3600  0.1022
  480TIP3    H125635   3.562   7.078  17.095 -0.0005  1.9995 -0.3020
  480TIP3    H225636   3.598   7.193  17.187  0.4070 -0.2691  2.5246
  481TIP3   OH225637   5.091   4.024  19.241  0.2049 -0.4573  0.2736
  481TIP3    H125638   5.111   3.931  19.237  0.5267 -0.3445 -1.2826
  481TIP3    H225639   5.172   4.068  19.215 -0.5815  0.1608 -1.2690
  482TIP3   OH225640   3.370   6.415  18.644 -0.7090 -0.0307  0.0783
  482TIP3    H125641   3.423   6.346  18.604 -0.7771 -0.1520  0.1990
  482TIP3    H225642   3.360   6.388  18.735 -2.4125 -0.8811 -0.3225
  483TIP3   OH225643   3.411   3.300  17.529  0.0323  0.4254  0.3387
  483TIP3    H125644   3.330   3.350  17.532  0.1623  0.6323  0.4559
  483TIP3    H225645   3.443   3.309  17.439 -0.1327  0.2486  0.2621
  484TIP3   OH225646   0.369   2.764  19.123  0.4264  0.0967 -0.0959
  484TIP3    H125647   0.342   2.695  19.183  0.9503 -1.9021 -2.0475
  484TIP3    H225648   0.449   2.731  19.082 -0.6237  0.7361 -2.8565
  485TIP3   OH225649   1.185   6.943  17.931 -0.1726 -0.3203  0.2503
  485TIP3    H125650   1.135   6.918  18.009  0.8590  1.6752  1.6452
  485TIP3    H225651   1.219   7.030  17.951  1.7944 -0.5660 -1.6545
  486TIP3   OH225652   6.997   4.572  18.530 -0.1081 -0.2138 -0.1820
  486TIP3    H125653   6.983   4.591  18.622  0.5066  0.8568 -0.2924
  486TIP3    H225654   7.092   4.556  18.524  0.5246  3.0599 -1.1265
  487TIP3   OH225655   2.359   5.072  18.018  0.4693 -0.1611 -0.4908
  487TIP3    H125656   2.385   5.079  17.926  0.9212  0.7348 -0.3020
  487TIP3    H225657   2.268   5.043  18.015  0.0165  1.2393 -1.2601
  488TIP3   OH225658   3.181   0.056  19.284  0.4556  0.2458  0.1587
  488TIP3    H125659   3.202   0.149  19.275 -1.8846  1.0619  2.2036
  488TIP3    H225660   3.127   0.051  19.362 -0.0877 -2.7719 -0.3050
  489TIP3   OH225661   0.325   0.196  17.035  0.2162 -0.1662  0.3485
  489TIP3    H125662   0.286   0.282  17.046 -1.2005 -0.8076  0.5357
  489TIP3    H225663   0.323   0.157  17.123  2.4294  0.2227  0.6278
  490TIP3   OH225664   6.689   0.639  16.855  0.1029  0.5834  0.7257
  490TIP3    H125665   6.749   0.707  16.885  2.5752  0.1117 -2.5124
  490TIP3    H225666   6.617   0.686  16.814  1.4734  1.3788 -0.9136
  491TIP3   OH225667   1.495   7.503  17.031  0.3244 -0.3453 -0.0389
  491TIP3    H125668   1.543   7.584  17.047 -0.9010  0.4897 -0.4351
  491TIP3    H225669   1.511   7.483  16.939  0.7855 -0.6603  0.1096
  492TIP3   OH225670   6.005   2.007  19.263  0.0439  0.3772 -0.4534
  492TIP3    H125671   5.960   1.928  19.234  0.8378  0.1703 -1.1478
  492TIP3    H225672   5.935   2.067  19.288 -0.5673 -0.5094 -0.0005
  493TIP3   OH225673   2.543   1.266  18.354  0.2362  0.5855 -0.1221
  493TIP3    H125674   2.597   1.302  18.425  0.8542 -0.7099  0.0934
  493TIP3    H225675   2.490   1.199  18.396 -1.9841  2.1693 -0.2303
  494TIP3   OH225676   4.221   2.714  18.336 -0.3118  0.2721 -0.3606
  494TIP3    H125677   4.260   2.748  18.256 -2.1409  0.1697 -1.3583
  494TIP3    H225678   4.289   2.724  18.402  0.0660  3.8247 -1.0483
  495TIP3   OH225679   4.602   1.624  17.583 -0.0581  0.3702  0.5054
  495TIP3    H125680   4.672   1.564  17.610 -0.6719 -0.5849  0.0372
  495TIP3    H225681   4.646   1.709  17.574  1.3766 -0.4616 -1.1430
  496TIP3   OH225682   5.537   3.339  16.445 -0.3122 -0.7359  0.2032
  496TIP3    H125683   5.590   3.265  16.474 -0.2257 -0.1329  1.6448
  496TIP3    H225684   5.518   3.320  16.353  0.0252 -2.3465  0.4427
  497TIP3   OH225685   2.353   4.968  19.133  0.7355  0.4155 -0.3021
  497TIP3    H125686   2.262   4.945  19.148  0.6676  1.4632  0.9987
  497TIP3    H225687   2.398   4.884  19.123 -0.6206 -0.0929 -2.7552
  498TIP3   OH225688   4.862   0.933  18.174 -0.2589 -0.3166 -0.9365
  498TIP3    H125689   4.883   0.985  18.251  0.2365 -1.0194 -0.5921
  498TIP3    H225690   4.781   0.973  18.140 -0.5648 -0.0875  0.0195
  499TIP3   OH225691   7.610   6.068  17.752 -0.1262 -0.0649 -0.6945
  499TIP3    H125692   7.562   6.036  17.675 -0.6411 -0.5722 -0.1697
  499TIP3    H225693   7.595   6.002  17.819  0.5283  0.2518 -0.2278
  500TIP3   OH225694   2.920   1.367  18.923  0.4192 -0.0947  0.2275
  500TIP3    H125695   2.965   1.382  18.840 -0.8732  0.8341 -0.3369
  500TIP3    H225696   2.953   1.436  18.981  0.2273  0.1647  0.0281
  501TIP3   OH225697   3.314   4.916  18.420  0.0182  0.0952  0.0251
  501TIP3    H125698   3.309   4.821  18.429  1.4163 -0.1005 -0.9853
  501TIP3    H225699   3.314   4.949  18.510 -1.0327 -0.8028  0.3815
  502TIP3   OH225700   5.564   6.034  18.946  0.1363 -0.2781 -0.0433
  502TIP3    H125701   5.485   6.057  18.898 -0.5146  0.3340  1.2550
  502TIP3    H225702   5.617   6.114  18.944  0.9963 -0.8575 -1.3852
  503TIP3   OH225703   2.527   6.415  17.873 -0.1607  0.5192  0.2761
  503TIP3    H125704   2.506   6.508  17.879 -0.9202  0.3515  0.3348
  503TIP3    H225705   2.503   6.391  17.783 -0.2834  0.3060  0.3653
  504TIP3   OH225706   1.719   6.088  18.206  0.1438 -0.2598 -0.4420
  504TIP3    H125707   1.802   6.049  18.179 -0.0956 -0.5680 -0.7440
  504TIP3    H225708   1.662   6.013  18.226  0.8747 -0.0695  2.7781
  505TIP3   OH225709   5.707   4.742  17.168 -0.1840  0.0600 -0.1840
  505TIP3    H125710   5.629   4.716  17.119  0.3841 -0.0823 -1.0256
  505TIP3    H225711   5.734   4.825  17.129  0.5555 -0.2977 -0.4588
  506TIP3   OH225712   6.296   5.499  19.127 -0.3518 -0.3848 -0.3573
  506TIP3    H125713   6.313   5.405  19.138  0.1518 -0.6355 -2.7239
  506TIP3    H225714   6.201   5.507  19.140 -0.1911 -0.9222  1.4082
  507TIP3   OH225715   5.447   2.523  18.776  0.0980  0.4986 -0.1958
  507TIP3    H125716   5.508   2.597  18.769  1.1801 -0.3182  0.4725
  507TIP3    H225717   5.364   2.564  18.803  0.7228  1.4406  0.3487
  508TIP3   OH225718   5.094   5.696  17.252 -0.1695  0.1753  0.6200
  508TIP3    H125719   5.085   5.625  17.189 -1.7550  0.0129  0.9995
  508TIP3    H225720   5.113   5.651  17.335  2.0076  0.3904  0.3068
  509TIP3   OH225721   1.100   5.128  18.605 -0.2386  0.5773 -0.4169
  509TIP3    H125722   1.060   5.084  18.680 -0.6137 -0.3170 -1.1167
  509TIP3    H225723   1.162   5.190  18.643  0.1779 -0.4376  0.6084
  510TIP3   OH225724   0.519   6.206  18.184  0.0829 -0.1757  0.0210
  510TIP3    H125725   0.492   6.218  18.274  0.4520  2.8874 -0.1816
  510TIP3    H225726   0.452   6.249  18.132  1.2175  0.4766 -0.9719
  511TIP3   OH225727   6.967   3.099  19.529  0.0174 -0.1746  0.2979
  511TIP3    H125728   7.014   3.034  19.581  0.3935  0.8565  1.2886
  511TIP3    H225729   6.880   3.061  19.516 -0.0805 -0.4912  1.6860
  512TIP3   OH225730   7.667   5.150  17.756  0.1145  0.2023 -0.1873
  512TIP3    H125731   7.599   5.153  17.824 -0.6250 -0.0676 -0.9041
  512TIP3    H225732   7.657   5.234  17.710  1.3320  0.8626  0.7096
  513TIP3   OH225733   6.330   1.323  17.979  0.3722 -0.8584  0.1260
  513TIP3    H125734   6.359   1.385  18.046  0.6648 -1.4323  0.5405
  513TIP3    H225735   6.237   1.308  17.998  0.5181 -1.2136  0.5589
  514TIP3   OH225736   5.311   1.079  18.199  0.5334  0.2653  0.1438
  514TIP3    H125737   5.369   1.047  18.268  1.9765 -1.7334 -1.8741
  514TIP3    H225738   5.223   1.058  18.231  1.1297 -0.2421  1.5460
  515TIP3   OH225739   3.135   5.577  17.834 -0.6538 -0.2351 -0.5089
  515TIP3    H125740   3.175   5.602  17.751 -0.6823 -1.0426 -0.7733
  515TIP3    H225741   3.053   5.535  17.810 -1.3925  0.8743  0.0109
  516TIP3   OH225742   3.958   3.102  18.295  0.3521  0.0413 -0.3031
  516TIP3    H125743   3.953   3.158  18.372 -0.9356 -1.2315  0.6096
  516TIP3    H225744   3.928   3.016  18.326  1.7092 -1.0271 -1.7594
  517TIP3   OH225745   3.072   0.012  18.240 -0.7620  0.4446 -0.5498
  517TIP3    H125746   3.128   0.071  18.190 -1.9220  0.0375 -2.4326
  517TIP3    H225747   3.117  -0.072  18.239 -0.1688  0.7328  0.2517
  518TIP3   OH225748   6.992   3.012  18.309 -0.3612 -0.3813  0.0107
  518TIP3    H125749   6.948   2.972  18.234 -1.1232 -0.3607  0.4412
  518TIP3    H225750   7.084   2.986  18.300  0.2230  2.0592 -2.6197
  519TIP3   OH225751   1.039   6.900  19.377  0.1173 -0.1195 -0.7055
  519TIP3    H125752   1.065   6.808  19.380  1.1167  0.1546 -0.2612
  519TIP3    H225753   0.973   6.905  19.309  0.1740 -1.1402 -0.8450
  520TIP3   OH225754   0.138   3.624  16.918 -0.0833  0.0415  0.3503
  520TIP3    H125755   0.233   3.622  16.926 -0.1695  0.7906  1.7630
  520TIP3    H225756   0.112   3.532  16.918  0.6469 -0.1744 -0.2771
  521TIP3   OH225757   5.689   3.117  19.292 -0.6502  0.2719 -0.2673
  521TIP3    H125758   5.737   3.070  19.360 -2.5760 -1.0834  0.2133
  521TIP3    H225759   5.627   3.053  19.257 -1.2009  1.5708 -1.7957
  522TIP3   OH225760   1.034   3.786  19.151  0.3693  0.6329 -0.1054
  522TIP3    H125761   1.018   3.703  19.106 -0.0404  0.1917  0.8335
  522TIP3    H225762   1.118   3.817  19.116  0.3766 -0.0129 -0.6855
  523TIP3   OH225763   7.423   7.409  17.975 -0.1398 -0.2528  0.1783
  523TIP3    H125764   7.390   7.495  17.949  0.7131  0.0694  0.1446
  523TIP3    H225765   7.360   7.378  18.040  0.5662  1.2346  1.6257
  524TIP3   OH225766   2.733   7.398  19.397 -0.2441  0.0666  0.6805
  524TIP3    H125767   2.731   7.303  19.395 -0.8325  0.0798 -1.5799
  524TIP3    H225768   2.775   7.424  19.315 -0.9358  1.7494  0.8027
  525TIP3   OH225769   1.249   4.311  17.926  0.0608  0.3446 -0.3559
  525TIP3    H125770   1.225   4.356  17.846 -1.7539  1.2419  0.6258
  525TIP3    H225771   1.234   4.218  17.907 -0.1153  0.5236 -1.1204
  526TIP3   OH225772   2.952   5.177  17.801  0.0530 -0.0669  0.2625
  526TIP3    H125773   2.924   5.086  17.812  2.2429 -0.6036  2.1028
  526TIP3    H225774   3.026   5.187  17.860  1.9786  2.0087 -2.2483
  527TIP3   OH225775   0.348   3.769  17.279 -0.0196  0.1752  0.4620
  527TIP3    H125776   0.427   3.720  17.256 -0.6041 -1.1000  1.0652
  527TIP3    H225777   0.370   3.814  17.361 -0.0677 -0.5817  0.8986
  528TIP3   OH225778   6.968   4.235  17.344 -0.7810 -0.4041  0.1438
  528TIP3    H125779   6.930   4.264  17.262 -1.7789  1.4187  1.1792
  528TIP3    H225780   6.997   4.316  17.387  1.1009 -1.4341  0.9356
  529TIP3   OH225781   1.445   5.252  18.480  0.5881  0.5276 -0.1408
  529TIP3    H125782   1.399   5.325  18.520 -0.0851  0.8916 -1.5089
  529TIP3    H225783   1.468   5.283  18.392  0.0115 -0.9812 -0.8732
  530TIP3   OH225784   1.468   3.091  16.706 -0.4322  0.4421  0.2552
  530TIP3    H125785   1.453   3.141  16.625 -0.8718 -0.9509 -0.5479
  530TIP3    H225786   1.554   3.052  16.696  0.8819  2.6905  1.8208
  531TIP3   OH225787   0.045   4.118  16.728 -0.0720  0.2090 -0.5290
  531TIP3    H125788   0.062   4.028  16.754  0.5914 -0.0347 -1.7644
  531TIP3    H225789  -0.037   4.113  16.679 -1.5566  0.7333  1.7378
  532TIP3   OH225790   5.302   2.173  17.996 -0.2098  0.0970 -0.3014
  532TIP3    H125791   5.209   2.151  17.996  0.3634 -3.0355 -2.7933
  532TIP3    H225792   5.318   2.208  17.908  0.9346  0.9357  0.2229
  533TIP3   OH225793   0.012   0.640  17.754  0.0041 -0.0116 -0.0301
  533TIP3    H125794   0.025   0.665  17.662 -1.2764 -0.0924 -0.2574
  533TIP3    H225795  -0.072   0.594  17.754 -2.4638  3.9094  1.8006
  534TIP3   OH225796   1.363   0.131  19.047 -0.4426  0.2445  0.8201
  534TIP3    H125797   1.333   0.041  19.059  0.9394 -0.2030  1.1417
  534TIP3    H225798   1.292   0.185  19.081 -0.7686 -0.7618  1.7944
  535TIP3   OH225799   2.763   1.361  17.675  0.4894  0.1323 -0.8745
  535TIP3    H125800   2.787   1.288  17.733 -0.2561  1.4765  1.2604
  535TIP3    H225801   2.832   1.362  17.609  0.4777 -2.5201 -1.0186
  536TIP3   OH225802   3.703   0.311  18.836 -0.8185  0.0391 -0.0006
  536TIP3    H125803   3.640   0.310  18.907  0.5557 -0.9164  1.2635
  536TIP3    H225804   3.705   0.403  18.807 -2.3161  0.1898  0.3164
  537TIP3   OH225805   5.818   3.243  17.343 -0.1274 -0.4064  0.2957
  537TIP3    H125806   5.841   3.231  17.251 -0.5994  0.5114  0.0478
  537TIP3    H225807   5.841   3.334  17.361  2.8009 -1.3132  1.9234
  538TIP3   OH225808   1.271   5.374  17.651 -0.0507 -0.2198 -0.0006
  538TIP3    H125809   1.277   5.410  17.739 -0.0994 -1.6877  0.6365
  538TIP3    H225810   1.304   5.285  17.659  0.5773 -0.1673 -1.6154
  539TIP3   OH225811   5.231   7.411  18.186  0.3694 -0.0968  0.2948
  539TIP3    H125812   5.158   7.372  18.233  0.7342  0.1652  1.0902
  539TIP3    H225813   5.227   7.504  18.207  0.6837 -0.0141  0.0099
  540TIP3   OH225814   6.847   0.827  16.928 -0.4008 -0.1058  0.0374
  540TIP3    H125815   6.850   0.907  16.875 -2.3840 -0.9235 -1.4777
  540TIP3    H225816   6.859   0.857  17.018  1.6730  1.5197 -0.6968
  541TIP3   OH225817   7.556   0.303  18.221 -0.1664 -0.0835  0.0923
  541TIP3    H125818   7.594   0.219  18.198  0.3327 -0.1244  1.0139
  541TIP3    H225819   7.598   0.366  18.163 -1.0008 -0.5311 -1.0377
  542TIP3   OH225820   5.435   3.867  18.441 -0.2906 -0.1428  0.2087
  542TIP3    H125821   5.503   3.801  18.457  0.7505  0.8459 -0.0227
  542TIP3    H225822   5.353   3.818  18.449  0.4330 -1.3870  0.4225
  543TIP3   OH225823   2.582   0.097  19.075 -0.3517 -0.4524  0.6859
  543TIP3    H125824   2.676   0.081  19.071 -0.3195 -0.1674  0.2745
  543TIP3    H225825   2.574   0.176  19.129 -0.2694  0.2313 -0.2823
  544TIP3   OH225826   7.203   7.099  17.814  0.2306  0.1055 -0.1498
  544TIP3    H125827   7.151   7.038  17.866 -0.0620  0.4517 -0.0308
  544TIP3    H225828   7.176   7.186  17.845  1.7415  0.2786  0.7798
  545TIP3   OH225829   2.325   1.487  19.147  0.4062  0.0216  0.5810
  545TIP3    H125830   2.364   1.477  19.060  1.1616  0.3345  0.8712
  545TIP3    H225831   2.324   1.399  19.184 -0.8392 -0.2762 -0.1172
  546TIP3   OH225832   4.232   3.059  18.269 -0.3128 -0.3326  0.2278
  546TIP3    H125833   4.211   2.966  18.262 -1.9172 -0.0118  0.5042
  546TIP3    H225834   4.149   3.102  18.291  0.6169  1.0338  1.3032
  547TIP3   OH225835   7.627   5.483  18.537  0.2864  0.1702 -0.1351
  547TIP3    H125836   7.650   5.484  18.444  0.9406 -1.0149 -0.0171
  547TIP3    H225837   7.568   5.409  18.546 -0.4663  0.8071  0.2586
  548TIP3   OH225838   4.488   3.746  19.332 -0.0163  0.0812  0.6367
  548TIP3    H125839   4.489   3.798  19.413  0.9571  1.7028 -0.3499
  548TIP3    H225840   4.448   3.804  19.267 -2.2931 -1.7802  0.2630
  549TIP3   OH225841   3.799   1.884  19.140  0.0696  0.2296 -0.8049
  549TIP3    H125842   3.741   1.883  19.064 -1.2713 -1.4566  0.1983
  549TIP3    H225843   3.741   1.894  19.215  1.0254 -1.6117  0.2419
  550TIP3   OH225844   0.263   2.750  18.103 -0.3055 -1.0656 -0.2848
  550TIP3    H125845   0.177   2.759  18.145  0.9051 -1.6219  2.5414
  550TIP3    H225846   0.260   2.665  18.060 -1.1227 -1.1492 -0.0762
  551TIP3   OH225847   0.866   2.169  18.752  0.1822  0.2010 -0.3862
  551TIP3    H125848   0.868   2.094  18.693 -0.8576  0.6105 -0.9705
  551TIP3    H225849   0.958   2.187  18.771  0.4531 -2.2094  1.0647
  552TIP3   OH225850   4.869   5.479  17.244 -0.1860  0.0967  0.2655
  552TIP3    H125851   4.798   5.416  17.236  1.2884 -1.6445  0.1050
  552TIP3    H225852   4.835   5.548  17.301 -1.5672 -1.3098  1.2178
  553TIP3   OH225853   2.224   0.215  19.367  0.1124  0.4346  0.6047
  553TIP3    H125854   2.252   0.154  19.299  0.3453 -1.0621  1.9926
  553TIP3    H225855   2.254   0.176  19.449 -0.3071  2.1012  1.6032
  554TIP3   OH225856   3.183   1.198  18.789 -0.5078 -0.2650 -0.0636
  554TIP3    H125857   3.212   1.213  18.878  1.3092  0.6583 -0.7552
  554TIP3    H225858   3.231   1.121  18.760 -0.9515 -0.4569 -0.3114
  555TIP3   OH225859   4.795   2.276  19.182  0.4912  0.3459  0.4478
  555TIP3    H125860   4.873   2.243  19.227  0.1501 -0.3568  0.5273
  555TIP3    H225861   4.830   2.332  19.113  1.0574  0.3653  0.7422
  556TIP3   OH225862   0.091   5.144  18.549 -0.0986  0.2721  0.2670
  556TIP3    H125863   0.154   5.161  18.619  0.5791  1.9352 -0.6941
  556TIP3    H225864   0.015   5.199  18.571 -0.0390  0.5054 -0.1158
  557TIP3   OH225865   0.139   7.125  17.400  0.0488  0.0387 -0.2715
  557TIP3    H125866   0.089   7.181  17.341 -0.9952 -0.1994  0.3723
  557TIP3    H225867   0.171   7.054  17.344 -1.8955 -0.8083 -0.3797
  558TIP3   OH225868   0.043   4.819  18.958 -0.3708 -0.2617  0.7093
  558TIP3    H125869   0.023   4.744  19.013  0.0478 -0.8540  0.0660
  558TIP3    H225870  -0.004   4.803  18.876 -0.6046  0.3777  0.7067
  559TIP3   OH225871   3.746   2.432  18.688 -0.0373 -0.2808  0.0560
  559TIP3    H125872   3.688   2.509  18.697  1.7635  1.5438 -2.4743
  559TIP3    H225873   3.718   2.391  18.607  1.1791 -0.3201 -0.3530
  560TIP3   OH225874   1.651   6.689  17.516  0.5032 -0.2272 -0.3734
  560TIP3    H125875   1.576   6.740  17.486  0.3851  0.4323  1.0043
  560TIP3    H225876   1.727   6.743  17.494  0.6083 -0.8406 -1.6557
  561TIP3   OH225877   4.617   1.368  19.484 -0.3502 -0.4002 -0.1650
  561TIP3    H125878   4.702   1.346  19.446  0.3559 -0.5494  1.4457
  561TIP3    H225879   4.637   1.403  19.571 -1.8258  1.3138 -0.4577
  562TIP3   OH225880   1.773   3.364  18.149  0.0946  0.0277 -0.4482
  562TIP3    H125881   1.817   3.433  18.100  1.7637 -0.1591  0.6955
  562TIP3    H225882   1.743   3.408  18.229  0.0714 -0.3028 -0.2732
  563TIP3   OH225883   7.082   0.541  17.770  0.2704  0.7227 -0.4676
  563TIP3    H125884   7.083   0.603  17.843 -0.4966 -0.7084  0.8137
  563TIP3    H225885   7.100   0.456  17.810 -1.9453 -0.3901 -1.6145
  564TIP3   OH225886   1.183   6.682  16.677 -0.7941 -0.4097 -0.3528
  564TIP3    H125887   1.237   6.681  16.756 -2.0478 -1.8913  0.5543
  564TIP3    H225888   1.233   6.633  16.613  0.1422  0.6217 -0.4556
  565TIP3   OH225889   6.017   5.756  18.399 -0.0466 -0.1807 -0.1719
  565TIP3    H125890   5.933   5.720  18.371  0.0998 -1.2128  0.6768
  565TIP3    H225891   6.026   5.837  18.349 -0.4081 -1.2795 -2.0917
  566TIP3   OH225892   6.893   3.816  18.996 -0.4142  0.2719 -0.1756
  566TIP3    H125893   6.823   3.880  18.984  0.2308  1.0501  0.1522
  566TIP3    H225894   6.872   3.772  19.079 -0.3020  0.7819  0.1241
  567TIP3   OH225895   0.107   1.265  17.818 -0.0957 -0.2851  0.4825
  567TIP3    H125896   0.063   1.225  17.893 -0.6218 -0.6922 -0.0384
  567TIP3    H225897   0.042   1.323  17.779 -0.4586 -1.4951 -0.7640
  568TIP3   OH225898   6.030   3.184  19.453 -0.1918  0.4774 -0.3613
  568TIP3    H125899   6.125   3.193  19.446 -0.2945  0.8725 -1.3590
  568TIP3    H225900   6.001   3.157  19.366 -0.8324 -1.3879  0.3740
  569TIP3   OH225901   1.821   1.917  17.964 -0.1070  0.0029 -0.6494
  569TIP3    H125902   1.738   1.957  17.988  0.9881  1.1773  1.5888
  569TIP3    H225903   1.830   1.843  18.024  0.9199  0.5541 -0.0879
  570TIP3   OH225904   4.373   3.159  18.777 -0.3530 -0.2959  0.2400
  570TIP3    H125905   4.369   3.063  18.770 -0.9040 -0.3515  1.1064
  570TIP3    H225906   4.282   3.184  18.796  0.1750  0.1721  2.4070
  571TIP3   OH225907   1.000   3.640  18.798 -0.3113 -0.6644  0.3338
  571TIP3    H125908   0.909   3.639  18.827 -0.4304 -1.2409 -0.0260
  571TIP3    H225909   1.015   3.551  18.764 -0.4025  0.1674 -2.0365
  572TIP3   OH225910   6.057   6.320  18.945 -0.5068 -0.0789  0.4768
  572TIP3    H125911   5.995   6.346  18.877 -1.5314 -1.2324  0.9465
  572TIP3    H225912   6.040   6.380  19.018 -1.3305 -0.6029  0.7299
  573TIP3   OH225913   2.189   2.748  18.169  0.1431  0.3691 -0.1093
  573TIP3    H125914   2.236   2.703  18.099  1.0956  0.7296  0.2872
  573TIP3    H225915   2.171   2.835  18.133 -0.3139  0.2054 -0.2907
  574TIP3   OH225916   0.365   3.994  17.122 -0.2538  0.0545 -0.1171
  574TIP3    H125917   0.459   4.012  17.131  0.0581  1.8374 -4.4961
  574TIP3    H225918   0.352   3.911  17.168  3.3566 -0.0983  0.9396
  575TIP3   OH225919   0.069   1.235  18.116  0.3399  0.3558 -0.4429
  575TIP3    H125920   0.000   1.172  18.137  0.8344 -0.0409  0.0146
  575TIP3    H225921   0.143   1.210  18.171 -0.1891  2.7207  1.5472
  576TIP3   OH225922   3.844   0.697  17.742 -0.2881  0.1984  0.1582
  576TIP3    H125923   3.824   0.621  17.686 -2.7057  0.2674  0.8283
  576TIP3    H225924   3.831   0.772  17.685 -0.2511  0.1843  0.1317
  577TIP3   OH225925   5.352   2.719  19.060 -0.8211 -0.3493  0.4745
  577TIP3    H125926   5.439   2.726  19.021 -1.9390  0.2452 -2.0771
  577TIP3    H225927   5.364   2.752  19.149  1.7395 -1.2386  0.5480
  578TIP3   OH225928   5.935   3.687  19.125  0.0489  0.6806  0.3246
  578TIP3    H125929   6.025   3.711  19.102 -0.0597  0.4980 -0.2958
  578TIP3    H225930   5.944   3.602  19.169 -0.0539 -0.7277 -2.2006
  579TIP3   OH225931   4.661   2.586  18.729 -0.2018  0.1849  0.2267
  579TIP3    H125932   4.585   2.613  18.780 -0.7435 -0.0613 -0.4301
  579TIP3    H225933   4.733   2.638  18.764 -1.2254  2.6907 -1.1080
  580TIP3   OH225934   4.756   6.895  19.058  0.2275 -0.1088  0.7662
  580TIP3    H125935   4.772   6.804  19.082  3.2002  0.2488  0.5310
  580TIP3    H225936   4.824   6.916  18.994 -1.8546  1.6268 -1.0301
  581TIP3   OH225937   0.272   5.471  17.344  0.3623 -0.1119  0.0754
  581TIP3    H125938   0.202   5.512  17.294  0.8798 -0.4298 -0.9291
  581TIP3    H225939   0.325   5.426  17.279  1.3323 -0.1327  0.8587
  582TIP3   OH225940   4.483   5.704  17.301  0.7554 -0.3640 -0.2805
  582TIP3    H125941   4.418   5.727  17.367  1.6119 -1.7359  1.1148
  582TIP3    H225942   4.437   5.647  17.240  0.2144  0.1013 -0.3154
  583TIP3   OH225943   5.472   5.466  19.181  0.3638  0.4804  0.4501
  583TIP3    H125944   5.432   5.392  19.135  0.5723  1.6544 -1.7242
  583TIP3    H225945   5.404   5.497  19.241 -0.8960  0.5345 -0.9618
  584TIP3   OH225946   6.750   2.076  18.814 -0.5226 -0.5139  1.1099
  584TIP3    H125947   6.662   2.040  18.806 -0.7915  0.0083  1.6175
  584TIP3    H225948   6.774   2.060  18.906 -0.0760 -0.6647  0.9739
  585TIP3   OH225949   0.746   4.315  17.311 -0.7098 -0.1295 -0.0481
  585TIP3    H125950   0.824   4.259  17.320  0.0215  1.0155  1.1213
  585TIP3    H225951   0.781   4.402  17.293 -1.7989  0.1480 -0.9218
  586TIP3   OH225952   0.801   2.120  18.007 -0.6931  0.0491 -0.2960
  586TIP3    H125953   0.719   2.096  17.965  0.4398  0.4681 -3.0046
  586TIP3    H225954   0.836   2.191  17.952  0.7212  0.9808  1.6957
  587TIP3   OH225955   4.554   5.445  17.428 -0.2882  0.1677  0.0471
  587TIP3    H125956   4.527   5.537  17.424 -1.3796 -0.1274  0.3968
  587TIP3    H225957   4.485   5.401  17.478  0.1980 -0.8548 -0.1464
  588TIP3   OH225958   6.744   7.029  17.704 -0.4502  0.2632 -0.5865
  588TIP3    H125959   6.737   7.032  17.608 -0.1100 -0.5907 -0.6425
  588TIP3    H225960   6.737   6.936  17.726  3.1431 -0.0045 -0.0966
  589TIP3   OH225961   3.089   5.745  19.522 -0.0856  0.4240 -0.5224
  589TIP3    H125962   3.087   5.650  19.510  0.7202  0.1443  1.1887
  589TIP3    H225963   3.045   5.780  19.445  1.6948 -1.2160 -2.4047
  590TIP3   OH225964   1.421   2.648  18.806  0.2982 -0.0273 -0.2693
  590TIP3    H125965   1.484   2.650  18.878 -0.3213  0.5970  0.2776
  590TIP3    H225966   1.424   2.737  18.770 -0.7010  0.2111  0.1748
  591TIP3   OH225967   2.260   2.149  17.431 -0.0011  0.2434 -0.5097
  591TIP3    H125968   2.197   2.150  17.358 -0.0322 -2.0398 -0.5930
  591TIP3    H225969   2.343   2.172  17.390 -0.2805  0.4565 -0.9747
  592TIP3   OH225970   5.280   6.570  18.876 -0.2252 -0.0754 -0.0786
  592TIP3    H125971   5.273   6.510  18.802 -0.2786  0.5678 -0.6141
  592TIP3    H225972   5.281   6.514  18.953 -0.8906 -0.7280 -0.5271
  593TIP3   OH225973   0.548   1.296  18.245 -0.1828 -0.8528  0.4447
  593TIP3    H125974   0.547   1.336  18.332  0.7508  0.7512 -0.2490
  593TIP3    H225975   0.619   1.340  18.199 -3.5399  1.8430 -2.7030
  594TIP3   OH225976   4.952   5.554  18.120 -0.0052 -0.1580 -0.2624
  594TIP3    H125977   4.897   5.532  18.045  0.4424 -0.1488 -0.5967
  594TIP3    H225978   4.894   5.605  18.177  0.0662  1.1974 -1.3177
  595TIP3   OH225979   6.724   2.330  18.999 -0.3532  0.2560 -0.2390
  595TIP3    H125980   6.817   2.307  19.009 -0.2466  1.2374  1.5551
  595TIP3    H225981   6.720   2.422  19.025 -1.9779 -0.0552  0.7452
  596TIP3   OH225982   5.991   0.670  19.020  0.2961  0.7101  0.2682
  596TIP3    H125983   6.075   0.698  19.055  0.6251  1.4024 -1.0153
  596TIP3    H225984   6.007   0.656  18.927 -0.9899  0.7953  0.0184
  597TIP3   OH225985   5.599   2.717  16.826  0.7835  0.2231 -0.5447
  597TIP3    H125986   5.609   2.810  16.845  1.3892 -0.1435  1.2142
  597TIP3    H225987   5.505   2.703  16.821  0.6181  0.7028  0.7033
  598TIP3   OH225988   6.571   4.525  19.193  0.1524 -0.1114 -0.3830
  598TIP3    H125989   6.599   4.516  19.284  1.4744 -1.0704 -0.8540
  598TIP3    H225990   6.490   4.576  19.197 -0.7920 -1.6792  1.4657
  599TIP3   OH225991   4.656   5.900  17.882 -0.0355  0.3178  0.5879
  599TIP3    H125992   4.584   5.893  17.944 -0.7812  1.2823 -0.1219
  599TIP3    H225993   4.694   5.986  17.900  0.6230  0.0234  0.6217
  600TIP3   OH225994   6.815   5.882  16.287 -0.7041 -0.6566  0.4306
  600TIP3    H125995   6.812   5.787  16.293  0.0828 -0.6974  0.3494
  600TIP3    H225996   6.809   5.912  16.378  0.7399 -0.8607  0.6174
  601TIP3   OH225997   7.414   4.760  17.452 -0.1464 -0.2502 -0.1518
  601TIP3    H125998   7.403   4.828  17.518 -0.9381 -1.8777  1.5024
  601TIP3    H225999   7.397   4.804  17.369  0.1389  1.7156  0.7769
  602TIP3   OH226000   6.407   2.111  18.038  0.1598  0.5807 -0.2656
  602TIP3    H126001   6.357   2.128  18.117  0.3218  0.7202 -0.1901
  602TIP3    H226002   6.424   2.198  18.002 -0.0092  0.5120 -0.5138
  603TIP3   OH226003   4.521   2.347  18.246  0.2217  0.1251 -0.2095
  603TIP3    H126004   4.526   2.359  18.151  0.2511  0.1900 -0.2002
  603TIP3    H226005   4.571   2.421  18.282  2.2262 -1.1595 -0.1953
  604TIP3   OH226006   0.577   3.620  17.305  0.0834 -0.3031  0.5285
  604TIP3    H126007   0.626   3.563  17.245 -1.9741 -0.8495 -0.7562
  604TIP3    H226008   0.572   3.572  17.387  0.1404 -1.0405  0.1006
  605TIP3   OH226009   5.909   7.335  18.850 -0.3433 -0.1903  0.2120
  605TIP3    H126010   5.970   7.309  18.919  0.1483 -1.5678 -0.6907
  605TIP3    H226011   5.831   7.364  18.897  0.1924 -0.5389  1.3540
  606TIP3   OH226012   2.590   5.208  17.287 -0.5217  0.2213  0.5166
  606TIP3    H126013   2.527   5.150  17.329 -0.8733  0.3613  0.1782
  606TIP3    H226014   2.568   5.206  17.194  2.6413 -3.1777 -0.4020
  607TIP3   OH226015   0.435   5.341  18.290 -0.3325 -0.5615 -0.4681
  607TIP3    H126016   0.375   5.270  18.267 -0.5284 -0.3070 -0.7653
  607TIP3    H226017   0.436   5.342  18.386  1.2548 -2.2683 -0.4256
  608TIP3   OH226018   3.151   6.620  16.708 -0.2691  0.6328  0.5693
  608TIP3    H126019   3.076   6.607  16.650  0.0513  1.3979 -0.0377
  608TIP3    H226020   3.216   6.665  16.653  1.2740 -1.4101  0.5868
  609TIP3   OH226021   7.617   2.152  18.064  0.2419  0.1539  0.2756
  609TIP3    H126022   7.566   2.199  17.998 -0.4613 -0.4081  0.4090
  609TIP3    H226023   7.604   2.060  18.045  1.9346 -0.0155 -0.2148
  610TIP3   OH226024   3.730   4.052  18.401 -0.9398  0.3016  0.2064
  610TIP3    H126025   3.681   4.116  18.349  1.1965  2.1865  0.3706
  610TIP3    H226026   3.668   4.023  18.468 -3.2043 -0.8622 -2.2017
  611TIP3   OH226027   0.412   2.236  18.879 -0.0653 -0.2400 -0.0222
  611TIP3    H126028   0.504   2.223  18.903  0.2022  0.7770 -0.4475
  611TIP3    H226029   0.413   2.240  18.783 -0.5439 -0.1462 -0.0235
  612TIP3   OH226030   7.008   6.599  19.505 -0.8142  0.2740 -0.1199
  612TIP3    H126031   6.975   6.520  19.549  1.7280 -0.5757  0.4382
  612TIP3    H226032   7.031   6.569  19.417  1.4868 -0.0546  0.5284
  613TIP3   OH226033   4.427   2.657  18.854 -0.7830  1.0359 -0.1584
  613TIP3    H126034   4.348   2.678  18.904 -1.1670  0.4485 -0.4977
  613TIP3    H226035   4.416   2.565  18.830  0.4729  0.6706  0.6105
  614TIP3   OH226036   6.647   6.950  17.157 -0.4403  0.0934 -0.1494
  614TIP3    H126037   6.726   6.897  17.167 -1.6834 -1.8587 -0.1420
  614TIP3    H226038   6.627   6.945  17.063 -0.7309  0.2807 -0.0977
  615TIP3   OH226039   7.370   3.898  17.475 -0.0913 -0.1435  0.6291
  615TIP3    H126040   7.326   3.978  17.446 -1.2481 -1.8351 -2.8847
  615TIP3    H226041   7.302   3.848  17.519  0.2101  0.1328  1.4173
  616TIP3   OH226042   6.440   5.217  18.889 -0.1360  0.0872  0.2423
  616TIP3    H126043   6.393   5.219  18.806 -3.8473  0.6590  2.1271
  616TIP3    H226044   6.461   5.125  18.903 -2.0336 -0.4420 -0.1121
  617TIP3   OH226045   6.206   3.930  17.608  0.0502  0.1804  0.2157
  617TIP3    H126046   6.253   3.920  17.691 -0.0964 -1.1807  0.1559
  617TIP3    H226047   6.271   3.909  17.541 -0.3264 -0.5804  0.0814
  618TIP3   OH226048   1.667   6.501  17.749 -0.5180  0.4451 -0.1579
  618TIP3    H126049   1.754   6.532  17.777 -1.4106  2.0089  1.0595
  618TIP3    H226050   1.655   6.540  17.662 -0.3351  0.9161  0.0254
  619TIP3   OH226051   6.304   6.873  16.955 -0.1643  0.0957 -0.7118
  619TIP3    H126052   6.275   6.787  16.925  0.5839 -0.6190  0.5267
  619TIP3    H226053   6.370   6.900  16.892  0.0634 -0.5292 -0.7424
  620TIP3   OH226054   5.016   0.798  16.848  0.2081  0.0372 -0.4658
  620TIP3    H126055   5.015   0.864  16.779  0.2826  0.8096  0.2534
  620TIP3    H226056   4.928   0.759  16.845  0.1643  0.1672 -0.8966
  621TIP3   OH226057   5.779   1.198  18.353  0.1256  0.5595  0.1338
  621TIP3    H126058   5.707   1.238  18.402 -2.0861 -1.3315 -1.3584
  621TIP3    H226059   5.781   1.107  18.382  1.2340  0.3151 -0.6214
  622TIP3   OH226060   1.093   0.382  19.406  0.1255  0.2107  0.4320
  622TIP3    H126061   1.044   0.463  19.422  0.3295 -0.0681  2.8096
  622TIP3    H226062   1.025   0.315  19.396 -0.1531  0.8693 -3.7727
  623TIP3   OH226063   1.647   2.416  17.696 -0.3216 -0.2112 -0.1337
  623TIP3    H126064   1.735   2.424  17.732 -0.1427  0.9903 -0.7755
  623TIP3    H226065   1.626   2.322  17.703  1.5727 -0.7680 -1.2615
  624TIP3   OH226066   5.547   2.204  18.984  0.0376 -0.2412 -0.1812
  624TIP3    H126067   5.540   2.287  19.032 -0.2129 -1.2187  1.5221
  624TIP3    H226068   5.557   2.231  18.892  1.0916  1.6953  0.4423
  625TIP3   OH226069   2.885   4.502  17.803  0.5391  0.4861  0.0363
  625TIP3    H126070   2.944   4.442  17.757  1.6734  1.4953  0.1314
  625TIP3    H226071   2.935   4.583  17.813  0.0251  0.5969  2.2798
  626TIP3   OH226072   3.884   0.875  17.390  0.4769  0.1959 -0.8572
  626TIP3    H126073   3.954   0.926  17.350  2.1106 -0.1616  1.3514
  626TIP3    H226074   3.825   0.940  17.429  1.4706  0.4555  0.2386
  627TIP3   OH226075   7.358   3.349  19.537 -0.1375  0.2241  0.1137
  627TIP3    H126076   7.372   3.440  19.564  3.0965  0.1316 -0.9012
  627TIP3    H226077   7.293   3.316  19.599  0.2022  2.5927  1.8726
  628TIP3   OH226078   2.044   1.024  18.046 -0.7440  0.1992 -0.2763
  628TIP3    H126079   2.037   1.034  17.951 -2.5506  0.6076 -0.1410
  628TIP3    H226080   1.989   1.095  18.081  0.0429  0.1669  1.0819
  629TIP3   OH226081   3.794   1.332  18.470 -0.0595  0.2708  0.1533
  629TIP3    H126082   3.871   1.378  18.437 -1.7320  1.5703 -2.2461
  629TIP3    H226083   3.745   1.398  18.518 -1.2738  0.4141 -1.2151
  630TIP3   OH226084   1.041   5.598  19.133 -0.4112 -0.1446 -0.2782
  630TIP3    H126085   0.988   5.545  19.192 -0.3095 -3.2832 -2.7227
  630TIP3    H226086   0.979   5.654  19.088 -1.1837 -1.2225 -0.5829
  631TIP3   OH226087   0.375   0.844  18.002 -0.0362  0.0400  0.2040
  631TIP3    H126088   0.421   0.854  18.085  1.2652  0.0224 -0.4897
  631TIP3    H226089   0.425   0.897  17.940 -1.1139  0.2321 -0.5255
  632TIP3   OH226090   1.897   6.156  17.199 -0.3291  0.2207 -0.0303
  632TIP3    H126091   1.946   6.144  17.118 -0.6273 -0.4204 -0.1221
  632TIP3    H226092   1.928   6.240  17.234 -0.1645  0.4759 -0.7770
  633TIP3   OH226093   6.636   7.254  16.987  0.9430 -0.0414 -0.2703
  633TIP3    H126094   6.626   7.209  16.903 -1.1227  0.9973 -0.6193
  633TIP3    H226095   6.731   7.250  17.004  1.3262 -0.8945 -2.2781
  634TIP3   OH226096   6.625   0.183  17.977  0.4740 -0.3024 -0.5517
  634TIP3    H126097   6.567   0.137  18.038  0.3523  0.4532 -0.0804
  634TIP3    H226098   6.632   0.124  17.902 -0.1847 -0.7998 -0.2363
  635TIP3   OH226099   1.942   3.573  18.061  0.1280 -0.1710 -0.2257
  635TIP3    H126100   1.918   3.654  18.107 -2.7786 -0.6332 -0.7612
  635TIP3    H226101   1.958   3.600  17.971 -1.1641 -0.1872 -0.4798
  636TIP3   OH226102   5.408   0.483  19.250  0.1112 -0.3417 -0.1201
  636TIP3    H126103   5.471   0.415  19.274  0.3785 -0.3743 -0.8817
  636TIP3    H226104   5.323   0.438  19.253  0.1787 -0.4475  0.3401
  637TIP3   OH226105   1.637   0.598  19.295 -0.1628 -0.2143  0.0817
  637TIP3    H126106   1.624   0.688  19.267 -1.0026  0.7178  3.0985
  637TIP3    H226107   1.549   0.559  19.290  0.4395 -1.4054 -2.6360
  638TIP3   OH226108   0.019   2.785  16.690 -0.3911 -0.0970 -0.2644
  638TIP3    H126109  -0.049   2.742  16.743 -2.5329  1.3067 -1.7229
  638TIP3    H226110  -0.014   2.873  16.676  0.8262  0.0461 -2.6275
  639TIP3   OH226111   7.220   2.980  19.619  0.3277  0.3539  0.1695
  639TIP3    H126112   7.298   2.925  19.611 -0.5363 -1.2213  1.8430
  639TIP3    H226113   7.240   3.040  19.690 -0.2086 -0.5576  1.1260
  640TIP3   OH226114   7.161   0.118  18.664 -0.3434  0.0866 -0.7851
  640TIP3    H126115   7.084   0.095  18.612 -0.0066 -1.6305 -0.5598
  640TIP3    H226116   7.126   0.134  18.752 -0.2628 -3.0432 -0.0663
  641TIP3   OH226117   3.604   6.251  18.774 -0.2605  0.3172 -0.0091
  641TIP3    H126118   3.678   6.207  18.732  0.0007 -0.8179  1.5249
  641TIP3    H226119   3.542   6.179  18.793 -1.8868  1.2539 -1.4247
  642TIP3   OH226120   6.849   5.139  16.322  0.3396  0.4269  0.5159
  642TIP3    H126121   6.842   5.219  16.374  1.7428  0.5472  0.5501
  642TIP3    H226122   6.878   5.073  16.385 -0.0349  0.0722  0.3189
  643TIP3   OH226123   7.180   5.414  18.057 -0.0781 -0.6365 -0.1414
  643TIP3    H126124   7.111   5.451  18.002 -0.5093  0.3319  1.0153
  643TIP3    H226125   7.261   5.451  18.021 -0.4188  0.6246  0.3364
  644TIP3   OH226126   1.023   4.007  19.553  0.2433 -0.0165  0.3036
  644TIP3    H126127   1.053   4.065  19.483  0.4602  0.2076  0.5847
  644TIP3    H226128   1.047   4.052  19.634 -0.2054 -0.1717  0.5262
  645TIP3   OH226129   1.337   3.380  19.431 -0.2363  0.2013 -0.1560
  645TIP3    H126130   1.299   3.454  19.384 -0.4742 -1.7715 -3.4144
  645TIP3    H226131   1.268   3.351  19.490 -1.1827  0.8971 -0.8747
  646TIP3   OH226132   2.893   5.457  17.792 -0.2991 -0.8137  0.0576
  646TIP3    H126133   2.869   5.369  17.822  0.1186 -0.1773  2.4510
  646TIP3    H226134   2.822   5.513  17.824 -0.2723 -0.1768 -0.9472
  647TIP3   OH226135   6.763   1.276  19.047 -0.1350  0.1870  0.6905
  647TIP3    H126136   6.690   1.224  19.014  0.1201 -1.2196  2.2231
  647TIP3    H226137   6.780   1.339  18.977 -1.4865 -0.7573 -0.5693
  648TIP3   OH226138   5.884   1.526  19.117  0.0384 -0.3435 -0.2238
  648TIP3    H126139   5.863   1.448  19.168 -0.1563  0.1562  0.4581
  648TIP3    H226140   5.806   1.543  19.065  1.1105 -2.4023 -2.7539
  649TIP3   OH226141   3.690   5.131  17.358 -0.7651 -0.0445  0.2863
  649TIP3    H126142   3.702   5.132  17.453  1.1458 -1.3585  0.1188
  649TIP3    H226143   3.652   5.045  17.340 -0.4849 -0.0697 -0.1846
  650TIP3   OH226144   1.215   6.135  16.881 -0.5996 -0.4981  0.0196
  650TIP3    H126145   1.259   6.220  16.880 -0.1288 -0.7292  0.6833
  650TIP3    H226146   1.285   6.072  16.900 -0.5288 -1.2882 -2.4312
  651TIP3   OH226147   4.717   6.079  16.968 -0.0222 -0.7337  0.5988
  651TIP3    H126148   4.706   5.994  17.011 -0.0837 -0.8981  0.2576
  651TIP3    H226149   4.646   6.082  16.904  0.1392 -0.5364  0.4309
  652TIP3   OH226150   1.168   1.758  18.796  0.4662 -0.1858 -0.0442
  652TIP3    H126151   1.257   1.726  18.781  1.0214  1.0854  0.3974
  652TIP3    H226152   1.160   1.836  18.741 -1.3184 -1.7103 -2.1255
  653TIP3   OH226153   0.174   3.417  18.068 -0.0431  0.4953 -0.2907
  653TIP3    H126154   0.263   3.391  18.045  0.3734  1.8231 -0.2446
  653TIP3    H226155   0.174   3.420  18.164 -0.0166  0.8884 -0.3015
  654TIP3   OH226156   6.123   7.487  18.419  0.4975  0.1154  0.2010
  654TIP3    H126157   6.055   7.498  18.352  0.2667 -0.1439  0.3922
  654TIP3    H226158   6.076   7.487  18.502  0.6183 -1.0867  0.2810
  655TIP3   OH226159   6.380   0.617  18.536  0.3238  0.7086 -0.1009
  655TIP3    H126160   6.469   0.595  18.509 -0.0960  1.4831 -2.3079
  655TIP3    H226161   6.385   0.625  18.632  2.0442 -1.6473  0.0748
  656TIP3   OH226162   4.229   2.834  19.037  0.7088  0.1960  0.1393
  656TIP3    H126163   4.168   2.861  19.106  1.4672  0.3758  0.7540
  656TIP3    H226164   4.177   2.778  18.980  0.1218 -0.1510  0.9890
  657TIP3   OH226165   5.455   4.122  18.348 -0.1776  0.0575  0.4833
  657TIP3    H126166   5.545   4.150  18.363 -0.1895  1.0487 -1.1364
  657TIP3    H226167   5.455   4.029  18.372  1.5036 -0.1841 -0.2929
  658TIP3   OH226168   4.116   6.449  17.894 -0.3363 -0.3713  0.3934
  658TIP3    H126169   4.181   6.504  17.849 -1.3421 -1.5415 -2.8072
  658TIP3    H226170   4.162   6.366  17.907  0.2813  0.2680  2.6389
  659TIP3   OH226171   7.044   0.921  17.812  0.5906  0.1718  0.5314
  659TIP3    H126172   7.062   0.992  17.750 -0.8917 -0.5625 -0.8032
  659TIP3    H226173   7.105   0.852  17.787 -1.6269 -1.0725 -1.8425
  660TIP3   OH226174   2.059   3.311  18.196 -0.0995  0.0434 -0.1714
  660TIP3    H126175   2.054   3.397  18.155 -1.7374 -0.0082 -0.1375
  660TIP3    H226176   1.970   3.277  18.193  0.4574 -1.5402  0.0842
  661TIP3   OH226177   6.170   0.341  17.096 -0.2908  0.5266 -0.2726
  661TIP3    H126178   6.265   0.327  17.092 -0.3563 -1.0018  1.8230
  661TIP3    H226179   6.141   0.335  17.005  1.3904 -1.1335 -0.7661
  662TIP3   OH226180   1.866   7.489  18.805 -0.7553 -0.2741  0.0012
  662TIP3    H126181   1.873   7.406  18.758  0.8888  0.0965 -0.4708
  662TIP3    H226182   1.837   7.464  18.893 -0.2105 -1.3625 -0.1087
  663TIP3   OH226183   5.783   5.626  18.315  0.9252 -0.2936  0.3784
  663TIP3    H126184   5.736   5.563  18.370  0.1682 -0.8273 -0.8416
  663TIP3    H226185   5.816   5.573  18.242 -2.1841  1.0596 -2.2558
  664TIP3   OH226186   0.324   1.420  18.623  0.2769  0.1139 -0.4436
  664TIP3    H126187   0.354   1.460  18.705 -0.0875  0.1537 -0.3314
  664TIP3    H226188   0.342   1.327  18.633  0.1377  0.1050 -0.2773
  665TIP3   OH226189   3.042   7.493  17.723 -0.5269  0.0323  0.3928
  665TIP3    H126190   2.962   7.459  17.684 -1.0452 -0.2138  1.6122
  665TIP3    H226191   3.092   7.530  17.650 -1.4158 -0.4739 -0.4820
  666TIP3   OH226192   6.280   4.513  19.249  0.3617  0.0384  0.1951
  666TIP3    H126193   6.198   4.560  19.262  1.3678  2.4869 -1.4295
  666TIP3    H226194   6.257   4.439  19.193 -0.8924  0.0612  0.6505
  667TIP3   OH226195   4.704   3.305  18.068  0.6259  0.2533 -0.1451
  667TIP3    H126196   4.647   3.357  18.125  1.5766  0.8001  0.3222
  667TIP3    H226197   4.644   3.259  18.009 -0.2336  1.6949 -0.4189
  668TIP3   OH226198   2.714   4.228  18.277 -0.1121 -0.3656 -0.4252
  668TIP3    H126199   2.713   4.271  18.192 -1.7009  0.2310 -0.1374
  668TIP3    H226200   2.714   4.135  18.257  0.9518 -0.2550 -1.0526
  669TIP3   OH226201   0.373   4.389  18.517 -0.5032 -0.0090  0.1196
  669TIP3    H126202   0.328   4.472  18.504 -0.0772  0.5235  1.7287
  669TIP3    H226203   0.465   4.413  18.527 -0.2807 -0.7464 -0.0780
  670TIP3   OH226204   1.345   7.162  18.285 -0.0603  0.4037  0.9877
  670TIP3    H126205   1.292   7.180  18.208  0.0186 -1.1498  0.5323
  670TIP3    H226206   1.435   7.160  18.253 -0.1643 -2.0949  0.6922
  671TIP3   OH226207   7.661   1.434  17.650 -1.0570 -0.4280 -0.2782
  671TIP3    H126208   7.703   1.518  17.631 -0.8538  0.0215  1.9652
  671TIP3    H226209   7.692   1.376  17.580  1.5208  0.4599  0.0173
  672TIP3   OH226210   4.930   3.613  17.887  0.6772 -0.5553 -0.4898
  672TIP3    H126211   4.978   3.562  17.822  0.2658  1.1197 -2.2116
  672TIP3    H226212   4.839   3.609  17.858  0.6091  0.9316 -0.5815
  673TIP3   OH226213   0.320   3.005  16.991 -0.0148 -0.5199  0.4896
  673TIP3    H126214   0.355   2.957  16.917 -0.1305  0.7318 -0.4095
  673TIP3    H226215   0.232   2.970  17.004  0.6857 -2.0881  1.3082
  674TIP3   OH226216   2.867   3.730  18.897  0.4453 -0.1809  0.8127
  674TIP3    H126217   2.867   3.686  18.982  2.4983  1.2011  1.5972
  674TIP3    H226218   2.843   3.820  18.916 -1.0251 -0.2727 -0.4023
  675TIP3   OH226219   3.807   6.601  18.327  0.2700  0.0988 -1.1384
  675TIP3    H126220   3.850   6.571  18.247  1.3632 -1.6793  0.0426
  675TIP3    H226221   3.878   6.634  18.381 -0.2576 -0.0880 -0.3175
  676TIP3   OH226222   1.066   5.529  17.982  0.8824  0.0698  0.1905
  676TIP3    H126223   1.156   5.521  17.952  1.4637 -0.8774  2.0254
  676TIP3    H226224   1.057   5.621  18.006  1.1087  0.3358 -0.7159
  677TIP3   OH226225   1.697   0.241  18.309 -0.1708  0.2008 -0.2641
  677TIP3    H126226   1.781   0.210  18.343  0.6384  0.0386 -2.2475
  677TIP3    H226227   1.635   0.171  18.329  0.4570 -0.2647  0.0592
  678TIP3   OH226228   1.497   5.860  17.537 -0.2329  0.4048 -0.7063
  678TIP3    H126229   1.445   5.860  17.457 -2.1900 -2.3373  0.4284
  678TIP3    H226230   1.541   5.774  17.538 -1.3003 -0.2242  1.6899
  679TIP3   OH226231   3.867   4.933  17.893 -0.4278  0.0707  0.1120
  679TIP3    H126232   3.907   4.847  17.879 -0.2240 -0.1427  1.7672
  679TIP3    H226233   3.939   4.995  17.882  0.2149 -0.2459  2.1401
  680TIP3   OH226234   1.497   5.802  17.847  0.3943  0.3698  0.2193
  680TIP3    H126235   1.486   5.897  17.848  0.2861  0.3563  0.2678
  680TIP3    H226236   1.591   5.789  17.859  0.3092  0.4468  1.0133
  681TIP3   OH226237   1.007   0.294  17.501 -0.0012 -0.1159 -0.2424
  681TIP3    H126238   0.998   0.311  17.595  0.9187  1.3517 -0.3883
  681TIP3    H226239   1.008   0.198  17.494  1.6426 -0.2834  1.4485
  682TIP3   OH226240   2.649   3.994  17.866  0.0369 -0.2352 -0.0377
  682TIP3    H126241   2.598   4.008  17.786 -0.2519 -1.1209 -0.0124
  682TIP3    H226242   2.723   4.055  17.858 -1.8979  2.3921  0.7310
  683TIP3   OH226243   3.810   2.913  18.407 -0.1590 -0.2650  0.1131
  683TIP3    H126244   3.783   2.928  18.498 -0.1527 -0.7292  0.1900
  683TIP3    H226245   3.728   2.920  18.357 -0.0128  1.0652  0.0153
  684TIP3   OH226246   0.546   2.016  18.370 -0.1897 -0.3732  0.3783
  684TIP3    H126247   0.629   1.999  18.325 -0.9484  0.6181 -1.5034
  684TIP3    H226248   0.561   2.098  18.418 -0.3691  0.3512 -0.7793
  685TIP3   OH226249   3.899   2.733  19.060 -0.4109 -0.4779 -0.5759
  685TIP3    H126250   3.860   2.715  18.975 -1.8341 -0.3926  0.0387
  685TIP3    H226251   3.840   2.692  19.123  0.9697 -1.1078  0.3462
  686TIP3   OH226252   7.157   2.475  16.985  0.0426  0.5702  0.0139
  686TIP3    H126253   7.171   2.422  16.906  1.7055  1.3878 -0.2892
  686TIP3    H226254   7.111   2.553  16.954 -1.0807  0.0219  0.2212
  687TIP3   OH226255   5.948   3.217  18.279 -0.2619  0.3327 -0.7272
  687TIP3    H126256   6.036   3.187  18.303 -0.9181 -3.5247 -2.3500
  687TIP3    H226257   5.890   3.172  18.340 -1.2351  2.7609  0.2604
  688TIP3   OH226258   1.877   3.799  18.980  0.3850 -0.6363  0.1247
  688TIP3    H126259   1.805   3.749  18.943 -0.5998  1.4692 -0.9998
  688TIP3    H226260   1.852   3.891  18.967  1.7003  0.2134  2.7693
  689TIP3   OH226261   4.158   3.477  18.358  0.3088  0.2060  0.3230
  689TIP3    H126262   4.232   3.435  18.402  1.3607  1.4307 -0.2108
  689TIP3    H226263   4.133   3.416  18.289  1.4468  0.1683 -0.0885
  690TIP3   OH226264   0.969   3.171  18.933 -0.1844 -0.7305  0.0373
  690TIP3    H126265   1.039   3.196  18.994 -1.3790 -0.2506  1.2656
  690TIP3    H226266   0.891   3.162  18.989 -1.5884  0.8274 -1.5342
  691TIP3   OH226267   3.823   6.951  18.474  0.2209 -0.1917  0.0015
  691TIP3    H126268   3.803   6.946  18.567 -0.1939 -1.0567 -0.1309
  691TIP3    H226269   3.776   7.030  18.444  0.3560  0.0888  0.5154
  692TIP3   OH226270   4.901   0.964  16.637 -0.5464  0.0001 -0.1428
  692TIP3    H126271   4.884   0.886  16.583  2.5596  0.5938 -2.2333
  692TIP3    H226272   4.848   1.033  16.597  0.1799 -0.0426 -1.2300
  693TIP3   OH226273   6.750   6.678  17.451 -0.2540  0.4837 -0.3358
  693TIP3    H126274   6.737   6.773  17.455  2.8616  1.0907 -1.2159
  693TIP3    H226275   6.844   6.667  17.468 -0.2498 -2.3102 -1.6231
  694TIP3   OH226276   3.254   1.099  18.412  0.1501  0.4323  0.0315
  694TIP3    H126277   3.268   1.193  18.395 -0.2570  0.8646  1.8637
  694TIP3    H226278   3.311   1.080  18.487  0.6823 -0.9575 -0.6903
  695TIP3   OH226279   1.119   1.046  18.459  0.3503 -0.4269  0.4103
  695TIP3    H126280   1.069   1.112  18.413  2.0685  1.1838  0.7533
  695TIP3    H226281   1.119   0.970  18.401 -0.1999  0.4641 -0.7781
  696TIP3   OH226282   6.614   6.781  17.848  0.5622  0.0610  0.0696
  696TIP3    H126283   6.553   6.745  17.912 -0.4381  0.4371 -0.6502
  696TIP3    H226284   6.690   6.809  17.900 -0.4049  0.7476  1.1503
  697TIP3   OH226285   4.149   5.368  18.986 -0.1597  0.0181  0.4265
  697TIP3    H126286   4.232   5.409  19.008  0.8137 -1.5596 -0.1729
  697TIP3    H226287   4.107   5.429  18.926  0.3909  0.9822  0.9864
  698TIP3   OH226288   1.293   2.048  17.970  0.1341 -0.2554 -0.2784
  698TIP3    H126289   1.222   2.018  17.913  0.5842 -0.4425 -0.7609
  698TIP3    H226290   1.252   2.063  18.055 -0.7154  0.7935 -0.8548
  699TIP3   OH226291   1.253   0.759  16.781 -0.4593 -0.6331 -0.3330
  699TIP3    H126292   1.284   0.846  16.806 -1.4880 -0.4187  0.2631
  699TIP3    H226293   1.312   0.698  16.826 -0.3596 -0.2464  0.0597
  700TIP3   OH226294   3.728   3.929  19.066 -0.2474 -0.3843  0.1510
  700TIP3    H126295   3.768   4.015  19.077 -0.0672 -0.4002 -0.3872
  700TIP3    H226296   3.739   3.908  18.973  0.6598 -1.4453  0.4667
  701TIP3   OH226297   6.550   7.349  18.366 -0.0450  0.4340 -0.2316
  701TIP3    H126298   6.541   7.370  18.273 -0.3969 -0.5609 -0.4422
  701TIP3    H226299   6.607   7.272  18.368  0.4674  0.8200  0.4237
  702TIP3   OH226300   1.136   5.107  19.720  0.6289 -0.0584 -0.4171
  702TIP3    H126301   1.138   5.196  19.756  0.5945  0.3367 -1.3606
  702TIP3    H226302   1.111   5.119  19.628 -1.7374 -1.2288 -0.0073
  703TIP3   OH226303   7.580   4.134  17.361  0.3476 -0.0648  0.1345
  703TIP3    H126304   7.652   4.073  17.379  0.7593  0.5730  0.7689
  703TIP3    H226305   7.581   4.194  17.436 -0.4670  0.3165 -0.1462
  704TIP3   OH226306   6.965   6.123  18.774  0.6450  0.0486 -0.4046
  704TIP3    H126307   6.905   6.195  18.790 -0.2918 -0.8473  0.1837
  704TIP3    H226308   7.049   6.154  18.808  0.3001  0.9257 -0.3229
  705TIP3   OH226309   1.716   4.827  18.884 -0.2225 -0.2074  0.1075
  705TIP3    H126310   1.786   4.870  18.834  0.8277 -1.9817 -0.0357
  705TIP3    H226311   1.644   4.890  18.884  1.3812  1.6907  0.2757
  706TIP3   OH226312   4.941   3.176  18.701  0.5496  0.0032 -0.2471
  706TIP3    H126313   4.849   3.192  18.721  0.2751 -0.9519 -0.6731
  706TIP3    H226314   4.967   3.107  18.762  0.3889 -1.1795 -1.4702
  707TIP3   OH226315   5.756   0.114  18.173  0.4352  0.1698 -0.1587
  707TIP3    H126316   5.821   0.044  18.163  0.5105  0.2123  0.0311
  707TIP3    H226317   5.673   0.069  18.183  0.2341  0.1252 -1.7930
  708TIP3   OH226318   0.457   0.942  19.096  0.1750 -0.0006  0.3313
  708TIP3    H126319   0.407   0.870  19.134 -0.0819 -0.3005 -0.5446
  708TIP3    H226320   0.418   1.021  19.135 -0.5345 -0.2629  0.1779
  709TIP3   OH226321   1.035   1.145  17.977  0.4027  0.2933 -0.3023
  709TIP3    H126322   1.034   1.058  18.018  1.5870 -0.0122 -0.8553
  709TIP3    H226323   0.993   1.132  17.892 -0.0395  0.4222 -0.1048
  710TIP3   OH226324   6.617   4.971  17.715 -0.1572  0.6210 -0.8198
  710TIP3    H126325   6.619   4.941  17.806  0.0015  0.1929 -0.9582
  710TIP3    H226326   6.697   5.021  17.703  0.7455 -0.8460 -1.2160
  711TIP3   OH226327   0.352   0.690  19.193 -0.1259 -0.0883  0.2140
  711TIP3    H126328   0.336   0.682  19.287 -0.6643  1.0275  0.2316
  711TIP3    H226329   0.270   0.663  19.152  0.4849 -1.7269 -0.0081
  712TIP3   OH226330   2.483   4.454  18.358  0.2886  0.2065 -0.5552
  712TIP3    H126331   2.442   4.367  18.360 -1.9466  1.1953 -0.4355
  712TIP3    H226332   2.559   4.446  18.416 -0.3639 -1.4453  0.1233
  713TIP3   OH226333   0.719   1.539  17.544 -0.5446  0.1130  0.5690
  713TIP3    H126334   0.709   1.599  17.470  1.4477  0.4170  0.5025
  713TIP3    H226335   0.699   1.453  17.507 -1.8838  0.5058  0.2887
  714TIP3   OH226336   1.595   1.071  17.634 -0.1620  0.1744  0.0226
  714TIP3    H126337   1.651   1.084  17.711 -1.4874  2.9574  0.6673
  714TIP3    H226338   1.537   0.999  17.658  0.6552 -0.2227  0.8582
  715TIP3   OH226339   0.723   5.076  17.163  0.1643  0.3167 -0.1216
  715TIP3    H126340   0.774   5.010  17.117  1.7060  1.5520 -0.2506
  715TIP3    H226341   0.632   5.058  17.138  0.8292  0.2274 -2.7457
  716TIP3   OH226342   2.795   2.703  17.876  0.3250 -0.1543  0.5208
  716TIP3    H126343   2.814   2.744  17.960  2.2391  1.1422 -0.4884
  716TIP3    H226344   2.831   2.763  17.810  1.2651 -2.3959 -1.1309
  717TIP3   OH226345   0.780   4.677  17.934  0.1583 -0.5711 -0.0256
  717TIP3    H126346   0.867   4.656  17.901 -0.0808 -1.5441 -0.0439
  717TIP3    H226347   0.781   4.649  18.026  0.3743  0.8712  0.4387
  718TIP3   OH226348   5.701   3.200  17.613  0.3355 -0.3482  0.5449
  718TIP3    H126349   5.752   3.264  17.563  0.9322  1.6740  3.4617
  718TIP3    H226350   5.663   3.251  17.684 -2.7172 -2.5424  0.6591
  719TIP3   OH226351   4.247   5.955  18.699 -0.2545 -0.1089  0.1219
  719TIP3    H126352   4.297   6.009  18.638  1.4677  0.7906  2.1738
  719TIP3    H226353   4.195   6.017  18.749 -0.1081 -0.5836  0.8833
  720TIP3   OH226354   6.455   0.069  19.342  0.4072  0.1905 -0.2933
  720TIP3    H126355   6.486  -0.021  19.345  2.6349  0.9269  0.3337
  720TIP3    H226356   6.489   0.109  19.422 -0.5126  1.6118 -0.5656
  721TIP3   OH226357   2.731   5.871  18.784  0.0477 -0.2285 -0.2722
  721TIP3    H126358   2.825   5.859  18.777 -0.0047 -0.7087 -0.1695
  721TIP3    H226359   2.696   5.835  18.703  0.0431  1.0699 -0.8693
  722TIP3   OH226360   6.638   6.045  18.835  0.0894  0.2307  0.0806
  722TIP3    H126361   6.730   6.030  18.860  0.3814 -0.1953 -1.1842
  722TIP3    H226362   6.638   6.132  18.795  0.2350 -0.3393 -1.2041
  723TIP3   OH226363   0.213   0.978  19.398 -0.1096  0.0089  0.1020
  723TIP3    H126364   0.306   0.982  19.421 -0.2554 -0.0060  0.7280
  723TIP3    H226365   0.180   1.066  19.416 -0.0762  0.1979 -0.7545
  724TIP3   OH226366   4.706   7.365  18.705 -0.4751 -0.1458 -0.0874
  724TIP3    H126367   4.756   7.374  18.624  1.0243 -0.7470  0.7182
  724TIP3    H226368   4.744   7.431  18.763 -1.5139  0.2582  0.1477
  725TIP3   OH226369   4.937   4.088  17.676  0.5281 -0.4017 -0.4581
  725TIP3    H126370   4.904   4.169  17.715 -0.9838 -0.7870 -0.8595
  725TIP3    H226371   5.031   4.088  17.696  0.4101  1.0441  0.2389
  726TIP3   OH226372   1.818   3.415  18.441 -0.2543 -0.3487  0.3107
  726TIP3    H126373   1.898   3.467  18.447 -1.7264  2.2732 -1.2287
  726TIP3    H226374   1.759   3.452  18.507 -1.2718 -0.1585 -0.6762
  727TIP3   OH226375   3.246   5.292  18.338 -0.3687  0.3134  0.0147
  727TIP3    H126376   3.332   5.334  18.334 -0.1187 -0.0855  0.9488
  727TIP3    H226377   3.195   5.335  18.269  1.6537 -1.9384 -3.1936
  728TIP3   OH226378   1.408   3.135  18.031  0.7258  0.0157 -0.0948
  728TIP3    H126379   1.366   3.162  17.949 -0.6479 -0.3292  0.4673
  728TIP3    H226380   1.443   3.048  18.013 -1.0256 -0.7776  0.1317
  729TIP3   OH226381   5.547   2.987  19.010  0.1125 -0.3203  0.0372
  729TIP3    H126382   5.623   2.959  19.060  0.4652  2.1156  1.0229
  729TIP3    H226383   5.577   3.066  18.963 -1.3869 -0.1581 -0.7093
  730TIP3   OH226384   6.573   1.837  18.195  0.2035  0.1557  0.5542
  730TIP3    H126385   6.664   1.863  18.177  1.4899 -2.8492  1.9394
  730TIP3    H226386   6.537   1.817  18.109  2.3490 -2.6517  0.1465
  731TIP3   OH226387   2.053   5.026  19.185 -0.8403  0.1018  0.1454
  731TIP3    H126388   2.047   5.052  19.093  0.6970 -0.7975 -0.2330
  731TIP3    H226389   2.082   5.106  19.230 -0.9629  0.3693 -0.2437
  732TIP3   OH226390   4.474   5.802  18.825 -0.1318  0.6128 -0.4788
  732TIP3    H126391   4.417   5.847  18.763 -1.0007  0.5811  0.2693
  732TIP3    H226392   4.536   5.754  18.771 -1.0552  0.3414 -1.3269
  733TIP3   OH226393   4.996   2.970  17.881  0.3219  0.7115 -0.2123
  733TIP3    H126394   4.908   2.938  17.901  0.3628 -0.2964 -1.4756
  733TIP3    H226395   5.010   3.042  17.942 -0.5157 -0.5155  1.5092
  734TIP3   OH226396   5.505   0.868  17.981  0.2163  0.1363 -0.8488
  734TIP3    H126397   5.474   0.879  17.891  1.5114  0.7271 -1.2503
  734TIP3    H226398   5.475   0.781  18.006 -3.1650  1.2435 -0.5645
  735TIP3   OH226399   6.854   0.466  19.760  0.3282 -0.2244  0.0024
  735TIP3    H126400   6.928   0.524  19.742  0.6061 -0.5049  0.2230
  735TIP3    H226401   6.818   0.497  19.843 -0.4340  0.5444 -0.5978
  736TIP3   OH226402   3.100   6.977  17.110  0.1724 -0.2138  0.5165
  736TIP3    H126403   3.099   7.055  17.055 -1.3301 -1.6966 -1.6815
  736TIP3    H226404   3.184   6.935  17.090  0.4392  0.1675  0.7923
  737TIP3   OH226405   1.847   2.273  19.387 -0.0351 -0.5236 -0.0199
  737TIP3    H126406   1.830   2.228  19.304  2.3097 -0.2818 -0.7259
  737TIP3    H226407   1.764   2.312  19.411 -1.0489 -1.5280 -1.6906
  738TIP3   OH226408   6.152   7.196  17.286  0.2710 -0.3102  0.2289
  738TIP3    H126409   6.199   7.192  17.369 -0.1701  3.0465  0.7936
  738TIP3    H226410   6.166   7.286  17.255 -2.0303 -0.5520 -1.8621
  739TIP3   OH226411   7.528   1.359  18.015 -0.3948 -0.3653  0.0649
  739TIP3    H126412   7.484   1.421  18.073  0.7538  0.9923 -0.4532
  739TIP3    H226413   7.612   1.341  18.057  0.3207  0.3888 -0.9701
  740TIP3   OH226414   1.369   3.118  19.240  1.0050  0.6210  0.4671
  740TIP3    H126415   1.310   3.084  19.308  1.8394 -0.6844  0.5711
  740TIP3    H226416   1.457   3.098  19.272  1.4181 -0.5035 -1.2048
  741TIP3   OH226417   2.795   7.282  17.194  0.6961  0.3624 -0.7985
  741TIP3    H126418   2.763   7.247  17.111  0.4411 -0.0044 -0.5472
  741TIP3    H226419   2.881   7.318  17.173  0.8040 -0.0823 -1.1453
  742TIP3   OH226420   6.944   4.615  17.868  0.0509  0.9385  0.1211
  742TIP3    H126421   6.894   4.609  17.949 -0.4001  0.6608 -0.1734
  742TIP3    H226422   7.014   4.677  17.887  0.7164 -0.0774  1.1266
  743TIP3   OH226423   1.978   7.145  18.475 -0.3003 -0.1947 -0.0267
  743TIP3    H126424   2.005   7.181  18.391 -1.5676 -1.3071 -0.9428
  743TIP3    H226425   2.032   7.067  18.486 -0.1342 -0.0495  0.2079
  744TIP3   OH226426   5.700   3.469  16.987 -0.1431  0.1631  0.6676
  744TIP3    H126427   5.693   3.397  16.924  1.1142  1.4077 -0.9895
  744TIP3    H226428   5.620   3.520  16.973 -1.1740 -0.9921  2.0415
  745TIP3   OH226429   4.784   2.966  19.160  0.1546 -0.1538  0.2871
  745TIP3    H126430   4.773   2.880  19.121  0.6094  0.2221 -0.7041
  745TIP3    H226431   4.696   2.993  19.184 -0.3760  0.2279 -1.8681
  746TIP3   OH226432   0.660   0.905  17.205 -0.2245  0.7873 -0.2325
  746TIP3    H126433   0.633   0.977  17.261 -0.8920  0.6260 -0.3367
  746TIP3    H226434   0.678   0.833  17.265  1.9612  1.4559  0.0108
  747TIP3   OH226435   3.076   2.485  18.113 -0.5798 -0.1799  0.2725
  747TIP3    H126436   3.113   2.451  18.194  0.4940  0.2339 -0.0221
  747TIP3    H226437   3.078   2.580  18.124 -0.3364 -0.1187 -0.2668
  748TIP3   OH226438   2.709   0.145  18.171  0.0406  0.0407  0.2086
  748TIP3    H126439   2.713   0.073  18.234  0.5422 -0.0407  0.0878
  748TIP3    H226440   2.679   0.220  18.222  1.3427  0.2079  0.7690
  749TIP3   OH226441   1.790   7.434  18.290 -0.5675  0.5217  0.0065
  749TIP3    H126442   1.807   7.478  18.374  0.9787  0.3189 -0.1750
  749TIP3    H226443   1.712   7.477  18.256 -0.8208  1.0750  1.2268
  750TIP3   OH226444   5.282   4.224  19.079 -0.0037 -0.4958  0.2532
  750TIP3    H126445   5.218   4.248  19.012 -0.0092 -0.0070  0.4263
  750TIP3    H226446   5.313   4.137  19.053  0.1825 -0.2063 -0.5305
  751TIP3   OH226447   3.195   3.393  17.712 -0.4711  0.2131  0.3240
  751TIP3    H126448   3.121   3.419  17.767 -0.5101 -0.7943  0.7815
  751TIP3    H226449   3.166   3.411  17.623 -0.6193  1.3749  0.5979
  752TIP3   OH226450   4.282   4.920  18.390  0.0984 -0.1500  0.0110
  752TIP3    H126451   4.233   4.837  18.390 -0.8608  0.3939  0.8757
  752TIP3    H226452   4.282   4.947  18.482  1.8234  0.0018 -0.0063
  753TIP3   OH226453   4.999   7.122  16.475 -0.3300 -0.3908  0.1342
  753TIP3    H126454   5.052   7.042  16.472  0.5850  0.1977  0.0724
  753TIP3    H226455   4.909   7.091  16.482 -0.2546 -1.4909 -2.7178
  754TIP3   OH226456   2.102   6.879  19.605  0.2191  0.7007 -0.2438
  754TIP3    H126457   2.091   6.897  19.698 -0.6582 -0.7846 -0.0241
  754TIP3    H226458   2.114   6.784  19.600  0.5948  0.7956 -1.6255
  755TIP3   OH226459   2.628   3.540  17.198 -0.1063 -0.1396 -0.1749
  755TIP3    H126460   2.633   3.631  17.227  1.9163 -0.2425 -0.0778
  755TIP3    H226461   2.698   3.496  17.246 -1.2730 -1.8542  0.0470
  756TIP3   OH226462   6.363   4.962  18.096 -0.0957  0.1112 -0.0825
  756TIP3    H126463   6.319   5.001  18.021  1.5474  0.1240 -1.0968
  756TIP3    H226464   6.378   4.871  18.069 -0.2130 -0.1074  0.5740
  757TIP3   OH226465   1.415   1.707  18.275  0.0939 -0.6088 -0.0079
  757TIP3    H126466   1.357   1.769  18.232  0.7830 -1.2515 -1.9749
  757TIP3    H226467   1.439   1.750  18.357  1.4417  2.3072 -1.7669
  758TIP3   OH226468   4.300   4.720  18.825  0.5366 -0.7248 -0.1713
  758TIP3    H126469   4.343   4.678  18.900  1.4730 -0.3926 -0.5005
  758TIP3    H226470   4.209   4.729  18.851  0.8586 -0.5731  0.9586
  759TIP3   OH226471   6.132   6.367  17.830 -0.2667 -0.0687  0.5220
  759TIP3    H126472   6.138   6.272  17.822  0.8175  0.1229 -2.9507
  759TIP3    H226473   6.045   6.389  17.797  0.4741  0.1868 -1.4612
  760TIP3   OH226474   1.873   3.829  18.141 -0.7977 -0.5879 -0.5066
  760TIP3    H126475   1.952   3.871  18.108 -1.1968  1.6553  1.1904
  760TIP3    H226476   1.802   3.870  18.091 -1.0741 -0.6802 -0.1912
  761TIP3   OH226477   4.082   2.583  19.311 -0.3084 -0.0814 -0.8315
  761TIP3    H126478   4.038   2.645  19.369 -1.8022  0.2635 -2.2866
  761TIP3    H226479   4.164   2.626  19.287 -0.0474  0.1129  0.3495
  762TIP3   OH226480   4.175   6.555  19.494 -0.8494 -0.2277 -0.5367
  762TIP3    H126481   4.269   6.539  19.495 -0.7342  0.4490  0.2608
  762TIP3    H226482   4.166   6.649  19.481 -1.4349 -0.3444 -1.0735
  763TIP3   OH226483   3.161   3.376  19.146  0.2536 -0.2344  0.0569
  763TIP3    H126484   3.214   3.303  19.177 -0.0600 -0.1864  0.7385
  763TIP3    H226485   3.072   3.357  19.178  0.2727  0.7092  0.7288
  764TIP3   OH226486   5.481   6.797  17.937 -0.9963  0.1146 -0.2757
  764TIP3    H126487   5.551   6.835  17.884  0.0049 -0.8789  0.2870
  764TIP3    H226488   5.526   6.755  18.010 -2.2619  0.3742  0.7057
  765TIP3   OH226489   0.627   3.341  18.135  0.4398  0.6232  0.3161
  765TIP3    H126490   0.609   3.357  18.228 -0.6688  0.0700  0.2131
  765TIP3    H226491   0.641   3.429  18.098  2.7194  0.7649  1.3132
  766TIP3   OH226492   5.624   4.767  18.676  0.1875  0.2867 -0.1335
  766TIP3    H126493   5.640   4.739  18.766 -1.2703 -0.2703 -0.0130
  766TIP3    H226494   5.610   4.686  18.628 -2.1845  0.6416 -0.1806
  767TIP3   OH226495   0.636   4.037  18.847  0.0778  0.0672  0.3026
  767TIP3    H126496   0.653   3.976  18.919 -0.3396  0.5191  0.7923
  767TIP3    H226497   0.568   3.994  18.795  0.3926 -0.2673  0.1584
  768TIP3   OH226498   0.641   1.549  17.910  0.3174 -0.3257 -0.1403
  768TIP3    H126499   0.550   1.520  17.901  0.7650 -1.7386 -0.3522
  768TIP3    H226500   0.639   1.642  17.885 -1.2195 -0.0553  0.8499
  769TIP3   OH226501   2.925   2.731  18.579  0.7114 -0.2112  0.0396
  769TIP3    H126502   2.835   2.710  18.604  0.7275 -1.0242 -0.5400
  769TIP3    H226503   2.979   2.686  18.645  0.7028 -0.1933  0.0596
  770TIP3   OH226504   3.685   6.234  19.283 -0.2161 -0.4432  0.5967
  770TIP3    H126505   3.648   6.149  19.259  1.3516 -0.9707 -0.1267
  770TIP3    H226506   3.690   6.281  19.199  2.7205 -1.2365  0.2304
  771TIP3   OH226507   6.704   5.087  19.350 -0.5382 -0.1500 -0.1589
  771TIP3    H126508   6.736   5.177  19.353 -1.9830  0.5130 -2.0970
  771TIP3    H226509   6.614   5.093  19.384 -0.1230 -1.1743  1.1765
  772TIP3   OH226510   4.843   4.962  19.504 -0.1873 -0.6532 -0.5905
  772TIP3    H126511   4.785   4.958  19.580  0.8409 -2.1282  0.1658
  772TIP3    H226512   4.834   5.052  19.472 -1.2447 -0.2289  0.7908
  773TIP3   OH226513   6.364   0.655  16.932 -0.5236  0.2414 -0.6485
  773TIP3    H126514   6.412   0.703  16.864  0.9782  1.1724  0.9661
  773TIP3    H226515   6.284   0.625  16.889  0.3459  0.8151 -2.7915
  774TIP3   OH226516   2.484   3.509  16.934  0.0254  0.2374  0.3759
  774TIP3    H126517   2.565   3.545  16.896  1.0682  0.6344  2.7814
  774TIP3    H226518   2.415   3.569  16.906  0.9392  1.1971  0.1295
  775TIP3   OH226519   0.145   1.705  19.088  0.0776  0.6172  0.2580
  775TIP3    H126520   0.140   1.609  19.080  0.3599  0.4632  1.7552
  775TIP3    H226521   0.071   1.729  19.143  1.7592  0.8748  2.5505
  776TIP3   OH226522   1.546   1.060  17.368  0.5011  0.0441  0.2750
  776TIP3    H126523   1.457   1.095  17.371  0.6230  0.3046  1.1118
  776TIP3    H226524   1.578   1.069  17.458  0.8424 -1.4171  0.3230
  777TIP3   OH226525   1.941   0.236  17.449 -0.1773  0.8242  0.4139
  777TIP3    H126526   1.875   0.298  17.480 -1.3563 -0.0353 -0.2868
  777TIP3    H226527   2.009   0.237  17.516 -1.7780  0.3766  2.1234
  778TIP3   OH226528   6.872   5.415  18.725 -0.2771 -0.5553  0.1115
  778TIP3    H126529   6.905   5.457  18.646  1.8452  0.3165  1.3602
  778TIP3    H226530   6.788   5.458  18.742  0.6249  1.4226 -0.0831
  779TIP3   OH226531   2.295   6.761  17.626  0.0142 -0.1469  0.3809
  779TIP3    H126532   2.213   6.726  17.663 -0.0170  0.3347  0.7727
  779TIP3    H226533   2.274   6.851  17.603 -0.2080 -0.6533 -1.5965
  780TIP3   OH226534   7.110   2.930  17.720  0.3568 -0.3983  0.2197
  780TIP3    H126535   7.190   2.880  17.729  1.3122  1.2664  1.5721
  780TIP3    H226536   7.127   3.012  17.767 -0.6842  1.7143 -2.7164
  781TIP3   OH226537   5.582   5.766  18.125  0.0487  0.8250  0.1482
  781TIP3    H126538   5.612   5.675  18.120  0.7817  1.0340  0.5411
  781TIP3    H226539   5.511   5.764  18.189  0.4139  0.6066  0.5574
  782TIP3   OH226540   5.737   6.681  19.028 -0.5562 -0.2405  0.0527
  782TIP3    H126541   5.750   6.644  18.940 -0.8694  0.7163 -0.4136
  782TIP3    H226542   5.825   6.687  19.065 -0.3816 -0.3117 -0.3448
  783TIP3   OH226543   7.148   1.809  16.502 -0.2011  0.1816 -0.2475
  783TIP3    H126544   7.067   1.768  16.533  1.0021 -3.1855 -1.1143
  783TIP3    H226545   7.124   1.852  16.421 -1.6380  1.7864  0.9499
  784TIP3   OH226546   2.852   0.069  19.107  0.4053 -0.4872 -0.2282
  784TIP3    H126547   2.897   0.137  19.158 -3.1077  2.4961 -0.7051
  784TIP3    H226548   2.875   0.088  19.016 -1.9121  1.3886 -0.5236
  785TIP3   OH226549   3.708   3.816  18.819  0.4544 -0.1309 -0.1614
  785TIP3    H126550   3.670   3.728  18.816 -0.3366  0.1946 -0.0817
  785TIP3    H226551   3.781   3.813  18.758 -0.3309 -0.5062 -1.1168
  786TIP3   OH226552   6.974   5.490  18.445  0.1872 -0.2536  0.1071
  786TIP3    H126553   6.935   5.518  18.363 -0.6057 -1.8630 -0.1204
  786TIP3    H226554   7.022   5.410  18.422 -1.7695 -1.9442  1.4931
  787TIP3   OH226555   5.328   5.502  18.462  0.0233 -0.2314 -0.1958
  787TIP3    H126556   5.264   5.467  18.525  0.5616 -1.8822 -0.5171
  787TIP3    H226557   5.381   5.426  18.437  1.3845  0.8826 -0.8083
  788TIP3   OH226558   1.664   0.252  18.036  0.1645 -0.3316 -0.0409
  788TIP3    H126559   1.726   0.184  18.064  0.7454 -0.5126 -1.6743
  788TIP3    H226560   1.675   0.322  18.100  1.2485 -0.8180  0.3262
  789TIP3   OH226561   5.030   5.331  17.478 -0.5032  0.6554  0.1048
  789TIP3    H126562   5.076   5.266  17.530 -0.7462 -0.5817 -1.1803
  789TIP3    H226563   5.084   5.410  17.485  0.1274  0.1517  1.1553
  790TIP3   OH226564   4.574   3.040  16.766 -0.0695  0.0682  0.3327
  790TIP3    H126565   4.490   3.005  16.738  0.1568 -0.4305  0.2678
  790TIP3    H226566   4.627   3.041  16.686  0.2521 -0.4007  0.5367
  791TIP3   OH226567   2.379   4.823  17.330 -0.2217 -0.3025  0.0373
  791TIP3    H126568   2.364   4.882  17.256  0.8887 -0.3872 -0.2689
  791TIP3    H226569   2.466   4.847  17.362  0.1328 -1.5859  0.0707
  792TIP3   OH226570   5.656   6.926  18.877 -0.0886 -0.1433 -0.8385
  792TIP3    H126571   5.745   6.918  18.912  0.5178  1.1087 -2.0164
  792TIP3    H226572   5.608   6.855  18.920  1.3354 -0.5338  0.2201
  793TIP3   OH226573   5.676   4.540  18.522  0.2356 -0.3861 -0.2074
  793TIP3    H126574   5.639   4.462  18.563  0.1481 -0.0606  0.3414
  793TIP3    H226575   5.689   4.516  18.430 -1.8979 -0.3259 -0.5693
  794TIP3   OH226576   4.196   2.039  18.390  0.0628 -0.1707  0.0040
  794TIP3    H126577   4.107   2.073  18.394  0.5598  1.2448 -0.1130
  794TIP3    H226578   4.251   2.118  18.381  1.2487 -1.0544 -0.9307
  795TIP3   OH226579   4.007   3.088  18.786  0.1382 -0.3869  0.4105
  795TIP3    H126580   4.016   3.183  18.784  1.6140 -0.5069  0.2565
  795TIP3    H226581   4.062   3.060  18.860 -0.2883 -1.1191  0.4602
  796TIP3   OH226582   0.634   4.068  17.158 -0.1211 -0.0079 -0.1197
  796TIP3    H126583   0.689   4.091  17.083  0.3704  0.7235  0.4471
  796TIP3    H226584   0.649   4.138  17.221 -1.7979  0.2662  0.0165
  797TIP3   OH226585   5.917   4.442  19.184  0.2355 -0.1054  0.0700
  797TIP3    H126586   5.838   4.496  19.187  0.1503 -0.2625  0.6301
  797TIP3    H226587   5.900   4.369  19.244 -0.1175 -1.4156 -1.5520
  798TIP3   OH226588   0.972   4.006  16.751 -0.2895 -0.3300 -0.3497
  798TIP3    H126589   0.921   4.086  16.739 -0.3608 -0.4827 -1.0983
  798TIP3    H226590   0.907   3.935  16.748 -0.5500 -0.3392  2.4842
  799TIP3   OH226591   1.173   4.256  19.435  0.5478 -0.2062 -0.0720
  799TIP3    H126592   1.102   4.309  19.471 -0.8939 -0.7166 -1.9731
  799TIP3    H226593   1.253   4.302  19.461 -0.6066  2.9517 -1.5557
  800TIP3   OH226594   1.294   2.696  18.530  0.5464  0.1585  0.0873
  800TIP3    H126595   1.209   2.727  18.497  0.5851 -0.4860 -0.6710
  800TIP3    H226596   1.314   2.753  18.604  0.1009  1.2116 -0.5736
  801TIP3   OH226597   7.643   4.973  19.696 -0.1615 -0.1293 -0.1923
  801TIP3    H126598   7.646   4.912  19.769 -1.4992  1.1989  1.0426
  801TIP3    H226599   7.725   5.023  19.703 -0.9579  1.0463  1.4265
  802TIP3   OH226600   3.211   7.421  18.662  0.0876  0.0022 -0.6239
  802TIP3    H126601   3.131   7.435  18.713  0.2484 -0.0409 -0.3593
  802TIP3    H226602   3.265   7.498  18.680  0.4511 -0.3655 -0.1512
  803TIP3   OH226603   3.452   0.495  18.678  0.0333 -0.0229 -0.2290
  803TIP3    H126604   3.505   0.491  18.599 -0.2124 -0.2166 -0.3851
  803TIP3    H226605   3.515   0.492  18.750  0.2548  0.1292 -0.4158
  804TIP3   OH226606   0.743   7.105  18.453  0.0185 -0.2360 -0.0821
  804TIP3    H126607   0.821   7.160  18.454  0.1814 -0.4651  0.3694
  804TIP3    H226608   0.755   7.046  18.528 -0.8386  0.0849  0.3212
  805TIP3   OH226609   6.314   2.767  18.133  0.0474  0.2108 -0.0121
  805TIP3    H126610   6.406   2.789  18.120 -0.0219  0.1096 -0.6735
  805TIP3    H226611   6.316   2.682  18.178  0.2912  1.0073  1.5779
  806TIP3   OH226612   1.728   4.578  19.015 -0.2131  0.2415  0.0064
  806TIP3    H126613   1.741   4.512  18.947 -1.5987 -0.6980  0.6025
  806TIP3    H226614   1.728   4.661  18.969  2.0356 -0.0915 -0.7141
  807TIP3   OH226615   6.192   0.849  16.794 -0.1908 -0.0727  0.3579
  807TIP3    H126616   6.181   0.941  16.770 -1.1106  0.1060  1.4085
  807TIP3    H226617   6.116   0.805  16.756  0.5979 -0.5360 -0.7317
  808TIP3   OH226618   7.559   1.999  19.136 -0.0518 -0.3449  0.1348
  808TIP3    H126619   7.540   2.088  19.164 -0.1173 -0.6023  0.9194
  808TIP3    H226620   7.566   1.949  19.217 -1.6742 -1.3975 -0.3129
  809TIP3   OH226621   1.159   6.853  17.141  0.2078  0.2192  0.2061
  809TIP3    H126622   1.205   6.815  17.066 -0.3136  0.5273 -0.2722
  809TIP3    H226623   1.090   6.789  17.162  0.8518 -0.2648  0.9538
  810TIP3   OH226624   3.707   6.022  18.293 -0.1369 -0.1713  0.3024
  810TIP3    H126625   3.628   6.067  18.322  0.7403 -0.3733  3.4075
  810TIP3    H226626   3.777   6.086  18.308  0.4323 -0.3089 -1.5454
  811TIP3   OH226627   6.508   3.645  19.332  0.2734  0.9936 -0.3185
  811TIP3    H126628   6.578   3.672  19.392  0.8264  0.3388 -0.6564
  811TIP3    H226629   6.496   3.720  19.274 -0.3194  1.6697  0.6497
  812TIP3   OH226630   2.600   2.142  17.112 -0.2343  0.0750 -0.2146
  812TIP3    H126631   2.571   2.194  17.037 -1.6653 -0.7318 -0.2652
  812TIP3    H226632   2.638   2.063  17.073 -1.6514 -0.6823 -0.1115
  813TIP3   OH226633   4.150   5.847  19.389  0.1812  0.0071  0.1606
  813TIP3    H126634   4.193   5.802  19.462 -0.4202 -0.4650  0.2345
  813TIP3    H226635   4.088   5.782  19.355  0.3545  0.2738 -0.6783
  814TIP3   OH226636   1.022   4.768  18.636 -0.4859 -0.2959  0.4425
  814TIP3    H126637   0.949   4.816  18.596 -1.1285 -0.2663  1.5893
  814TIP3    H226638   1.001   4.766  18.729  0.3744 -1.3647  0.6416
  815TIP3   OH226639   1.104   7.236  19.139 -0.4504 -0.6540 -0.6100
  815TIP3    H126640   1.098   7.302  19.208 -1.2190  0.1522 -1.4186
  815TIP3    H226641   1.142   7.159  19.182  0.2777  0.2408  0.4043
  816TIP3   OH226642   4.472   1.864  19.249  0.5522 -0.4743 -0.6647
  816TIP3    H126643   4.472   1.960  19.258  0.5510 -0.6043  0.9819
  816TIP3    H226644   4.533   1.847  19.177  2.9655  0.6225  1.0183
  817TIP3   OH226645   7.378   0.996  17.994  0.4041 -0.0403  0.6274
  817TIP3    H126646   7.319   1.026  17.925  0.1178  1.4688  1.4697
  817TIP3    H226647   7.458   0.970  17.948  0.7850  2.3439 -0.2256
  818TIP3   OH226648   7.665   1.700  18.340  0.3487 -0.3496 -0.0094
  818TIP3    H126649   7.732   1.766  18.358  0.8498 -0.4517 -1.3842
  818TIP3    H226650   7.595   1.719  18.403  2.1470 -1.0103  2.3255
  819TIP3   OH226651   0.715   6.094  19.008 -0.3889  0.2517  0.0938
  819TIP3    H126652   0.636   6.097  19.062  0.5367  1.2537  1.4444
  819TIP3    H226653   0.772   6.161  19.045  1.1401 -0.5122 -0.8009
  820TIP3   OH226654   2.290   7.029  17.598  0.2566  0.2417  0.1172
  820TIP3    H126655   2.219   7.049  17.537  2.3479  1.1936 -2.1659
  820TIP3    H226656   2.350   7.104  17.590  3.0160 -1.8700 -0.3955
  821TIP3   OH226657   1.001   7.576  18.919  0.4626 -0.5240 -0.2786
  821TIP3    H126658   1.031   7.488  18.899 -1.7588 -1.1864 -1.0535
  821TIP3    H226659   0.910   7.564  18.948  0.6145  1.3662  1.1764
  822TIP3   OH226660   2.850   6.119  18.582  0.1075  0.4469  0.1380
  822TIP3    H126661   2.930   6.167  18.561 -1.7744  2.9861 -1.9600
  822TIP3    H226662   2.807   6.172  18.649 -0.4575 -0.1305  0.2385
  823TIP3   OH226663   6.016   5.617  16.399 -0.1767  0.0192 -0.0746
  823TIP3    H126664   5.973   5.701  16.384  1.9119  1.1852  0.0412
  823TIP3    H226665   6.067   5.601  16.320  0.5985 -0.3760  0.4857
  824TIP3   OH226666   4.596   5.278  18.893  0.2496  0.3232 -0.2536
  824TIP3    H126667   4.511   5.303  18.858 -0.2702 -2.0635 -0.8909
  824TIP3    H226668   4.650   5.261  18.816  1.5324  2.3043  0.1320
  825TIP3   OH226669   5.338   3.404  19.119 -0.4698  0.2666 -0.1381
  825TIP3    H126670   5.301   3.356  19.045  2.8333  0.3174 -2.0085
  825TIP3    H226671   5.352   3.338  19.187 -1.1599 -0.2805 -0.5201
  826TIP3   OH226672   0.097   2.236  17.673  0.3522 -0.2831 -0.3765
  826TIP3    H126673   0.076   2.248  17.580 -0.6599  0.5791 -0.0459
  826TIP3    H226674   0.012   2.223  17.715  0.7458  0.0745  0.5364
  827TIP3   OH226675   2.734   5.996  17.484  0.4867 -0.1715 -0.4412
  827TIP3    H126676   2.805   5.943  17.446  1.4194  0.7269  0.0146
  827TIP3    H226677   2.716   5.955  17.569 -0.7619 -1.4408 -1.2619
  828TIP3   OH226678   4.192   5.589  19.572 -0.3345  0.7119 -0.0359
  828TIP3    H126679   4.188   5.512  19.628 -2.1677  0.3493 -0.5932
  828TIP3    H226680   4.260   5.643  19.611 -1.4760  0.4606  2.5259
  829TIP3   OH226681   2.293   5.801  19.303  0.3707 -0.8475  0.3390
  829TIP3    H126682   2.382   5.772  19.325  0.1083 -1.1862  0.9632
  829TIP3    H226683   2.269   5.859  19.375  0.7358  0.6438 -0.6867
  830TIP3   OH226684   0.480   0.132  18.196 -0.3363  0.0546 -0.0325
  830TIP3    H126685   0.497   0.187  18.119 -2.4358  0.1893 -0.4406
  830TIP3    H226686   0.523   0.179  18.268  1.9530 -0.2453 -1.1095
  831TIP3   OH226687   6.083   4.088  17.373  0.0057  0.0649 -0.4792
  831TIP3    H126688   6.113   4.058  17.459 -0.1139 -0.1936 -0.5260
  831TIP3    H226689   6.014   4.026  17.348  0.0363  0.1406 -0.7590
  832TIP3   OH226690   0.215   0.381  18.705 -0.3167  0.2380  0.1478
  832TIP3    H126691   0.179   0.304  18.749 -1.3399  0.9373  0.5878
  832TIP3    H226692   0.202   0.363  18.612  0.3443 -0.5344  0.1982
  833TIP3   OH226693   5.856   6.289  18.757  0.4031  0.0129  0.0746
  833TIP3    H126694   5.887   6.307  18.669  2.0192 -1.2443  0.3196
  833TIP3    H226695   5.804   6.210  18.749  1.4458 -0.7307  0.3601
  834TIP3   OH226696   0.681   2.862  18.415  0.4014  0.1120 -0.1718
  834TIP3    H126697   0.601   2.815  18.437  1.0917 -0.4070  1.3370
  834TIP3    H226698   0.676   2.875  18.320 -0.4493 -1.8148 -0.4276
  835TIP3   OH226699   7.611   5.412  18.234  0.3447  0.3872  0.1570
  835TIP3    H126700   7.666   5.341  18.199 -1.6638 -0.9651 -0.4553
  835TIP3    H226701   7.609   5.478  18.165  0.5493  0.0646 -0.1602
  836TIP3   OH226702   4.358   5.435  17.634  0.2353  0.1481 -0.3984
  836TIP3    H126703   4.396   5.521  17.652 -0.0348  0.1495  0.1630
  836TIP3    H226704   4.276   5.454  17.588 -0.1162  0.2070  0.2554
  837TIP3   OH226705   1.847   3.007  17.257  0.3791 -0.0110  0.3327
  837TIP3    H126706   1.756   3.001  17.287 -0.5998  2.0464 -1.9114
  837TIP3    H226707   1.870   2.916  17.234 -0.6174 -0.7685  2.1466
  838TIP3   OH226708   0.401   0.842  17.385 -0.6787 -0.2812  0.5617
  838TIP3    H126709   0.350   0.807  17.458 -0.9947 -0.0099  0.4728
  838TIP3    H226710   0.381   0.784  17.312 -0.8613 -0.1688  0.5251
  839TIP3   OH226711   1.182   3.552  19.084  0.4600  0.0160  0.1737
  839TIP3    H126712   1.210   3.557  18.992 -1.2938  1.9647 -0.3312
  839TIP3    H226713   1.200   3.462  19.109  2.1180 -0.2532 -1.6954
  840TIP3   OH226714   1.522   6.918  19.154  0.3396  0.7704 -0.2471
  840TIP3    H126715   1.517   6.880  19.241  0.9854 -1.3885 -1.0779
  840TIP3    H226716   1.614   6.943  19.144 -0.0635  2.6366  0.2662
  841TIP3   OH226717   4.012   2.783  16.979 -0.8454 -0.2761 -0.0497
  841TIP3    H126718   3.984   2.736  16.900 -0.8247 -0.9538  0.3409
  841TIP3    H226719   3.937   2.837  17.003 -0.7627  0.1321 -0.6762
  842TIP3   OH226720   0.623   5.691  17.057 -0.6409  0.0216 -0.3717
  842TIP3    H126721   0.645   5.597  17.052  0.9947  0.3548 -0.2460
  842TIP3    H226722   0.600   5.705  17.149  0.3791 -0.0416 -0.0840
  843TIP3   OH226723   5.336   5.397  16.580  0.7708 -0.4413 -0.2989
  843TIP3    H126724   5.247   5.424  16.604  1.6809  1.6112  0.9980
  843TIP3    H226725   5.392   5.436  16.647  2.7392 -1.0857 -1.4891
  844TIP3   OH226726   5.107   3.605  19.547  0.4993  0.3562  0.2765
  844TIP3    H126727   5.195   3.642  19.553  0.4058  0.6490 -0.1518
  844TIP3    H226728   5.058   3.668  19.494  0.8140 -1.2419 -2.0363
  845TIP3   OH226729   7.243   2.253  19.695  0.0883  0.3692  0.1864
  845TIP3    H126730   7.153   2.279  19.717  0.3466  0.1537  1.5793
  845TIP3    H226731   7.279   2.330  19.652 -0.6989  0.5270 -0.2241
  846TIP3   OH226732   6.374   5.823  17.060 -0.1568 -0.1439 -0.2015
  846TIP3    H126733   6.306   5.769  17.099 -1.6163  1.9806  0.4018
  846TIP3    H226734   6.391   5.783  16.975 -0.2208 -2.2411  0.7242
  847TIP3   OH226735   6.318   1.934  17.515 -0.4507 -0.5687  0.2615
  847TIP3    H126736   6.374   1.858  17.530 -0.3140 -0.1050  2.3893
  847TIP3    H226737   6.254   1.932  17.586 -1.1904  0.6588 -0.3227
  848TIP3   OH226738   3.635   6.297  18.119  0.0433 -0.0909 -0.4978
  848TIP3    H126739   3.564   6.337  18.170  0.3142  1.6077 -1.3897
  848TIP3    H226740   3.628   6.338  18.032  0.8139 -1.4682 -1.2513
  849TIP3   OH226741   7.400   0.207  19.035  0.4450 -0.3490  0.2654
  849TIP3    H126742   7.370   0.134  19.089  1.6924  0.5853  2.3321
  849TIP3    H226743   7.432   0.165  18.954 -0.4660 -1.8973  0.6566
  850TIP3   OH226744   6.032   1.633  18.529 -0.1063  0.2763  0.0586
  850TIP3    H126745   6.078   1.717  18.523  1.2997 -0.3884  0.9835
  850TIP3    H226746   6.016   1.621  18.622  1.1667 -1.1918  0.1367
  851TIP3   OH226747   5.097   2.711  17.961  0.0278 -0.1118 -0.2647
  851TIP3    H126748   5.110   2.783  17.899  1.0101  1.0723  1.2560
  851TIP3    H226749   5.091   2.754  18.047  0.3487 -1.8300  0.6566
  852TIP3   OH226750   2.703   4.785  18.873 -0.7620 -0.5080  0.5520
  852TIP3    H126751   2.693   4.823  18.960 -0.8435  2.6921 -0.6890
  852TIP3    H226752   2.618   4.802  18.830  0.9312  3.4107 -1.8670
  853TIP3   OH226753   6.600   4.461  19.458 -0.2599  0.1396 -0.1385
  853TIP3    H126754   6.550   4.541  19.475 -0.8436 -0.4329  0.8819
  853TIP3    H226755   6.535   4.390  19.462  0.3780 -0.4641 -0.2886
  854TIP3   OH226756   6.593   4.254  17.404  0.0281  0.7072  0.2077
  854TIP3    H126757   6.592   4.315  17.477  0.9803  1.5066 -0.4217
  854TIP3    H226758   6.598   4.168  17.445  1.6933  1.1851  1.0968
  855TIP3   OH226759   0.869   0.057  17.729 -0.3745  0.9086  0.0780
  855TIP3    H126760   0.856  -0.021  17.676  0.4418  1.2856 -0.7017
  855TIP3    H226761   0.926   0.029  17.800 -2.0034  0.2410  1.1883
  856TIP3   OH226762   3.188   3.843  18.099  0.0696 -0.3464  1.1208
  856TIP3    H126763   3.215   3.895  18.023 -1.0589 -0.9973  0.2350
  856TIP3    H226764   3.261   3.782  18.114 -1.0008 -2.4875 -1.5924
  857TIP3   OH226765   1.668   5.497  19.027  0.0415 -0.2156 -0.7279
  857TIP3    H126766   1.622   5.440  18.964 -1.2506 -0.6730  0.5648
  857TIP3    H226767   1.641   5.464  19.113  0.8954  1.0746  0.0661
  858TIP3   OH226768   7.463   3.477  18.956  0.2189 -0.1435  0.5265
  858TIP3    H126769   7.466   3.538  18.882  1.4093  0.8529  1.3395
  858TIP3    H226770   7.407   3.405  18.926 -0.5601  0.9458 -0.7755
  859TIP3   OH226771   4.566   7.464  17.903  0.3580 -0.1499 -0.2042
  859TIP3    H126772   4.576   7.531  17.971  1.0616 -2.2811  1.9667
  859TIP3    H226773   4.481   7.482  17.863 -1.0833  0.0603  2.6985
  860TIP3   OH226774   6.026   4.031  18.694  0.3381  0.4324 -0.1402
  860TIP3    H126775   5.990   4.068  18.774 -0.4375  0.9874 -0.7274
  860TIP3    H226776   6.079   3.956  18.723  0.4443  0.8975  0.9139
  861TIP3   OH226777   5.862   3.424  18.680 -0.4187  0.0280 -0.3665
  861TIP3    H126778   5.767   3.433  18.691 -0.1158  0.9527  2.2091
  861TIP3    H226779   5.882   3.338  18.715 -0.3587 -0.4972 -1.6382
  862TIP3   OH226780   4.191   4.337  19.111 -0.4128 -0.5523 -0.1270
  862TIP3    H126781   4.272   4.317  19.158  0.5396  3.6119  0.4046
  862TIP3    H226782   4.219   4.386  19.034 -2.3059  2.7394  1.0642
  863TIP3   OH226783   0.291   4.011  17.770  0.5500  0.2020 -0.1150
  863TIP3    H126784   0.351   4.063  17.823  2.1712  0.4109 -2.0467
  863TIP3    H226785   0.327   3.922  17.773 -0.1161 -0.0654  0.2018
  864TIP3   OH226786   5.322   0.768  19.198  0.5164  0.4170  0.0277
  864TIP3    H126787   5.383   0.835  19.167  1.9443  0.5014  2.6905
  864TIP3    H226788   5.378   0.691  19.213 -0.5317 -0.3684 -0.0078
  865TIP3   OH226789   7.033   4.128  17.892 -0.2796 -0.6959 -0.1209
  865TIP3    H126790   7.047   4.213  17.849 -1.0554 -0.3408  0.3056
  865TIP3    H226791   6.938   4.115  17.889 -0.0279 -3.1850 -3.2398
  866TIP3   OH226792   1.386   2.205  16.900 -0.0783 -0.2758  0.3269
  866TIP3    H126793   1.304   2.157  16.889 -0.3038 -0.3003  1.8482
  866TIP3    H226794   1.359   2.291  16.931  0.4727 -0.4959  1.4733
  867TIP3   OH226795   2.137   7.661  17.218 -0.1835  0.9714  0.5484
  867TIP3    H126796   2.056   7.710  17.204 -1.2204 -0.4928  1.2737
  867TIP3    H226797   2.118   7.572  17.188  1.5399  0.8518 -0.3693
  868TIP3   OH226798   0.502   0.531  19.408 -0.1229 -0.6583  0.1096
  868TIP3    H126799   0.424   0.575  19.441  0.0337  0.6017 -1.1305
  868TIP3    H226800   0.468   0.455  19.360 -0.4441 -1.3859  1.4524
  869TIP3   OH226801   5.695   6.408  18.425  0.8255 -0.0277  0.1927
  869TIP3    H126802   5.676   6.399  18.332 -0.4706  0.0581  0.4215
  869TIP3    H226803   5.790   6.404  18.431  0.8988 -4.0721 -0.7335
  870TIP3   OH226804   2.839   1.777  18.947 -0.4815  0.3533  0.7398
  870TIP3    H126805   2.791   1.711  18.897  1.1558 -1.9188  2.0019
  870TIP3    H226806   2.920   1.790  18.898 -0.9666  1.8179  0.2769
  871TIP3   OH226807   6.878   0.593  19.039 -0.0279 -0.3637 -0.1494
  871TIP3    H126808   6.897   0.516  19.092  2.0156  0.8979  1.1153
  871TIP3    H226809   6.792   0.576  19.002 -3.4336 -0.0981  6.1677
  872TIP3   OH226810   4.087   5.014  17.293 -0.1295  0.6014 -0.0372
  872TIP3    H126811   4.046   4.960  17.225  0.7663  0.3953 -0.4329
  872TIP3    H226812   4.135   5.081  17.244 -0.0757  0.8992  0.4175
  873TIP3   OH226813   5.407   1.378  17.855 -0.6738  0.2853 -0.1456
  873TIP3    H126814   5.452   1.463  17.849 -0.1259 -0.0243 -0.4330
  873TIP3    H226815   5.427   1.347  17.944 -0.1336  0.0443 -0.3510
  874TIP3   OH226816   2.759   1.116  18.632 -0.5556  0.5198 -0.0811
  874TIP3    H126817   2.711   1.199  18.628  0.1239  0.8939 -0.7283
  874TIP3    H226818   2.747   1.077  18.546 -1.1891 -0.2508  0.3412
  875TIP3   OH226819   7.151   3.863  17.891 -0.3226 -0.5935 -0.5104
  875TIP3    H126820   7.137   3.957  17.882 -0.8575 -0.7937 -2.1293
  875TIP3    H226821   7.117   3.842  17.978 -0.2723  0.6880 -0.1640
  876TIP3   OH226822   4.423   0.197  18.688  0.2162  0.1610  0.2068
  876TIP3    H126823   4.500   0.171  18.738 -0.7362  2.2590  2.9998
  876TIP3    H226824   4.351   0.147  18.726 -0.2908  0.5837 -0.1833
  877TIP3   OH226825   2.385   1.807  18.801  0.1366 -0.6642  0.3000
  877TIP3    H126826   2.470   1.791  18.761 -0.1630  1.8118 -1.5263
  877TIP3    H226827   2.344   1.721  18.806  2.5079 -1.8533  0.8171
  878TIP3   OH226828   7.093   1.775  18.702  0.2352 -0.3536  0.1561
  878TIP3    H126829   7.165   1.799  18.643 -0.7423 -1.8441 -1.7313
  878TIP3    H226830   7.061   1.692  18.668 -0.8437 -0.9305  2.4229
  879TIP3   OH226831   1.032   2.028  19.351 -0.0193  0.4601 -0.4196
  879TIP3    H126832   1.116   2.028  19.305  0.0420  1.0676 -0.3170
  879TIP3    H226833   0.985   2.102  19.314 -0.4676  0.1919 -0.3912
  880TIP3   OH226834   5.565   0.502  18.277 -0.1824 -0.4139 -0.0810
  880TIP3    H126835   5.528   0.553  18.349  0.1715 -1.1943  0.6669
  880TIP3    H226836   5.625   0.562  18.234 -0.5826  0.1395  0.1249
  881TIP3   OH226837   6.293   5.566  18.691 -0.4504  0.0120 -0.2604
  881TIP3    H126838   6.279   5.619  18.613  0.6456 -0.3402 -0.7105
  881TIP3    H226839   6.361   5.504  18.666  0.3262  0.2623  1.1601
  882TIP3   OH226840   0.307   5.146  18.735  0.0148 -0.2538 -0.2480
  882TIP3    H126841   0.286   5.079  18.799 -1.8830  0.8108  0.3194
  882TIP3    H226842   0.306   5.228  18.784 -0.1521  0.4489 -1.3853
  883TIP3   OH226843   0.959   3.745  19.441  0.2500 -0.0610  0.5252
  883TIP3    H126844   0.986   3.820  19.495  1.2908  0.7661 -1.0557
  883TIP3    H226845   0.960   3.779  19.351  1.7091 -2.2109 -0.3532
  884TIP3   OH226846   3.922   1.882  18.511  0.1978 -0.4076 -0.6422
  884TIP3    H126847   3.992   1.916  18.566  0.3915  0.6336 -1.4903
  884TIP3    H226848   3.938   1.788  18.505  1.8136 -0.1289 -1.1999
  885TIP3   OH226849   0.743   2.924  17.261  0.6676  0.1511 -0.4517
  885TIP3    H126850   0.685   2.867  17.211  1.7926  0.3890 -2.1016
  885TIP3    H226851   0.701   2.932  17.347 -0.3409 -1.8248 -0.7187
  886TIP3   OH226852   1.482   0.179  17.145  0.2191  0.0760  0.5264
  886TIP3    H126853   1.527   0.149  17.066  0.4414  0.0529  0.6608
  886TIP3    H226854   1.389   0.170  17.125  0.2410  1.1212 -0.1544
  887TIP3   OH226855   2.447   4.697  19.255 -0.2957  0.5212  0.4026
  887TIP3    H126856   2.480   4.645  19.328 -3.0609 -0.9435  0.7188
  887TIP3    H226857   2.449   4.637  19.180  0.2235  1.2621 -0.2025
  888TIP3   OH226858   7.564   2.225  18.555 -0.3251  0.0539 -0.1378
  888TIP3    H126859   7.570   2.251  18.647  0.5837  0.6476 -0.3477
  888TIP3    H226860   7.645   2.176  18.539  0.3785  1.4660 -1.0704
  889TIP3   OH226861   0.796   6.330  17.345 -0.7316  0.3792 -0.2105
  889TIP3    H126862   0.855   6.294  17.279 -0.0447  2.0334 -0.5294
  889TIP3    H226863   0.766   6.253  17.394 -1.0482 -0.8750 -2.2420
  890TIP3   OH226864   1.628   6.346  18.107  0.1242  0.3007  0.5410
  890TIP3    H126865   1.689   6.279  18.138  0.9664  0.6362 -0.3682
  890TIP3    H226866   1.556   6.296  18.068  1.6915 -0.1386 -1.9998
  891TIP3   OH226867   3.996   1.653  17.631 -0.4267 -0.0727 -0.0087
  891TIP3    H126868   4.008   1.646  17.537 -1.3694  0.0635 -0.1532
  891TIP3    H226869   4.000   1.563  17.663 -0.3509 -0.1404 -0.2096
  892TIP3   OH226870   3.412   7.314  18.819  0.0190 -0.1289 -0.2549
  892TIP3    H126871   3.327   7.319  18.776  0.3092 -0.0051 -0.8218
  892TIP3    H226872   3.426   7.221  18.836 -0.8356 -0.0390  1.0796
  893TIP3   OH226873   4.717   4.082  17.067  0.3923  0.3499 -0.0223
  893TIP3    H126874   4.803   4.101  17.103  1.9793 -0.8988 -2.8127
  893TIP3    H226875   4.727   3.996  17.025 -2.7489 -0.6834  1.0555
  894TIP3   OH226876   7.093   6.527  19.256  0.0384  0.3218 -0.1127
  894TIP3    H126877   7.093   6.434  19.278 -0.6001  0.3561  0.0338
  894TIP3    H226878   7.156   6.535  19.184  0.0661 -0.2247 -0.1477
  895TIP3   OH226879   4.431   2.286  17.927 -0.5890 -0.2254  0.2618
  895TIP3    H126880   4.387   2.280  18.012 -1.9686 -0.9600 -0.4692
  895TIP3    H226881   4.363   2.319  17.868 -0.0563 -1.0525 -0.8381
  896TIP3   OH226882   3.580   6.645  17.333  0.4131  0.0756 -0.0731
  896TIP3    H126883   3.491   6.613  17.319  1.0316 -1.2772 -1.1698
  896TIP3    H226884   3.582   6.731  17.293 -0.1874 -0.2286 -0.7659
  897TIP3   OH226885   5.313   1.885  19.563  0.4034 -0.2818 -0.3910
  897TIP3    H126886   5.307   1.866  19.656  2.6570 -0.5907 -0.2486
  897TIP3    H226887   5.300   1.801  19.520 -0.0722 -0.2374 -0.3408
  898TIP3   OH226888   0.794   0.003  18.365 -0.5431  0.4687 -0.0736
  898TIP3    H126889   0.761   0.092  18.362  0.0719  0.6951 -0.3859
  898TIP3    H226890   0.846  -0.001  18.445 -0.1567  0.5467 -0.3164
  899TIP3   OH226891   6.555   7.025  19.399  0.5052 -0.4612 -0.4246
  899TIP3    H126892   6.497   7.073  19.457  0.0635  0.4107 -1.5581
  899TIP3    H226893   6.641   7.064  19.413  0.4106 -0.2918 -0.3129
  900TIP3   OH226894   1.534   1.148  19.045 -0.2825  0.5157  0.3148
  900TIP3    H126895   1.581   1.209  19.102  0.7348 -0.6112  0.7270
  900TIP3    H226896   1.478   1.098  19.105 -0.9853  0.9088 -0.0003
  901TIP3   OH226897   5.829   4.275  17.978 -0.2598 -0.1393  0.1890
  901TIP3    H126898   5.781   4.208  18.028 -0.1941 -0.7969 -0.6031
  901TIP3    H226899   5.904   4.228  17.943 -0.1169  0.4070 -0.2362
  902TIP3   OH226900   0.325   6.420  18.039 -0.4070  0.1049  0.9515
  902TIP3    H126901   0.310   6.388  17.949 -1.2567 -0.4722  1.2848
  902TIP3    H226902   0.342   6.514  18.028 -1.6796  0.2784  0.2796
  903TIP3   OH226903   0.369   5.692  19.535  0.0126 -0.2858  0.2105
  903TIP3    H126904   0.427   5.618  19.519 -0.9834 -0.9374 -0.5320
  903TIP3    H226905   0.347   5.724  19.447 -0.0745  0.4861  0.5064
  904TIP3   OH226906   3.161   4.121  18.022 -0.0098 -0.1043 -0.1717
  904TIP3    H126907   3.185   4.094  17.933 -0.8509 -0.6306 -0.2581
  904TIP3    H226908   3.244   4.125  18.069  0.3470 -0.9068 -0.6996
  905TIP3   OH226909   1.853   5.693  19.134 -0.0712  0.4045 -0.3419
  905TIP3    H126910   1.930   5.669  19.186 -0.4192  2.2066  1.0990
  905TIP3    H226911   1.817   5.610  19.104  1.3250 -0.5712  0.5880
  906TIP3   OH226912   0.472   5.115  19.422  0.2601 -0.3562 -0.2175
  906TIP3    H126913   0.439   5.093  19.509  2.3097  0.4665  0.8349
  906TIP3    H226914   0.433   5.049  19.364 -2.0910 -0.2252  1.0743
  907TIP3   OH226915   1.472   1.851  17.235  0.4892 -0.0836 -0.7597
  907TIP3    H126916   1.434   1.936  17.213 -2.0906 -0.6022  1.1577
  907TIP3    H226917   1.547   1.872  17.290 -1.6450  1.1219  1.9872
  908TIP3   OH226918   2.806   2.622  17.442 -0.1251 -0.3951  0.2840
  908TIP3    H126919   2.871   2.622  17.513  0.2868 -0.6777 -0.0944
  908TIP3    H226920   2.736   2.566  17.474  0.7782 -1.8497 -0.1786
  909TIP3   OH226921   6.811   3.034  17.867  0.3362 -0.0794 -0.4015
  909TIP3    H126922   6.749   3.101  17.897 -0.9290 -0.4680 -2.0418
  909TIP3    H226923   6.889   3.084  17.842 -0.6847  0.8444 -1.8437
  910TIP3   OH226924   6.073   4.444  16.994  0.2848  0.3075  0.3006
  910TIP3    H126925   6.012   4.377  16.963 -0.4400  1.1274 -0.1079
  910TIP3    H226926   6.061   4.446  17.089 -1.4287  1.4402  0.1137
  911TIP3   OH226927   5.723   2.308  18.142  0.3804  0.1063  0.0920
  911TIP3    H126928   5.687   2.271  18.222  0.4058 -1.7171 -0.7054
  911TIP3    H226929   5.665   2.382  18.122  0.3343  0.5515  1.7213
  912TIP3   OH226930   7.058   1.571  19.041  0.8288 -0.1280 -0.3108
  912TIP3    H126931   7.148   1.575  19.008  0.9708 -0.1784  0.0659
  912TIP3    H226932   7.067   1.565  19.136  0.4189  2.5622  0.0003
  913TIP3   OH226933   5.862   6.408  17.564 -1.1067 -0.0822 -0.1220
  913TIP3    H126934   5.802   6.334  17.561 -0.7707 -0.3255 -1.0892
  913TIP3    H226935   5.947   6.372  17.539 -1.0866  0.7566 -1.3690
  914TIP3   OH226936   5.472   0.388  17.442  0.1212  0.1039 -0.3132
  914TIP3    H126937   5.427   0.403  17.359  0.2195  0.6122 -0.2785
  914TIP3    H226938   5.565   0.398  17.420  0.2829 -1.5157 -0.5107
  915TIP3   OH226939   6.001   6.920  17.409 -0.0205 -0.3741  0.7692
  915TIP3    H126940   6.011   6.832  17.444  0.1931 -0.9269 -0.6437
  915TIP3    H226941   6.021   6.912  17.316  1.7188  1.4886  0.9244
  916TIP3   OH226942   7.141   4.209  19.609  0.2762  0.1865  0.6956
  916TIP3    H126943   7.117   4.210  19.702 -1.2865  0.3825  0.3286
  916TIP3    H226944   7.070   4.257  19.566 -1.1716 -3.2017 -1.0479
  917TIP3   OH226945   4.715   5.855  18.611 -0.5037  0.4819 -0.9798
  917TIP3    H126946   4.752   5.771  18.581  0.8739  0.6114  0.2154
  917TIP3    H226947   4.626   5.856  18.577 -0.0629 -0.8028 -2.2669
  918TIP3   OH226948   2.071   7.066  18.779 -0.3268 -0.5542  0.3126
  918TIP3    H126949   2.159   7.087  18.750 -1.1751  0.3040 -1.9135
  918TIP3    H226950   2.064   6.971  18.769  0.3487 -0.6322  0.5573
  919TIP3   OH226951   4.579   0.121  18.441  0.0863  0.0082 -0.4864
  919TIP3    H126952   4.603   0.030  18.458  1.8483  0.7104  1.0900
  919TIP3    H226953   4.503   0.136  18.498  0.5492 -0.1424  0.1824
  920TIP3   OH226954   1.752   2.135  18.985 -0.4697 -0.8786  0.0824
  920TIP3    H126955   1.717   2.079  18.916  0.9437 -0.8119 -0.7346
  920TIP3    H226956   1.827   2.087  19.019 -0.5863 -0.4746  0.9227
  921TIP3   OH226957   2.588   7.316  18.488 -0.4513  0.3071 -0.8407
  921TIP3    H126958   2.596   7.324  18.583  2.1570  1.0184 -1.0471
  921TIP3    H226959   2.559   7.403  18.460  1.2419  0.9211 -0.8378
  922TIP3   OH226960   4.876   0.259  18.544 -0.5258  0.1373  0.4084
  922TIP3    H126961   4.788   0.233  18.517 -0.5183 -0.5382  1.0099
  922TIP3    H226962   4.866   0.349  18.576 -1.3038 -0.4344  1.8753
  923TIP3   OH226963   0.810   5.479  18.516 -0.4629  0.1692  0.1658
  923TIP3    H126964   0.734   5.536  18.504 -1.8905 -1.4882  0.8606
  923TIP3    H226965   0.785   5.397  18.472  1.6133  0.0958 -1.0051
  924TIP3   OH226966   2.819   5.204  17.540 -0.2411 -0.2079  0.3659
  924TIP3    H126967   2.794   5.292  17.511 -0.9620 -0.0228  1.5058
  924TIP3    H226968   2.879   5.218  17.613  0.4460 -0.6816 -0.0831
  925TIP3   OH226969   0.894   4.788  18.890 -0.1297 -0.4877  0.3017
  925TIP3    H126970   0.804   4.760  18.902 -0.0181 -0.5304  1.1290
  925TIP3    H226971   0.894   4.881  18.916 -0.2437 -0.0486 -1.1943
  926TIP3   OH226972   0.036   2.181  19.489 -0.0490 -0.3160  0.1166
  926TIP3    H126973   0.123   2.145  19.506  0.1616 -0.1614 -0.5771
  926TIP3    H226974  -0.020   2.143  19.556 -0.1970 -3.3246 -1.5203
  927TIP3   OH226975   0.236   6.571  16.952  0.0283  0.0658 -0.3035
  927TIP3    H126976   0.318   6.613  16.927  0.1892 -1.1373 -1.9677
  927TIP3    H226977   0.169   6.613  16.897 -0.0740 -0.6290 -0.7248
  928TIP3   OH226978   6.797   7.006  18.275  0.0882  0.2526  0.2536
  928TIP3    H126979   6.833   7.092  18.254 -1.5487  1.0520  0.5420
  928TIP3    H226980   6.741   7.021  18.351 -0.9772 -0.8663 -0.2607
  929TIP3   OH226981   0.192   3.946  19.839 -0.2332 -0.1192  0.0345
  929TIP3    H126982   0.184   3.919  19.931  2.4976  0.8832  0.6491
  929TIP3    H226983   0.231   3.871  19.795  0.9442  0.3184  0.2953
  930TIP3   OH226984   0.667   7.419  18.699  0.4631  0.2675 -0.6025
  930TIP3    H126985   0.588   7.372  18.673  0.4876 -0.6813  0.8896
  930TIP3    H226986   0.699   7.460  18.619 -2.5558  2.2756 -0.9545
  931TIP3   OH226987   6.634   0.877  19.062 -0.0740  0.5341 -0.4541
  931TIP3    H126988   6.683   0.875  19.144  0.1975  0.8654 -0.6050
  931TIP3    H226989   6.573   0.804  19.068 -2.2478  2.3557  1.4077
  932TIP3   OH226990   0.712   4.872  19.696  0.1454  0.0651 -0.3099
  932TIP3    H126991   0.805   4.851  19.687  0.6357  1.8601  0.1718
  932TIP3    H226992   0.679   4.873  19.607  0.9856  0.9966 -0.6288
  933TIP3   OH226993   1.257   2.573  17.831 -0.0362  0.3607  0.9169
  933TIP3    H126994   1.228   2.512  17.899 -0.0315 -1.2797 -0.4753
  933TIP3    H226995   1.351   2.584  17.847 -0.1362  0.4467  1.4866
  934TIP3   OH226996   3.207   0.630  16.639 -0.0865 -0.4501  0.0318
  934TIP3    H126997   3.293   0.599  16.612  0.3711  1.0446 -0.2786
  934TIP3    H226998   3.154   0.550  16.643  1.3392 -1.4245  0.4173
  935TIP3   OH226999   4.834   3.755  18.919 -0.1630  0.2875  0.3559
  935TIP3    H127000   4.823   3.746  19.013 -0.0373  1.8481  0.5514
  935TIP3    H227001   4.892   3.831  18.909 -0.4991  0.3933 -0.9818
  936TIP3   OH227002   4.139   7.637  17.093 -0.4615  0.2817  0.4656
  936TIP3    H127003   4.100   7.605  17.011  0.2265 -0.2922  0.3422
  936TIP3    H227004   4.220   7.679  17.065  1.0205 -2.0119  0.9960
  937TIP3   OH227005   1.494   4.300  17.597  0.0395  0.1915 -0.4901
  937TIP3    H127006   1.436   4.354  17.650  1.4491  1.1161  0.1893
  937TIP3    H227007   1.458   4.211  17.603 -0.8297  0.6042  0.5427
  938TIP3   OH227008   2.646   4.272  18.884  0.2702 -0.0681 -0.3996
  938TIP3    H127009   2.666   4.365  18.896 -0.4379 -0.0670  1.0077
  938TIP3    H227010   2.550   4.269  18.880  0.2948 -0.7259 -0.5201
  939TIP3   OH227011   4.920   3.354  18.332 -0.0647 -0.2941 -0.3297
  939TIP3    H127012   4.951   3.388  18.248 -2.2139 -2.1807 -2.0254
  939TIP3    H227013   4.827   3.375  18.334 -0.0713 -0.2904  1.6397
  940TIP3   OH227014   2.967   6.550  19.779  0.5915 -0.2195 -0.1613
  940TIP3    H127015   2.918   6.563  19.699  0.5789  0.5675 -0.0348
  940TIP3    H227016   2.901   6.530  19.845  0.6692 -1.7622 -0.5055
  941TIP3   OH227017   5.364   2.112  19.218  0.1190 -0.2167 -0.3808
  941TIP3    H127018   5.445   2.061  19.227  0.1794 -0.2067 -0.8612
  941TIP3    H227019   5.375   2.161  19.136 -0.1897  0.1173 -0.2245
  942TIP3   OH227020   5.446   6.818  17.067  0.1056  0.0578  0.2727
  942TIP3    H127021   5.360   6.786  17.040  0.3058  0.0080 -0.3120
  942TIP3    H227022   5.480   6.864  16.991 -0.8448  3.1004  1.5349
  943TIP3   OH227023   1.253   3.759  18.592  0.4312  0.2337  0.2257
  943TIP3    H127024   1.158   3.775  18.594  0.2259 -0.9758  0.9474
  943TIP3    H227025   1.267   3.707  18.513  0.5732  0.7724 -0.1151
  944TIP3   OH227026   3.765   3.552  19.351 -0.0379  0.7009 -0.5255
  944TIP3    H127027   3.730   3.639  19.332 -0.2012  1.4835  2.7650
  944TIP3    H227028   3.691   3.503  19.388  0.7565  0.2148  0.4832
  945TIP3   OH227029   4.939   7.653  18.555 -0.0111  0.3856  0.3714
  945TIP3    H127030   4.964   7.636  18.646  0.0417  0.2374  0.3300
  945TIP3    H227031   4.906   7.743  18.555 -0.0362  0.3760  0.5427
  946TIP3   OH227032   4.312   3.382  16.861 -0.0330  0.2632  0.5424
  946TIP3    H127033   4.268   3.351  16.781  0.3685  0.4462  0.2452
  946TIP3    H227034   4.398   3.340  16.859  1.2313  2.6798 -0.7946
  947TIP3   OH227035   2.871   5.145  18.185  0.2670  0.2240 -0.2109
  947TIP3    H127036   2.942   5.088  18.215 -0.9963 -0.7649  1.0206
  947TIP3    H227037   2.826   5.172  18.265 -0.8157  0.7369 -0.9694
  948TIP3   OH227038   7.034   3.656  19.604  0.0018  0.0414 -0.1937
  948TIP3    H127039   7.036   3.610  19.520 -0.2881  0.7642 -0.6055
  948TIP3    H227040   7.033   3.749  19.580  1.7880  0.3211  0.6218
  949TIP3   OH227041   3.613   3.324  16.541 -0.6453  0.0418  0.6298
  949TIP3    H127042   3.622   3.263  16.614 -0.6342 -0.9307 -0.1541
  949TIP3    H227043   3.643   3.274  16.465 -2.9296  0.1544 -0.4478
  950TIP3   OH227044   4.396   0.565  17.325 -0.0048  0.6669  0.3465
  950TIP3    H127045   4.439   0.562  17.411 -1.2576 -0.1850  0.9621
  950TIP3    H227046   4.461   0.528  17.265  0.8160  1.0951  0.9456
  951TIP3   OH227047   2.433   3.285  19.433 -0.6077 -0.0048  0.4209
  951TIP3    H127048   2.373   3.306  19.505 -1.1330  1.5444 -0.4398
  951TIP3    H227049   2.380   3.290  19.354  0.1732 -0.8003 -0.1826
  952TIP3   OH227050   0.082   4.540  18.033  0.1322  0.0310  0.6718
  952TIP3    H127051   0.173   4.516  18.020 -0.2194 -0.5628 -0.8637
  952TIP3    H227052   0.041   4.461  18.069  0.1499  0.2000  1.0732
  953TIP3   OH227053   5.183   1.172  17.952  0.6062  0.2920  0.3621
  953TIP3    H127054   5.171   1.115  17.876  0.1668 -0.2772  0.8451
  953TIP3    H227055   5.257   1.133  18.000  1.7422  1.3956 -0.4341
  954TIP3   OH227056   2.934   7.515  19.214  0.2014 -0.2075 -0.0936
  954TIP3    H127057   3.002   7.555  19.269  0.9944 -0.6911 -0.7006
  954TIP3    H227058   2.894   7.589  19.168 -0.0742  0.1390  0.6744
  955TIP3   OH227059   6.526   2.475  17.851 -0.0715  0.2947  0.1091
  955TIP3    H127060   6.446   2.467  17.904  0.0156  1.5128  0.4482
  955TIP3    H227061   6.496   2.509  17.767  0.0216  0.1171  0.0014
  956TIP3   OH227062   4.249   2.314  18.352 -0.2034 -0.6339 -0.3802
  956TIP3    H127063   4.344   2.314  18.338 -0.0389  0.4388  0.5257
  956TIP3    H227064   4.212   2.326  18.265  0.4661 -1.5521 -0.8067
  957TIP3   OH227065   5.473   4.705  18.418  0.3560  0.4068 -0.5672
  957TIP3    H127066   5.465   4.643  18.490  0.6110 -0.9597 -1.6892
  957TIP3    H227067   5.567   4.719  18.408  0.3079  0.8703 -0.4288
  958TIP3   OH227068   0.477   7.090  18.365 -0.3040 -0.3331  0.2215
  958TIP3    H127069   0.467   7.174  18.321  1.8873  1.7654  3.2880
  958TIP3    H227070   0.569   7.088  18.393 -0.3522 -3.6278  0.5932
  959TIP3   OH227071   1.302   4.849  17.135  0.2464 -0.0622 -0.1563
  959TIP3    H127072   1.249   4.928  17.128 -0.4471 -0.2286  2.2201
  959TIP3    H227073   1.391   4.877  17.111 -0.6478  0.4351 -3.2571
  960TIP3   OH227074   6.782   0.263  17.588 -0.2544  0.0047  0.1521
  960TIP3    H127075   6.733   0.184  17.565 -0.9344  1.1842 -2.8970
  960TIP3    H227076   6.872   0.232  17.603 -0.4094 -1.3159 -1.3700
  961TIP3   OH227077   1.697   5.687  18.647  0.2281 -0.4253 -0.0540
  961TIP3    H127078   1.626   5.747  18.624 -0.6766 -0.5469  2.1844
  961TIP3    H227079   1.681   5.609  18.595 -1.4471 -0.5324  0.5788
  962TIP3   OH227080   3.241   4.630  18.386  0.1198  0.1117 -0.0916
  962TIP3    H127081   3.210   4.602  18.472  2.0243  1.4393  1.1058
  962TIP3    H227082   3.250   4.548  18.336 -1.5527 -0.6237  0.7458
  963TIP3   OH227083   0.779   4.145  18.401  0.1085  0.2466  0.0219
  963TIP3    H127084   0.845   4.164  18.334 -0.2710  0.4322 -0.2985
  963TIP3    H227085   0.703   4.197  18.376 -0.3386 -0.3514  0.1170
  964TIP3   OH227086   4.551   3.265  16.908 -0.1332  0.5627  0.1021
  964TIP3    H127087   4.562   3.180  16.866 -1.1752 -0.5791  2.0123
  964TIP3    H227088   4.637   3.306  16.903  1.0864 -1.6890  1.3988
  965TIP3   OH227089   6.324   6.776  17.505 -0.7456 -0.0612 -0.0843
  965TIP3    H127090   6.365   6.848  17.553 -0.9422  0.1762 -0.2649
  965TIP3    H227091   6.273   6.729  17.571 -0.8000  0.1016 -0.0101
  966TIP3   OH227092   6.261   4.820  18.874  0.4214  0.0618 -0.5155
  966TIP3    H127093   6.240   4.913  18.873 -1.1617 -0.2575 -1.1322
  966TIP3    H227094   6.321   4.809  18.948  0.2579  1.4880 -0.1479
  967TIP3   OH227095   5.460   2.324  18.556  0.0137 -0.2265  0.5334
  967TIP3    H127096   5.473   2.379  18.633  0.1326  1.5554 -0.6773
  967TIP3    H227097   5.365   2.329  18.539 -0.0259 -0.6857  0.6050
  968TIP3   OH227098   6.896   1.733  17.848  0.2076 -0.0215  0.0423
  968TIP3    H127099   6.981   1.769  17.876  0.8409 -1.0832 -0.4558
  968TIP3    H227100   6.861   1.692  17.928  0.7528 -0.6569 -0.0276
  969TIP3   OH227101   1.222   2.922  17.689 -0.1488 -0.3168  0.1753
  969TIP3    H127102   1.167   2.930  17.767  0.7371  1.7769  0.6312
  969TIP3    H227103   1.293   2.984  17.702  2.6915 -3.1893 -0.1631
  970TIP3   OH227104   3.950   7.499  18.187 -0.1176 -0.1939 -0.3083
  970TIP3    H127105   3.886   7.531  18.251 -0.2451  0.4209 -0.7356
  970TIP3    H227106   3.909   7.515  18.102 -0.8725 -2.9819 -0.5446
  971TIP3   OH227107   4.043   0.628  19.226  0.2544  0.3847  0.3297
  971TIP3    H127108   4.133   0.660  19.225  0.2100  0.5040 -0.0691
  971TIP3    H227109   4.030   0.595  19.315  1.0201 -0.5599  0.1136
  972TIP3   OH227110   7.296   6.818  17.029  0.0346  0.3210  0.0969
  972TIP3    H127111   7.384   6.856  17.036  0.0402  0.0899  1.5118
  972TIP3    H227112   7.245   6.886  16.985  1.2621 -0.1894 -2.2854
  973TIP3   OH227113   3.955   3.635  18.417 -0.4348  1.2414 -0.5739
  973TIP3    H127114   3.887   3.592  18.364 -1.6379 -0.5327  2.1789
  973TIP3    H227115   4.036   3.590  18.394 -0.9147  0.5662 -0.9829
  974TIP3   OH227116   4.455   1.897  18.009  0.1245  0.5240 -0.1358
  974TIP3    H127117   4.429   1.881  18.099  0.8292  0.3437  0.0463
  974TIP3    H227118   4.487   1.812  17.978  1.6987  0.9992  0.0778
  975TIP3   OH227119   4.540   4.831  17.163  0.0079  0.4134  0.1226
  975TIP3    H127120   4.492   4.858  17.241  0.1119  0.1467  0.2833
  975TIP3    H227121   4.524   4.900  17.099 -0.9917  0.0883  0.0063
  976TIP3   OH227122   4.015   1.476  18.363  0.3341  0.2033  0.3625
  976TIP3    H127123   4.085   1.522  18.316 -1.3161  0.7231 -1.7650
  976TIP3    H227124   4.036   1.384  18.353  1.3053  0.3756  0.7462
  977TIP3   OH227125   7.174   4.265  17.070 -0.1517 -0.0629 -0.1695
  977TIP3    H127126   7.129   4.215  17.002 -0.2044  0.4045 -0.4815
  977TIP3    H227127   7.258   4.219  17.082 -1.3834 -2.0121  1.6825
  978TIP3   OH227128   5.418   3.376  17.444  0.2154  0.4258 -0.0810
  978TIP3    H127129   5.459   3.400  17.528  1.3236 -1.1847 -0.1021
  978TIP3    H227130   5.459   3.434  17.380 -0.5427  1.5832  0.4548
  979TIP3   OH227131   7.156   3.507  17.117  0.2892  0.3295  0.0729
  979TIP3    H127132   7.184   3.576  17.056 -0.9293  0.8038  0.0337
  979TIP3    H227133   7.224   3.508  17.186 -0.7550  3.0782  1.2308
  980TIP3   OH227134   1.516   2.614  17.847 -0.0907 -0.0865 -0.0781
  980TIP3    H127135   1.575   2.569  17.786  0.6758 -2.2821  2.1323
  980TIP3    H227136   1.544   2.706  17.843  0.2732 -0.2328 -2.5743
  981TIP3   OH227137   0.105   7.483  18.453 -0.5162 -0.1557  0.0263
  981TIP3    H127138   0.177   7.538  18.483 -1.3859  0.4339  1.0692
  981TIP3    H227139   0.113   7.484  18.357 -0.5640  1.8706  0.0055
  982TIP3   OH227140   2.308   2.897  19.092  0.1300  0.5018  0.4319
  982TIP3    H127141   2.377   2.963  19.088 -1.9368  3.1767  3.7322
  982TIP3    H227142   2.263   2.905  19.009  2.3157  0.2852 -0.8624
  983TIP3   OH227143   3.595   0.311  17.790 -0.3789 -0.1372  0.4544
  983TIP3    H127144   3.531   0.377  17.764  3.0453  2.4738 -2.2990
  983TIP3    H227145   3.638   0.348  17.867  1.4254  0.9703 -0.9905
  984TIP3   OH227146   6.624   7.039  18.487  0.1984 -1.0731  0.3101
  984TIP3    H127147   6.540   6.994  18.495 -0.8457  0.5399 -0.8634
  984TIP3    H227148   6.660   7.040  18.576 -2.2019  0.3313  1.3524
  985TIP3   OH227149   4.131   1.862  19.186 -0.2125 -0.1838 -0.0186
  985TIP3    H127150   4.193   1.934  19.185  0.5788 -0.8481 -0.5484
  985TIP3    H227151   4.063   1.888  19.124  0.4268 -0.1786 -0.7337
  986TIP3   OH227152   3.853   2.624  17.614 -0.3371 -0.7969  0.3794
  986TIP3    H127153   3.905   2.560  17.564 -0.0485 -0.0045 -0.3518
  986TIP3    H227154   3.773   2.634  17.563 -0.7485 -1.1888  0.9362
  987TIP3   OH227155   7.402   7.087  17.263 -0.6057  0.1895  0.0681
  987TIP3    H127156   7.453   7.021  17.215 -3.1535 -1.6464 -0.3169
  987TIP3    H227157   7.447   7.095  17.347  0.5211 -1.0574 -0.3753
  988TIP3   OH227158   5.136   0.555  18.843 -0.4985  0.0824  0.2219
  988TIP3    H127159   5.057   0.600  18.813 -0.6898 -1.9689 -2.8174
  988TIP3    H227160   5.119   0.536  18.935 -2.7543  1.3071  0.1204
  989TIP3   OH227161   7.588   4.288  18.067  0.3251  0.1279 -0.3116
  989TIP3    H127162   7.545   4.232  18.003 -0.5158  0.8873 -0.4246
  989TIP3    H227163   7.537   4.277  18.147  0.4176  0.4062 -0.2117
  990TIP3   OH227164   6.941   6.116  18.206 -0.3445  0.0945 -0.4257
  990TIP3    H127165   7.014   6.077  18.157  0.3947 -0.8379  1.3414
  990TIP3    H227166   6.866   6.061  18.185 -0.1221 -0.0682 -0.8045
  991TIP3   OH227167   3.858   4.981  18.283  0.2936 -0.3385  0.5814
  991TIP3    H127168   3.854   5.065  18.236  0.8805 -0.2672  0.6466
  991TIP3    H227169   3.769   4.967  18.314  0.2914  0.5284  1.0193
  992TIP3   OH227170   3.005   0.036  18.516 -0.2116 -1.0813 -0.3634
  992TIP3    H127171   3.035   0.054  18.426 -1.3450 -1.4798 -0.8335
  992TIP3    H227172   2.979  -0.056  18.514 -0.3408 -1.0594  0.3526
  993TIP3   OH227173   0.572   5.634  18.455  0.1231  0.8841  0.2934
  993TIP3    H127174   0.534   5.638  18.367 -1.1374  2.3702  0.8628
  993TIP3    H227175   0.522   5.565  18.499 -0.7604  1.6220  0.4877
  994TIP3   OH227176   3.229   6.103  18.674 -0.7747 -0.5937 -0.7186
  994TIP3    H127177   3.305   6.052  18.646 -1.4108 -2.1835  0.2929
  994TIP3    H227178   3.238   6.109  18.769 -1.1796  0.4556 -0.7342
  995TIP3   OH227179   3.417   6.759  19.520 -0.1094 -0.5300  0.2437
  995TIP3    H127180   3.326   6.788  19.524  0.0396 -0.1769  1.5496
  995TIP3    H227181   3.466   6.836  19.493  0.1424  0.1971  2.5588
  996TIP3   OH227182   0.793   0.587  17.685  0.4264  0.0642 -0.8426
  996TIP3    H127183   0.859   0.526  17.717 -0.1650 -0.3175 -0.3251
  996TIP3    H227184   0.821   0.608  17.596  0.6981 -0.8799 -0.9941
  997TIP3   OH227185   1.282   7.613  17.533 -0.4430 -0.4546  0.1568
  997TIP3    H127186   1.316   7.552  17.467 -1.5446 -1.1808  0.2423
  997TIP3    H227187   1.194   7.635  17.502 -1.0167 -0.8963  1.4533
  998TIP3   OH227188   4.579   4.096  18.460  0.0106 -0.4796  1.1716
  998TIP3    H127189   4.527   4.171  18.488 -0.1299 -0.4206  0.7575
  998TIP3    H227190   4.556   4.083  18.368  0.9830 -0.2469  0.8877
  999TIP3   OH227191   4.859   3.034  18.249 -0.4285 -0.3129 -0.4578
  999TIP3    H127192   4.779   3.049  18.197 -1.4305  0.1986  1.1581
  999TIP3    H227193   4.905   3.117  18.247  0.8425 -1.0037 -2.5721
 1000TIP3   OH227194   1.921   2.853  17.510  0.4444 -0.3389  0.1014
 1000TIP3    H127195   2.009   2.890  17.512  0.7304 -0.9249 -1.0950
 1000TIP3    H227196   1.877   2.900  17.440  0.5917 -1.7432 -0.9697
 1001TIP3   OH227197   1.777   0.344  19.009 -0.4870 -0.4870  0.6572
 1001TIP3    H127198   1.714   0.292  18.960  1.0333 -1.7002 -0.0790
 1001TIP3    H227199   1.765   0.316  19.100 -0.7550 -0.9720  0.4777
 1002TIP3   OH227200   6.964   7.331  19.532 -0.2579 -0.3276  0.3670
 1002TIP3    H127201   6.926   7.298  19.614  2.2245 -0.7034  1.4565
 1002TIP3    H227202   7.043   7.279  19.520  0.9062  1.5878 -0.7749
 1003TIP3   OH227203   3.640   4.755  17.810 -0.1827 -0.8851 -0.2647
 1003TIP3    H127204   3.668   4.834  17.854 -2.3488  0.4607 -1.1240
 1003TIP3    H227205   3.715   4.728  17.757  0.7474  0.3215  0.4197
 1004TIP3   OH227206   3.637   3.048  18.609 -0.2703 -0.3581 -0.0230
 1004TIP3    H127207   3.668   3.135  18.586  0.8685 -0.3081  1.5416
 1004TIP3    H227208   3.556   3.064  18.658 -0.6288 -0.2496 -0.6456
 1005TIP3   OH227209   6.988   2.213  17.990 -0.2363 -0.2296  0.7422
 1005TIP3    H127210   7.013   2.208  17.898  0.3300 -0.6671  0.9133
 1005TIP3    H227211   7.017   2.130  18.028 -0.7397 -0.1834  1.2481
 1006TIP3   OH227212   2.909   6.134  18.089 -0.1090 -0.1500  0.2874
 1006TIP3    H127213   2.825   6.154  18.047  0.8990 -0.5638 -2.0880
 1006TIP3    H227214   2.904   6.041  18.111 -0.0614 -0.3213 -0.4109
 1007TIP3   OH227215   0.945   2.384  18.434  0.1630  0.1117 -0.0021
 1007TIP3    H127216   1.022   2.410  18.484  0.4843 -1.9735  0.6830
 1007TIP3    H227217   0.876   2.373  18.499 -0.8604  2.2388 -0.6367
 1008TIP3   OH227218   6.039   3.493  19.493 -0.2464  0.1138  0.1178
 1008TIP3    H127219   5.974   3.510  19.425  0.4936 -0.6953 -0.8253
 1008TIP3    H227220   6.041   3.398  19.502  1.5091  0.0333 -0.6137
 1009TIP3   OH227221   7.265   1.927  18.513 -0.2622 -0.1548  0.2978
 1009TIP3    H127222   7.343   1.979  18.494 -0.0700 -0.5831 -0.0997
 1009TIP3    H227223   7.197   1.991  18.533 -0.3112  0.3071 -1.2422
 1010TIP3   OH227224   4.859   7.398  18.445  0.7222 -0.5326  0.4532
 1010TIP3    H127225   4.904   7.483  18.451  1.2216 -0.7956  0.4383
 1010TIP3    H227226   4.928   7.335  18.425  0.7032 -1.2710  2.4746
 1011TIP3   OH227227   7.229   5.129  18.614  0.1989  0.5258 -0.0782
 1011TIP3    H127228   7.278   5.206  18.643  1.1683 -0.1784  0.1884
 1011TIP3    H227229   7.199   5.087  18.695  0.1860  0.2959 -0.1996
 1012TIP3   OH227230   1.358   1.283  17.732 -0.0583 -0.4596  0.1424
 1012TIP3    H127231   1.385   1.204  17.779  1.0327 -0.2526 -0.1189
 1012TIP3    H227232   1.380   1.355  17.791  1.2455 -0.2035 -0.6221
 1013TIP3   OH227233   0.896   2.832  19.030  0.5448  0.1129  0.2795
 1013TIP3    H127234   0.900   2.752  19.083 -2.4189 -0.0044  0.4671
 1013TIP3    H227235   0.887   2.903  19.094  2.6395  0.6434  0.0855
 1014TIP3   OH227236   4.143   1.593  19.119  0.7581 -0.2902 -0.1172
 1014TIP3    H127237   4.126   1.665  19.180  2.3751  1.4795 -1.6032
 1014TIP3    H227238   4.219   1.548  19.156 -0.5862 -1.6603  1.1036
 1015TIP3   OH227239   2.155   2.658  18.600  0.4282 -0.2976 -0.3195
 1015TIP3    H127240   2.128   2.643  18.509 -1.5295  0.2799  0.1015
 1015TIP3    H227241   2.080   2.703  18.639  0.7058 -1.6288  1.9083
 1016TIP3   OH227242   1.246   2.986  16.833 -0.4679  0.0510  0.6563
 1016TIP3    H127243   1.323   3.014  16.782 -0.6349 -0.2294  0.2532
 1016TIP3    H227244   1.255   3.033  16.917  1.0807 -1.2967  1.3035
 1017TIP3   OH227245   4.817   7.441  17.744  0.3768 -0.5864 -0.0939
 1017TIP3    H127246   4.750   7.422  17.810  1.1163  1.5519  1.3777
 1017TIP3    H227247   4.767   7.460  17.665 -0.6855 -0.7393  0.5151
 1018TIP3   OH227248   2.324   0.229  18.301  0.2962  0.4264 -0.1433
 1018TIP3    H127249   2.273   0.299  18.342  0.8449  1.0068 -0.4393
 1018TIP3    H227250   2.372   0.189  18.373  0.5802  0.8732 -0.0754
 1019TIP3   OH227251   1.330   4.484  19.552  0.8872  0.1915  0.3784
 1019TIP3    H127252   1.316   4.533  19.471 -1.6156 -1.0913 -0.0681
 1019TIP3    H227253   1.403   4.425  19.532 -1.0278 -1.6295 -1.8131
 1020TIP3   OH227254   2.330   0.093  18.634  0.2582  0.4848 -0.1291
 1020TIP3    H127255   2.236   0.081  18.644  0.2182  0.7559 -0.1620
 1020TIP3    H227256   2.342   0.188  18.636  0.5783  0.4398  0.2847
 1021TIP3   OH227257   5.277   2.676  17.167 -0.8432 -0.2758  0.3286
 1021TIP3    H127258   5.265   2.592  17.121  0.9536 -1.0617  1.2073
 1021TIP3    H227259   5.231   2.740  17.112 -0.8483 -1.5639 -1.2506
 1022TIP3   OH227260   5.177   6.258  18.922  0.3391  0.6441 -0.0716
 1022TIP3    H127261   5.120   6.190  18.958 -0.2446  1.4833  0.6399
 1022TIP3    H227262   5.136   6.283  18.840 -0.6829  1.6519  0.7123
 1023TIP3   OH227263   2.132   0.950  18.463  0.4214 -0.0853 -0.0803
 1023TIP3    H127264   2.064   0.917  18.404  0.4964 -0.8982  0.2736
 1023TIP3    H227265   2.107   0.917  18.549 -0.0186  1.6164  0.4649
 1024TIP3   OH227266   5.043   6.439  17.599 -0.5915 -0.2097  0.6673
 1024TIP3    H127267   4.948   6.440  17.583 -0.6946 -0.5502  1.2145
 1024TIP3    H227268   5.069   6.531  17.596 -1.0520 -0.0611  1.1389
 1025TIP3   OH227269   3.378   3.771  19.280  0.2884 -0.0152  0.2697
 1025TIP3    H127270   3.363   3.835  19.209 -2.0848  1.0379  1.5805
 1025TIP3    H227271   3.459   3.799  19.321  0.6302  0.5976 -0.7845
 1026TIP3   OH227272   2.906   7.084  17.914 -0.0591 -0.0856  0.1738
 1026TIP3    H127273   2.826   7.107  17.960 -1.7286 -2.0583 -1.5307
 1026TIP3    H227274   2.882   7.009  17.859  2.2985  0.7360 -2.2415
 1027TIP3   OH227275   6.417   1.918  18.999  0.2299  0.5554 -0.1344
 1027TIP3    H127276   6.409   1.930  19.093  1.9809  0.4974  0.0434
 1027TIP3    H227277   6.489   1.976  18.973  0.3682 -0.1060 -1.2850
 1028TIP3   OH227278   6.502   6.651  17.288 -0.3253  0.0128 -0.1485
 1028TIP3    H127279   6.512   6.640  17.383 -3.0588 -1.9772  0.0313
 1028TIP3    H227280   6.591   6.643  17.254  0.4658 -1.9284  2.0758
 1029TIP3   OH227281   7.033   4.271  18.607  0.0022 -0.4913  0.0074
 1029TIP3    H127282   6.969   4.203  18.584  1.9526 -2.2585 -0.5586
 1029TIP3    H227283   6.982   4.340  18.648 -2.0792 -2.4975  1.0063
 1030TIP3   OH227284   3.503   6.945  17.958 -0.2533 -0.5848  0.3187
 1030TIP3    H127285   3.472   6.977  17.872  0.4541 -3.3427 -1.0750
 1030TIP3    H227286   3.431   6.965  18.018 -0.3848  2.2997 -0.6424
 1031TIP3   OH227287   6.589   4.920  18.768  0.2963 -0.1388  0.3202
 1031TIP3    H127288   6.678   4.907  18.736 -0.2393 -2.5688 -0.3661
 1031TIP3    H227289   6.587   4.879  18.854  0.3079  1.6178  1.1931
 1032TIP3   OH227290   5.322   0.944  17.002 -0.4448 -0.4595  0.0199
 1032TIP3    H127291   5.254   0.879  17.018 -0.4294 -0.1320  1.6121
 1032TIP3    H227292   5.287   1.025  17.039  0.6610 -0.2118  0.5583
 1033TIP3   OH227293   6.282   7.676  17.390  0.3236  0.2493 -0.4528
 1033TIP3    H127294   6.360   7.692  17.443  1.3613  1.8359 -2.3175
 1033TIP3    H227295   6.224   7.750  17.409 -1.0370 -1.1770  1.3025
 1034TIP3   OH227296   5.091   2.300  17.582 -0.7650 -0.1648 -0.4525
 1034TIP3    H127297   5.135   2.349  17.513 -0.4291  1.3030  0.7561
 1034TIP3    H227298   5.025   2.360  17.615  0.5852  0.0782  2.0216
 1035TIP3   OH227299   0.074   1.467  18.442  0.4421  0.2318 -0.0048
 1035TIP3    H127300   0.161   1.426  18.439  1.8176  2.8934 -0.0081
 1035TIP3    H227301   0.088   1.554  18.404 -1.8944  1.3096  1.4065
 1036TIP3   OH227302   0.384   2.797  18.374  0.5279  0.8243  0.4203
 1036TIP3    H127303   0.334   2.786  18.293 -1.7176 -0.9038  1.9207
 1036TIP3    H227304   0.377   2.890  18.395 -0.6359  0.9076 -0.2797
 1037TIP3   OH227305   7.197   6.100  17.797 -0.0073 -0.3657 -0.2437
 1037TIP3    H127306   7.224   6.185  17.831  0.9491 -0.9467  0.5092
 1037TIP3    H227307   7.233   6.096  17.709  0.4548 -0.2223 -0.0652
 1038TIP3   OH227308   3.177   4.415  18.171  0.1708 -0.7266 -0.2064
 1038TIP3    H127309   3.106   4.466  18.132 -2.1062 -2.4202  1.4153
 1038TIP3    H227310   3.136   4.331  18.192  2.7244 -1.8193  0.7435
 1039TIP3   OH227311   1.103   2.566  19.497  0.2395  0.3983 -0.4949
 1039TIP3    H127312   1.054   2.617  19.563 -0.6370 -0.8461 -0.1575
 1039TIP3    H227313   1.049   2.571  19.418  0.6796  0.8594 -0.7711
 1040TIP3   OH227314   3.088   4.123  17.423 -0.1219  0.3925 -0.3365
 1040TIP3    H127315   3.052   4.044  17.382  1.8161 -1.1508  0.7653
 1040TIP3    H227316   3.159   4.150  17.366  0.0187  0.6017 -0.0664
 1041TIP3   OH227317   3.004   7.298  18.162  0.0084  0.3171 -0.7553
 1041TIP3    H127318   3.001   7.381  18.115 -0.9313  0.7298  0.0128
 1041TIP3    H227319   2.915   7.263  18.155  0.3272 -0.5069 -0.8410
 1042TIP3   OH227320   1.687   6.613  18.058 -0.1884 -0.5967  0.1910
 1042TIP3    H127321   1.675   6.519  18.062  0.1549 -0.6807 -0.6724
 1042TIP3    H227322   1.603   6.646  18.025 -0.2201 -0.6152  0.2519
 1043TIP3   OH227323   3.327   0.298  18.378 -0.4136 -0.1396  0.0293
 1043TIP3    H127324   3.344   0.217  18.425 -0.7299  1.3638  3.0103
 1043TIP3    H227325   3.414   0.337  18.366 -0.4307  0.1308  0.7266
 1044TIP3   OH227326   0.255   2.571  19.307 -0.2924 -0.9780  1.4431
 1044TIP3    H127327   0.340   2.528  19.302  1.0574  1.5286 -1.7822
 1044TIP3    H227328   0.199   2.522  19.247  0.5924  0.2812 -0.5331
 1045TIP3   OH227329   0.956   5.078  19.002 -0.0425 -0.1449 -0.1686
 1045TIP3    H127330   0.985   5.121  19.082  1.3051  2.2922 -1.8182
 1045TIP3    H227331   1.032   5.028  18.972  0.0545  0.3845 -0.8189
 1046TIP3   OH227332   3.478   7.045  16.942 -0.0169 -0.1648  0.3338
 1046TIP3    H127333   3.504   6.954  16.929  0.0363  0.0542 -1.2160
 1046TIP3    H227334   3.406   7.059  16.881 -0.3390  0.7081  0.8892
 1047TIP3   OH227335   1.002   5.796  18.386 -0.2400 -0.0002  0.3687
 1047TIP3    H127336   0.983   5.849  18.309 -2.3750 -0.7298  0.3275
 1047TIP3    H227337   0.973   5.849  18.460  0.4247  0.0883  0.5780
 1048TIP3   OH227338   3.431   2.661  19.190 -0.0375 -0.0897  0.2590
 1048TIP3    H127339   3.467   2.605  19.122 -2.3148 -0.1640 -0.9899
 1048TIP3    H227340   3.352   2.616  19.220 -0.5159  1.2146  1.0763
 1049TIP3   OH227341   2.293   3.197  16.741 -0.4905 -0.1076 -0.0175
 1049TIP3    H127342   2.357   3.260  16.707 -1.8292  1.3047 -0.0570
 1049TIP3    H227343   2.216   3.210  16.686 -1.8624  0.4303  1.9319
 1050TIP3   OH227344   5.549   0.153  17.267 -0.0181 -0.1911  0.4844
 1050TIP3    H127345   5.453   0.150  17.267 -0.1207  1.7938 -0.0498
 1050TIP3    H227346   5.572   0.155  17.360 -0.3036 -3.0482  0.7207
 1051TIP3   OH227347   5.459   2.053  17.659  0.2002 -0.2351  0.6565
 1051TIP3    H127348   5.435   2.138  17.694 -1.7386 -1.5383  2.7835
 1051TIP3    H227349   5.444   2.061  17.565 -0.7022  1.5271  0.9090
 1052TIP3   OH227350   7.230   3.100  18.638  0.3926 -0.6644  0.3351
 1052TIP3    H127351   7.201   3.048  18.564 -0.0001 -0.3086  0.2369
 1052TIP3    H227352   7.268   3.179  18.599  0.9053 -0.8272  0.4860
 1053TIP3   OH227353   0.164   1.417  19.246  0.5564 -0.1733 -0.6493
 1053TIP3    H127354   0.088   1.476  19.243  1.1454  0.5997 -1.0412
 1053TIP3    H227355   0.239   1.476  19.253  1.1147 -0.9343 -0.0400
 1054TIP3   OH227356   6.143   0.097  18.941  0.3558 -0.1838 -0.0713
 1054TIP3    H127357   6.168   0.011  18.908 -0.4236 -0.2827 -0.4196
 1054TIP3    H227358   6.212   0.119  19.004 -0.0603 -1.5932  0.9351
 1055TIP3   OH227359   4.840   2.494  19.367 -0.3417  0.2719 -0.1438
 1055TIP3    H127360   4.800   2.413  19.337 -1.9832  0.8057  0.5165
 1055TIP3    H227361   4.897   2.522  19.295 -0.0847 -1.2233 -0.5404
 1056TIP3   OH227362   6.042   5.421  18.362  0.1246 -0.8737 -1.0014
 1056TIP3    H127363   6.132   5.453  18.368 -0.0778 -0.4338 -0.1896
 1056TIP3    H227364   5.997   5.484  18.306 -0.1134 -0.0671  0.0665
 1057TIP3   OH227365   6.894   6.921  17.488 -0.1478  0.4533  0.2790
 1057TIP3    H127366   6.942   7.002  17.472  0.0451  0.3434  0.2976
 1057TIP3    H227367   6.941   6.879  17.561  1.3532 -0.9246 -1.3670
 1058TIP3   OH227368   1.110   5.952  17.218  0.3090 -0.5756  0.4944
 1058TIP3    H127369   1.047   5.993  17.159  1.0194 -0.9970 -0.6003
 1058TIP3    H227370   1.105   5.858  17.197  1.4696 -0.5833  0.2153
 1059TIP3   OH227371   4.707   4.330  17.206 -0.2582 -0.4705 -0.0825
 1059TIP3    H127372   4.791   4.372  17.188 -0.5185  0.4640  0.7878
 1059TIP3    H227373   4.708   4.251  17.152  1.0352 -0.3079 -0.3414
 1060TIP3   OH227374   3.740   0.877  18.901  0.2839 -0.7005  0.1671
 1060TIP3    H127375   3.733   0.935  18.826 -1.0079  0.7149  1.3016
 1060TIP3    H227376   3.834   0.864  18.914  0.5357 -0.3894 -1.2218
 1061TIP3   OH227377   0.190   5.577  18.380  0.4769  0.5972  0.1525
 1061TIP3    H127378   0.185   5.611  18.290 -0.2130  0.0773 -0.0180
 1061TIP3    H227379   0.259   5.511  18.377  0.5047  0.6326  0.0187
 1062TIP3   OH227380   3.681   2.365  19.241  0.4551 -0.0901  0.0502
 1062TIP3    H127381   3.750   2.310  19.278  1.9316  0.6804 -1.4067
 1062TIP3    H227382   3.710   2.455  19.258 -0.8198  0.2679  0.4789
 1063TIP3   OH227383   5.360   3.120  17.416  0.3010  0.5136  0.8425
 1063TIP3    H127384   5.367   3.216  17.411 -1.7608  0.7606  1.6821
 1063TIP3    H227385   5.266   3.103  17.412  0.3102 -1.2084  4.3200
 1064TIP3   OH227386   6.630   1.470  16.972  0.2576 -0.4121 -0.2751
 1064TIP3    H127387   6.588   1.535  16.916  2.5305  1.0517 -0.4301
 1064TIP3    H227388   6.630   1.390  16.921 -1.0935 -0.1026 -0.7906
 1065TIP3   OH227389   6.854   6.330  18.969  0.0149  0.3806 -0.5862
 1065TIP3    H127390   6.842   6.360  18.879 -1.7508  0.2868 -0.4249
 1065TIP3    H227391   6.791   6.381  19.020 -1.4310 -1.8606  0.0418
 1066TIP3   OH227392   4.450   5.590  18.420  0.8146 -0.1186 -0.3311
 1066TIP3    H127393   4.469   5.570  18.328 -0.3020 -0.7597 -0.4344
 1066TIP3    H227394   4.535   5.617  18.456  1.1391  0.8221 -1.7102
 1067TIP3   OH227395   4.900   6.446  17.219  0.0630 -0.5521  0.6003
 1067TIP3    H127396   4.830   6.406  17.166 -0.5080 -0.1771  1.0573
 1067TIP3    H227397   4.862   6.454  17.306  0.1762  0.9228  0.5422
 1068TIP3   OH227398   1.745   1.876  19.293  0.6801  0.1776  0.1555
 1068TIP3    H127399   1.828   1.913  19.265  1.2701 -0.9704  0.3172
 1068TIP3    H227400   1.750   1.784  19.267 -0.1097 -0.1433  1.0833
 1069TIP3   OH227401   3.630   2.313  18.428  0.2765  0.5392 -0.1095
 1069TIP3    H127402   3.700   2.352  18.375  3.0524 -0.7464  2.3247
 1069TIP3    H227403   3.655   2.221  18.438 -0.8122  0.4214  2.2749
 1070TIP3   OH227404   1.429   3.588  18.322  0.1375 -0.0554  0.3540
 1070TIP3    H127405   1.360   3.637  18.279 -0.8443 -1.5467  0.1493
 1070TIP3    H227406   1.419   3.498  18.289  2.8096 -0.1369 -0.4520
 1071TIP3   OH227407   3.367   5.652  18.668  0.1864 -0.2621 -0.2568
 1071TIP3    H127408   3.385   5.745  18.681 -2.4809  0.4346 -0.9136
 1071TIP3    H227409   3.430   5.608  18.725  0.3154  1.9930  1.5205
 1072TIP3   OH227410   6.425   5.413  18.507  0.6041 -0.3217 -0.4569
 1072TIP3    H127411   6.371   5.455  18.440 -1.8139 -1.6834  0.5275
 1072TIP3    H227412   6.397   5.322  18.507 -0.0214 -0.2407  2.8556
 1073TIP3   OH227413   2.663   7.127  17.989 -0.3442  0.0903 -0.1183
 1073TIP3    H127414   2.648   7.156  18.079  1.6837 -0.4830  0.4463
 1073TIP3    H227415   2.579   7.088  17.962 -1.9514  2.9142  0.4065
 1074TIP3   OH227416   5.189   6.253  18.104  0.2564  0.8100  0.0987
 1074TIP3    H127417   5.122   6.288  18.162 -0.3293  2.0059 -1.2138
 1074TIP3    H227418   5.170   6.159  18.098 -0.7094  0.9670  0.5168
 1075TIP3   OH227419   3.980   6.256  17.234 -0.4648  0.3149  0.0032
 1075TIP3    H127420   4.044   6.319  17.267  0.0275 -0.6469  0.9127
 1075TIP3    H227421   3.954   6.205  17.311 -1.4712 -0.0664 -0.5701
 1076TIP3   OH227422   2.099   2.208  18.795 -0.1944  0.0790 -0.4199
 1076TIP3    H127423   2.070   2.187  18.883 -0.5764 -1.4338 -0.8804
 1076TIP3    H227424   2.166   2.276  18.807 -0.9407  0.6090  0.9412
 1077TIP3   OH227425   4.949   6.826  16.280  0.3362 -0.3497  0.4701
 1077TIP3    H127426   4.907   6.897  16.231  0.6719  0.8685  1.8817
 1077TIP3    H227427   5.018   6.794  16.222 -1.2037 -1.0563 -1.0765
 1078TIP3   OH227428   4.871   5.002  18.019  0.0830 -0.0368 -0.0603
 1078TIP3    H127429   4.836   4.959  18.097  0.5543  0.5973  0.5045
 1078TIP3    H227430   4.937   4.940  17.985  1.1559  0.4454  1.0637
 1079TIP3   OH227431   0.327   2.947  18.686 -0.4084 -0.1455 -0.5229
 1079TIP3    H127432   0.313   2.965  18.779 -1.6315  0.8517 -0.8689
 1079TIP3    H227433   0.239   2.942  18.650  0.0576  0.8963 -1.8831
 1080TIP3   OH227434   6.372   1.770  17.049  0.2208  0.0363  0.1718
 1080TIP3    H127435   6.426   1.725  17.114  0.0437 -0.9249 -0.3231
 1080TIP3    H227436   6.410   1.858  17.041  2.8350 -1.1207 -1.4066
 1081TIP3   OH227437   1.611   3.556  18.567 -0.4381 -0.7263 -0.1527
 1081TIP3    H127438   1.544   3.526  18.629 -0.4202  2.1058  1.3890
 1081TIP3    H227439   1.563   3.566  18.484 -1.3605 -0.9391  0.3368
 1082TIP3   OH227440   2.058   0.915  19.208  0.5071 -0.5017  0.1717
 1082TIP3    H127441   1.984   0.919  19.268  1.0385 -0.0988  0.8128
 1082TIP3    H227442   2.059   1.000  19.164  1.0953 -0.1841  0.7873
 1083TIP3   OH227443   4.176   4.032  18.990  0.0263  0.0878 -0.2462
 1083TIP3    H127444   4.180   4.039  19.085  1.4577 -1.0517 -0.1859
 1083TIP3    H227445   4.237   3.961  18.968  1.6463  1.9354 -2.1891
 1084TIP3   OH227446   1.853   4.324  18.862  0.0916  0.4660 -0.0124
 1084TIP3    H127447   1.814   4.290  18.782 -2.7211  0.8667  1.0667
 1084TIP3    H227448   1.947   4.323  18.846 -0.3265 -0.4994 -2.8645
 1085TIP3   OH227449   4.042   2.697  18.586 -0.5539 -0.3639  0.7208
 1085TIP3    H127450   4.074   2.677  18.498 -0.8807  0.2166  0.4606
 1085TIP3    H227451   4.053   2.792  18.594 -1.4915 -0.2633  0.9129
 1086TIP3   OH227452   3.069   6.315  19.202  0.7235  0.1614  0.3062
 1086TIP3    H127453   3.142   6.364  19.166  0.0142  0.9181 -0.1444
 1086TIP3    H227454   3.104   6.274  19.282  2.7824 -2.8203 -1.8949
 1087TIP3   OH227455   4.421   7.573  19.265  0.2458 -0.3052 -1.0065
 1087TIP3    H127456   4.412   7.489  19.310 -0.0471 -0.4311 -1.2910
 1087TIP3    H227457   4.349   7.573  19.202 -0.1549  0.4470 -0.5586
 1088TIP3   OH227458   5.189   7.186  17.811 -0.2466 -0.5521 -0.0100
 1088TIP3    H127459   5.178   7.265  17.760 -1.2665 -0.6175  0.1047
 1088TIP3    H227460   5.215   7.119  17.747  2.7515  0.3034  0.1662
 1089TIP3   OH227461   3.947   6.217  19.328 -0.1502 -0.0226  0.7500
 1089TIP3    H127462   3.964   6.182  19.415  1.3376 -1.5767 -0.0997
 1089TIP3    H227463   3.851   6.219  19.320 -0.3080 -2.2530  1.5290
 1090TIP3   OH227464   5.732   3.991  19.080 -0.7747  0.3886 -0.2051
 1090TIP3    H127465   5.664   3.981  19.014 -1.1683  0.6846  0.1426
 1090TIP3    H227466   5.762   3.902  19.099 -2.1209  0.1049  0.7130
 1091TIP3   OH227467   0.092   7.059  17.079  0.2635 -0.2746 -0.3715
 1091TIP3    H127468   0.055   7.136  17.123  2.6307  0.7481 -0.0220
 1091TIP3    H227469   0.083   7.077  16.986 -2.6849 -1.4090 -0.4043
 1092TIP3   OH227470   7.196   7.175  19.515  0.6337  0.8480  0.1399
 1092TIP3    H127471   7.254   7.252  19.506  0.1111  0.9963 -3.0285
 1092TIP3    H227472   7.166   7.157  19.426 -3.1712 -0.0784  1.4239
 1093TIP3   OH227473   0.522   0.543  17.724  0.3023  0.0015  0.4423
 1093TIP3    H127474   0.556   0.460  17.756  0.3792  0.4028  1.4297
 1093TIP3    H227475   0.599   0.593  17.698  0.2630 -0.1937 -0.0565
 1094TIP3   OH227476   5.003   3.209  18.015  0.2136  0.1419 -0.9278
 1094TIP3    H127477   4.908   3.220  18.024  0.2644  0.3528 -0.5922
 1094TIP3    H227478   5.039   3.292  18.047  0.6085 -0.8240  1.3066
 1095TIP3   OH227479   3.964   2.430  17.941 -0.0609  0.3434  0.3051
 1095TIP3    H127480   4.020   2.357  17.913 -0.3811  0.1749  0.0937
 1095TIP3    H227481   3.965   2.491  17.868  1.2382  1.1785  0.9751
 1096TIP3   OH227482   5.163   3.799  18.700 -0.2946  0.5960 -0.3082
 1096TIP3    H127483   5.120   3.713  18.693  0.5020  0.2588 -1.0880
 1096TIP3    H227484   5.125   3.837  18.780 -0.1659 -0.7566  0.4311
 1097TIP3   OH227485   6.649   2.865  18.123 -0.0239 -0.2395  0.0176
 1097TIP3    H127486   6.615   2.871  18.034 -0.1508  1.7376  0.1505
 1097TIP3    H227487   6.739   2.895  18.117 -0.6092  1.8902  0.8038
 1098TIP3   OH227488   4.058   3.263  18.500  0.2529  0.6184  0.0060
 1098TIP3    H127489   4.099   3.321  18.437 -0.8202 -0.4189 -1.7411
 1098TIP3    H227490   4.107   3.276  18.581  1.2307  2.5175 -0.8398
 1099TIP3   OH227491   3.188   5.388  18.773  0.0611  0.3286 -0.6496
 1099TIP3    H127492   3.242   5.330  18.826 -1.5077  0.4997  1.2640
 1099TIP3    H227493   3.247   5.422  18.706  1.6678 -1.3647 -0.1640
 1100TIP3   OH227494   2.373   1.901  19.361  0.1883  0.1706 -0.0699
 1100TIP3    H127495   2.341   1.987  19.334  0.6858  0.5762  0.6369
 1100TIP3    H227496   2.294   1.847  19.365 -0.3483  0.9897  0.9753
 1101TIP3   OH227497   7.322   2.008  19.490  0.4200  0.1724  0.3771
 1101TIP3    H127498   7.359   2.088  19.528 -1.6734  1.7825 -0.7800
 1101TIP3    H227499   7.227   2.018  19.501  0.0890 -2.2423  0.2927
 1102TIP3   OH227500   4.129   5.206  18.558 -0.5529 -0.7048  0.6698
 1102TIP3    H127501   4.214   5.168  18.580 -0.1041  1.0889  2.4268
 1102TIP3    H227502   4.150   5.282  18.503 -0.9706 -0.1174  1.3031
 1103TIP3   OH227503   3.613   2.853  17.792 -0.1709 -0.9055 -0.2337
 1103TIP3    H127504   3.625   2.808  17.709 -0.2023 -0.8100 -0.2896
 1103TIP3    H227505   3.600   2.782  17.856 -2.2660 -0.9340 -0.6327
 1104TIP3   OH227506   5.151   1.791  19.276  0.1149 -0.2288 -0.7926
 1104TIP3    H127507   5.060   1.770  19.296  0.9630 -2.6341  1.0616
 1104TIP3    H227508   5.173   1.734  19.202  0.5208 -0.8765 -0.1897
 1105TIP3   OH227509   7.577   7.649  19.046  0.5310  0.2159 -0.7224
 1105TIP3    H127510   7.507   7.603  19.000 -0.5810  0.1213  0.9837
 1105TIP3    H227511   7.638   7.580  19.071 -0.2706 -0.1234  0.3440
 1106TIP3   OH227512   1.466   6.983  17.053  0.4554  0.5577 -0.1526
 1106TIP3    H127513   1.452   6.976  17.147 -1.4253  0.1682 -0.4333
 1106TIP3    H227514   1.444   7.074  17.031 -2.0918 -0.1018 -0.6218
 1107TIP3   OH227515   6.225   1.995  18.716  0.0666 -0.1030  0.1445
 1107TIP3    H127516   6.319   2.010  18.729 -0.0099 -0.8331  1.8101
 1107TIP3    H227517   6.193   1.970  18.803 -1.0342 -3.1604 -0.9842
 1108TIP3   OH227518   0.784   3.308  18.655  0.2919  0.1560  0.2631
 1108TIP3    H127519   0.689   3.297  18.652  0.3556 -0.9985  1.5166
 1108TIP3    H227520   0.818   3.218  18.656  1.3484  0.5511  0.9609
 1109TIP3   OH227521   2.865   4.120  18.023  0.6190  0.3193 -0.5329
 1109TIP3    H127522   2.853   4.027  18.002 -1.7581 -0.5425  3.4721
 1109TIP3    H227523   2.959   4.131  18.034  0.8948 -1.9140 -0.2382
 1110TIP3   OH227524   0.144   7.315  19.325 -0.2999  0.1296 -0.0938
 1110TIP3    H127525   0.118   7.365  19.403 -2.3551 -2.5264  1.0623
 1110TIP3    H227526   0.239   7.306  19.332 -0.3144  0.9237  1.4812
 1111TIP3   OH227527   5.524   1.999  17.274 -0.1337  0.1279  0.3006
 1111TIP3    H127528   5.526   1.905  17.291 -0.0487 -0.8881 -4.0840
 1111TIP3    H227529   5.453   2.033  17.329  0.5885 -2.2060  2.8509
 1112TIP3   OH227530   2.311   3.715  16.823 -0.1233 -0.8237  0.4440
 1112TIP3    H127531   2.242   3.650  16.806 -0.7663 -0.2761  0.9317
 1112TIP3    H227532   2.272   3.798  16.796 -0.1310 -0.3342  1.9200
 1113TIP3   OH227533   3.962   2.173  18.317  0.2493  0.1149 -0.7760
 1113TIP3    H127534   3.903   2.101  18.335 -1.0430  1.3983  0.3242
 1113TIP3    H227535   3.906   2.251  18.317  1.9813  1.4340  0.7656
 1114TIP3   OH227536   2.031   2.150  17.813 -0.2302  0.3330  0.2607
 1114TIP3    H127537   2.002   2.076  17.865 -3.6618  1.2893 -0.0326
 1114TIP3    H227538   2.081   2.111  17.741  1.6444 -1.2487  2.3068
 1115TIP3   OH227539   6.302   0.174  18.108 -0.5822 -0.1011  0.6406
 1115TIP3    H127540   6.305   0.216  18.194 -1.0773  0.5450  0.3423
 1115TIP3    H227541   6.307   0.246  18.045  2.2288 -0.6556  0.0639
 1116TIP3   OH227542   6.017   2.568  18.100 -0.5796  0.2731  0.0574
 1116TIP3    H127543   6.059   2.590  18.183  3.8748  1.3028 -2.1874
 1116TIP3    H227544   6.025   2.473  18.093  1.8279  0.4598 -0.4093
 1117TIP3   OH227545   4.816   0.783  17.084  0.3339 -0.1659 -0.0448
 1117TIP3    H127546   4.775   0.745  17.007  0.5762 -0.0129 -0.2540
 1117TIP3    H227547   4.856   0.864  17.052  0.1296  0.0783  0.3174
 1118TIP3   OH227548   1.396   7.536  18.090 -0.3396  0.2665  0.3550
 1118TIP3    H127549   1.315   7.532  18.040 -0.2170 -1.0376  0.2228
 1118TIP3    H227550   1.464   7.512  18.026  0.1902  1.5536  0.4055
 1119TIP3   OH227551   0.961   0.617  18.850  0.2597  0.1014 -0.0524
 1119TIP3    H127552   0.961   0.543  18.789  1.1854 -0.4135  0.5479
 1119TIP3    H227553   0.920   0.582  18.929  2.1441 -0.2860  0.7974
 1120TIP3   OH227554   3.773   4.788  18.644 -0.1311  0.0421 -0.3745
 1120TIP3    H127555   3.823   4.727  18.591 -0.0189  0.2259 -0.4792
 1120TIP3    H227556   3.820   4.871  18.636  0.8220 -0.2881  1.2866
 1121TIP3   OH227557   7.360   1.739  18.341 -0.2850 -0.2399  0.3032
 1121TIP3    H127558   7.323   1.802  18.281  0.0711  0.1746  0.5132
 1121TIP3    H227559   7.350   1.779  18.428  2.0877  0.6518  0.2463
 1122TIP3   OH227560   0.173   5.723  18.645  0.2186  0.0241 -0.0531
 1122TIP3    H127561   0.081   5.742  18.664  0.1617 -1.0922  0.9349
 1122TIP3    H227562   0.169   5.654  18.578  0.2106 -2.1780  2.0714
 1123TIP3   OH227563   6.015   3.419  19.240  0.6255  0.6516 -0.2575
 1123TIP3    H127564   6.105   3.448  19.252  1.3529 -2.1224  2.4334
 1123TIP3    H227565   6.011   3.391  19.148  3.3088 -1.2804  0.0789
 1124TIP3   OH227566   1.474   3.705  19.131 -0.2001 -0.0930  0.7739
 1124TIP3    H127567   1.488   3.612  19.110  0.9271  0.2799 -0.2158
 1124TIP3    H227568   1.431   3.741  19.054  1.8725  0.7772 -0.0599
 1125TIP3   OH227569   6.138   1.636  17.476 -0.0542 -0.0768  0.0759
 1125TIP3    H127570   6.059   1.666  17.430  0.0471  2.5756  1.4033
 1125TIP3    H227571   6.201   1.706  17.463  1.7320 -1.6292  0.0165
 1126TIP3   OH227572   2.056   7.194  19.045 -0.3282 -0.7055 -0.3194
 1126TIP3    H127573   2.065   7.147  18.962  0.1280 -1.9192  0.3892
 1126TIP3    H227574   2.137   7.244  19.053 -1.1034  0.7860 -1.4017
 1127TIP3   OH227575   1.419   2.098  17.148 -0.7772  0.3462  0.1577
 1127TIP3    H127576   1.502   2.137  17.177  1.0135 -3.0831  0.2017
 1127TIP3    H227577   1.415   2.117  17.055  0.7400 -0.3705 -0.0934
 1128TIP3   OH227578   4.256   6.462  19.092 -0.7027  0.1354  0.5841
 1128TIP3    H127579   4.349   6.482  19.089 -0.5710  0.0094  2.5179
 1128TIP3    H227580   4.214   6.546  19.114 -0.9274 -0.0485  0.8650
 1129TIP3   OH227581   6.795   4.925  19.168  0.2493  0.0685  0.0884
 1129TIP3    H127582   6.740   4.994  19.203  0.0636  0.0110 -0.0847
 1129TIP3    H227583   6.794   4.857  19.235 -2.5554 -1.3477 -1.2187
 1130TIP3   OH227584   6.414   5.801  18.225  0.1073 -0.6273 -0.3192
 1130TIP3    H127585   6.493   5.780  18.176  0.1783 -0.5743 -0.2276
 1130TIP3    H227586   6.372   5.871  18.174  0.1401 -0.6269 -0.3453
 1131TIP3   OH227587   7.634   4.003  19.648  0.1298 -0.5663 -0.2181
 1131TIP3    H127588   7.715   3.997  19.698 -0.3760 -2.1372  0.4935
 1131TIP3    H227589   7.576   3.937  19.688 -1.4102  0.3407 -0.8576
 1132TIP3   OH227590   6.449   6.031  16.783  0.4840 -0.1754 -0.4653
 1132TIP3    H127591   6.493   5.959  16.738  0.7589 -0.3212  0.0303
 1132TIP3    H227592   6.520   6.079  16.826  0.2944  0.3568 -0.7431
 1133TIP3   OH227593   6.802   5.024  19.655 -0.9396  0.0705  0.3783
 1133TIP3    H127594   6.745   5.100  19.641  0.0515  1.3019  2.5409
 1133TIP3    H227595   6.885   5.049  19.616 -0.3593  0.4884  1.8288
 1134TIP3   OH227596   2.963   3.395  18.588 -0.1802  0.4923 -0.0512
 1134TIP3    H127597   2.967   3.433  18.676 -0.1951 -0.3836  0.3391
 1134TIP3    H227598   3.053   3.369  18.569 -0.3141 -0.0189  0.0197
 1135TIP3   OH227599   4.762   6.493  17.470  0.0757 -0.7909 -0.5127
 1135TIP3    H127600   4.755   6.588  17.473  0.2643 -0.7778 -0.4526
 1135TIP3    H227601   4.672   6.462  17.463  0.0135 -0.6085 -0.5224
 1136TIP3   OH227602   4.457   2.299  19.433 -0.6354  0.1398  0.0012
 1136TIP3    H127603   4.520   2.326  19.500 -0.4249 -0.3745  0.0106
 1136TIP3    H227604   4.411   2.380  19.409 -0.7439  0.3205  0.7949
 1137TIP3   OH227605   4.401   3.397  18.191 -0.1156  0.4764  0.0642
 1137TIP3    H127606   4.340   3.333  18.154  1.2541 -0.9134  0.1399
 1137TIP3    H227607   4.358   3.482  18.175 -0.7271 -0.2170 -2.4969
 1138TIP3   OH227608   6.650   1.702  19.542 -0.2766 -0.6247  0.2667
 1138TIP3    H127609   6.638   1.758  19.466 -0.3194  0.2775  0.9162
 1138TIP3    H227610   6.652   1.763  19.616  0.5753 -1.4023  0.9079
 1139TIP3   OH227611   4.937   6.989  18.857 -0.4850 -0.1742  0.6377
 1139TIP3    H127612   5.014   6.959  18.810 -1.3880 -0.4329 -0.7294
 1139TIP3    H227613   4.968   7.061  18.912  0.5739  0.2429 -0.4755
 1140TIP3   OH227614   2.626   4.183  16.589 -0.0591  0.4513 -0.7068
 1140TIP3    H127615   2.560   4.115  16.605 -0.5024  0.8632 -0.7557
 1140TIP3    H227616   2.575   4.260  16.564  0.4742  0.6263 -1.2627
 1141TIP3   OH227617   3.663   5.234  18.166  0.6979 -0.2323  0.1390
 1141TIP3    H127618   3.673   5.244  18.260  0.9263 -1.1479  0.2171
 1141TIP3    H227619   3.696   5.317  18.130  0.7262  0.0724  0.8507
 1142TIP3   OH227620   7.661   5.837  19.206 -0.3430  0.1993  0.0859
 1142TIP3    H127621   7.706   5.827  19.123 -1.1670 -2.0649 -0.1446
 1142TIP3    H227622   7.690   5.763  19.259 -2.8230 -0.6864  0.3433
 1143TIP3   OH227623   2.165   0.662  19.124 -0.1087  0.2552  0.1556
 1143TIP3    H127624   2.147   0.755  19.116  1.2568  0.5196  0.0294
 1143TIP3    H227625   2.085   0.626  19.163 -0.6713  1.4563  0.1588
 1144TIP3   OH227626   2.720   1.954  18.304  0.4798 -0.4613 -0.5766
 1144TIP3    H127627   2.702   1.967  18.397 -1.2920  2.6267 -1.1989
 1144TIP3    H227628   2.776   2.027  18.280  1.7267 -1.7621 -1.8016
 1145TIP3   OH227629   6.648   3.660  18.712  0.2899  0.0061 -0.8464
 1145TIP3    H127630   6.637   3.571  18.678 -3.0364  0.2659 -0.7408
 1145TIP3    H227631   6.646   3.649  18.808  2.8302 -0.0155 -0.7240
 1146TIP3   OH227632   0.494   4.890  18.078 -0.2539  0.1397 -0.0585
 1146TIP3    H127633   0.400   4.873  18.086 -0.1910 -0.6665 -0.8766
 1146TIP3    H227634   0.500   4.963  18.016 -0.3806  0.8967  0.8135
 1147TIP3   OH227635   3.652   1.233  18.250 -0.1806 -0.1319 -0.5547
 1147TIP3    H127636   3.640   1.321  18.213 -1.2524  0.1497  0.3943
 1147TIP3    H227637   3.689   1.248  18.337 -2.7984 -0.4033  0.7019
 1148TIP3   OH227638   3.051   0.401  16.663  0.1073  0.8179  0.1990
 1148TIP3    H127639   3.058   0.331  16.727 -1.4302  1.6753  1.3694
 1148TIP3    H227640   3.005   0.362  16.589  0.1322  0.3371  0.4391
 1149TIP3   OH227641   0.002   6.611  18.001  0.3736 -0.7889  0.6246
 1149TIP3    H127642   0.052   6.535  17.972  0.5248 -0.3779 -0.2608
 1149TIP3    H227643  -0.068   6.619  17.936 -0.5994 -1.0972  1.6052
 1150TIP3   OH227644   6.930   0.053  18.512  0.3995 -0.8410 -0.0356
 1150TIP3    H127645   7.004   0.034  18.454  0.3043  0.2623 -0.5401
 1150TIP3    H227646   6.866  -0.016  18.491  0.5859 -0.7809 -0.8623
 1151TIP3   OH227647   3.950   2.447  17.463 -0.4103 -0.0110  0.5813
 1151TIP3    H127648   3.934   2.387  17.535  2.1133  0.8678  1.9741
 1151TIP3    H227649   3.994   2.394  17.397  1.3423  0.1326  1.5912
 1152TIP3   OH227650   5.059   1.559  18.322 -0.3614 -0.3646 -0.3447
 1152TIP3    H127651   5.064   1.473  18.280 -0.4097 -0.3875 -0.3036
 1152TIP3    H227652   5.056   1.539  18.416  1.3532 -0.2515 -0.2361
 1153TIP3   OH227653   5.082   7.028  18.575  0.9221  0.4391 -0.0716
 1153TIP3    H127654   5.101   7.106  18.627 -2.0774  0.7326  0.7725
 1153TIP3    H227655   4.987   7.029  18.565  0.3754 -4.4390  2.1514
 1154TIP3   OH227656   2.600   5.822  18.140 -0.1343 -0.2280  0.0126
 1154TIP3    H127657   2.544   5.900  18.147  0.4396  0.1158  0.8340
 1154TIP3    H227658   2.567   5.777  18.062 -0.1622  1.0905 -0.7804
 1155TIP3   OH227659   5.981   0.901  18.316  0.3018  0.0889 -0.5334
 1155TIP3    H127660   6.011   0.983  18.278 -0.6109  0.9983  0.6073
 1155TIP3    H227661   6.060   0.848  18.328  0.6797 -0.0380 -3.1161
 1156TIP3   OH227662   3.927   4.283  18.318  0.0514 -0.0901 -0.2603
 1156TIP3    H127663   3.906   4.307  18.228 -1.7715 -0.9396 -0.1039
 1156TIP3    H227664   3.873   4.206  18.336  1.0831 -0.5042  1.2568
 1157TIP3   OH227665   7.123   5.784  19.455 -0.3132 -0.0349  0.1518
 1157TIP3    H127666   7.050   5.832  19.416  1.2586  0.7007 -2.0282
 1157TIP3    H227667   7.201   5.831  19.427  1.2218 -2.8753 -0.7032
 1158TIP3   OH227668   4.075   5.212  18.168 -0.1986  0.4077 -0.0892
 1158TIP3    H127669   4.046   5.203  18.077  0.4883 -0.0664 -0.2623
 1158TIP3    H227670   4.163   5.177  18.170 -1.4340 -3.0490  1.4996
 1159TIP3   OH227671   1.888   6.054  19.538 -0.1724  0.6153 -0.0206
 1159TIP3    H127672   1.850   6.136  19.568 -2.1811  0.4898 -1.9673
 1159TIP3    H227673   1.823   6.018  19.478  2.9562  0.2910 -3.5774
 1160TIP3   OH227674   6.273   7.033  18.985 -0.6173  0.0152  0.0590
 1160TIP3    H127675   6.364   7.049  18.959 -0.6745 -1.9700 -1.5578
 1160TIP3    H227676   6.236   7.121  18.998  1.2810  0.8769 -0.1103
 1161TIP3   OH227677   5.057   4.605  17.699  0.5527 -0.6964  0.2958
 1161TIP3    H127678   5.056   4.529  17.640 -0.9467 -0.6563  0.2289
 1161TIP3    H227679   5.130   4.658  17.668 -0.3882 -0.5056 -1.7825
 1162TIP3   OH227680   4.829   7.391  16.728  0.4536  0.0314 -0.0266
 1162TIP3    H127681   4.786   7.342  16.798  0.3095 -1.7737 -1.3190
 1162TIP3    H227682   4.774   7.468  16.714  0.8976  0.8745  2.3195
 1163TIP3   OH227683   1.194   6.697  18.270  0.1721  0.1588  0.5781
 1163TIP3    H127684   1.278   6.651  18.270  0.5075  0.5203 -2.5158
 1163TIP3    H227685   1.210   6.775  18.216 -2.2235  0.0422 -0.4194
 1164TIP3   OH227686   0.184   0.042  17.284  0.4651  0.1099 -0.5931
 1164TIP3    H127687   0.192  -0.044  17.325 -0.4068  0.7849  1.0744
 1164TIP3    H227688   0.258   0.092  17.318 -1.6112  1.4553  2.3120
 1165TIP3   OH227689   7.376   7.402  19.560 -0.3207  0.3361  0.2975
 1165TIP3    H127690   7.387   7.472  19.624 -1.2648  0.7250  0.0430
 1165TIP3    H227691   7.354   7.447  19.479  0.4115 -0.1822 -0.2089
 1166TIP3   OH227692   4.964   3.519  19.146  0.2923 -0.3725 -0.0289
 1166TIP3    H127693   4.897   3.531  19.079  1.8283 -0.3155 -1.6191
 1166TIP3    H227694   4.987   3.427  19.141 -1.6300 -1.1020  2.5285
 1167TIP3   OH227695   6.471   3.974  19.585 -0.5296  0.3334  0.1169
 1167TIP3    H127696   6.505   4.052  19.542 -0.2512  0.4129  0.4779
 1167TIP3    H227697   6.404   4.006  19.644 -0.5706  0.2735  0.1031
 1168TIP3   OH227698   3.336   2.156  18.703  0.2129 -0.3044 -0.5691
 1168TIP3    H127699   3.297   2.201  18.777  1.2162 -1.3248  0.6407
 1168TIP3    H227700   3.324   2.063  18.722 -0.9589 -0.6034 -2.5140
 1169TIP3   OH227701   4.642   5.226  17.632  0.1452  0.1144 -0.5306
 1169TIP3    H127702   4.694   5.245  17.710 -0.4252  0.1596 -0.1576
 1169TIP3    H227703   4.638   5.310  17.585 -0.3371  0.3223 -0.1126
 1170TIP3   OH227704   4.444   6.854  17.000  0.1609 -0.2420 -0.2701
 1170TIP3    H127705   4.359   6.859  17.043 -0.2203  0.2165 -1.0489
 1170TIP3    H227706   4.507   6.841  17.071 -0.6129 -1.1636  0.2604
 1171TIP3   OH227707   2.455   4.547  17.932  0.1907  0.0975 -0.2223
 1171TIP3    H127708   2.448   4.574  17.841  1.1834  0.2675 -0.2563
 1171TIP3    H227709   2.434   4.453  17.931 -1.0653  0.3515 -0.4187
 1172TIP3   OH227710   0.138   7.441  18.186 -0.7702 -0.4629 -0.0892
 1172TIP3    H127711   0.073   7.376  18.160 -1.4349  0.6143 -1.2126
 1172TIP3    H227712   0.116   7.519  18.136  1.4645 -0.0845 -0.5933
 1173TIP3   OH227713   1.192   7.299  17.390  0.2920  0.4956  0.2583
 1173TIP3    H127714   1.120   7.356  17.417  0.8286  0.3919  2.0850
 1173TIP3    H227715   1.154   7.241  17.324 -0.5176  2.3127 -0.9280
 1174TIP3   OH227716   7.267   1.471  17.373 -0.5395 -0.1718  0.0178
 1174TIP3    H127717   7.236   1.453  17.285 -1.2344  3.1273 -0.5498
 1174TIP3    H227718   7.358   1.498  17.362 -0.0771 -1.4220  0.5799
 1175TIP3   OH227719   2.304   0.598  18.912  0.0132 -0.0940  0.0212
 1175TIP3    H127720   2.325   0.505  18.904 -0.5637 -0.3014  0.8931
 1175TIP3    H227721   2.269   0.608  19.000  1.4624  1.2300  0.4994
 1176TIP3   OH227722   5.600   7.679  17.042  0.1771 -0.4269 -0.3098
 1176TIP3    H127723   5.580   7.726  17.123 -0.4278  0.1802 -0.7985
 1176TIP3    H227724   5.695   7.687  17.032  0.8157 -3.3491  2.0437
 1177TIP3   OH227725   4.578   6.673  18.530  0.3465  0.3210 -0.6529
 1177TIP3    H127726   4.535   6.758  18.526 -0.2410  0.0170 -0.9607
 1177TIP3    H227727   4.583   6.653  18.624 -1.4063 -0.2259 -0.6353
 1178TIP3   OH227728   2.637   3.750  19.138 -0.1501  0.4982  0.3762
 1178TIP3    H127729   2.571   3.789  19.081  0.7020  1.0124 -0.2935
 1178TIP3    H227730   2.589   3.689  19.194 -0.9380 -0.4614 -1.2818
 1179TIP3   OH227731   1.179   0.627  18.621  0.1405  0.2552  0.3857
 1179TIP3    H127732   1.163   0.553  18.679  1.2469  0.7891  1.4127
 1179TIP3    H227733   1.191   0.701  18.680 -2.0464  1.5263 -0.6327
 1180TIP3   OH227734   2.382   2.087  17.806 -0.5265  0.3307 -0.4611
 1180TIP3    H127735   2.347   2.013  17.756  0.1312  0.0075 -0.4546
 1180TIP3    H227736   2.476   2.073  17.806 -0.5493 -0.4272  1.9766
 1181TIP3   OH227737   2.994   5.628  19.151 -0.3934 -0.3332  0.7588
 1181TIP3    H127738   2.969   5.585  19.233 -1.3890  0.4303  0.8773
 1181TIP3    H227739   2.999   5.557  19.088  0.3036 -0.9230  1.4484
 1182TIP3   OH227740   4.618   7.515  18.413  0.0436 -0.3894  0.0081
 1182TIP3    H127741   4.541   7.458  18.405 -1.4515  1.1693  2.2483
 1182TIP3    H227742   4.689   7.456  18.438 -1.4412 -1.3387  2.2252
 1183TIP3   OH227743   5.207   7.079  16.999 -0.6150  0.3939 -0.4618
 1183TIP3    H127744   5.230   7.054  16.910 -0.9738 -0.2734 -0.3705
 1183TIP3    H227745   5.124   7.126  16.990 -0.1534  1.2173 -0.5815
 1184TIP3   OH227746   3.415   6.660  17.905 -0.2741 -0.1567  0.1789
 1184TIP3    H127747   3.360   6.640  17.829 -2.5007  0.0696  1.6262
 1184TIP3    H227748   3.432   6.754  17.898  0.6606 -0.3704 -0.6929
 1185TIP3   OH227749   6.909   2.776  19.334  0.0129 -0.1467 -0.0972
 1185TIP3    H127750   7.001   2.803  19.332  0.0619 -0.3000  0.0774
 1185TIP3    H227751   6.863   2.845  19.285  0.6196 -1.6095 -2.9747
 1186TIP3   OH227752   6.315   7.449  18.136 -0.6361 -0.6167  0.4339
 1186TIP3    H127753   6.314   7.362  18.176  0.6625 -0.5257  0.7200
 1186TIP3    H227754   6.405   7.459  18.102 -1.2400 -0.0590 -1.1015
 1187TIP3   OH227755   5.044   6.190  17.813  0.1576 -0.3290  0.3526
 1187TIP3    H127756   5.063   6.279  17.782 -2.5336 -0.3988 -1.9494
 1187TIP3    H227757   5.128   6.156  17.843  1.6921  2.2389 -0.7111
 1188TIP3   OH227758   6.234   6.220  19.262  0.5693 -0.4354  0.6532
 1188TIP3    H127759   6.247   6.191  19.172 -0.5110 -0.0307  0.3450
 1188TIP3    H227760   6.260   6.312  19.262 -1.2391  0.1345  0.2372
 1189TIP3   OH227761   5.144   1.657  19.549 -0.1279 -0.4956  0.9210
 1189TIP3    H127762   5.151   1.579  19.494 -1.2360 -0.6380  0.9609
 1189TIP3    H227763   5.064   1.701  19.519  1.2833  1.4947 -0.1630
 1190TIP3   OH227764   1.609   6.184  17.181 -0.2031  0.2762  0.5754
 1190TIP3    H127765   1.579   6.201  17.270 -0.4202  0.4285  0.4750
 1190TIP3    H227766   1.696   6.225  17.177  0.0899 -0.3103  0.9137
 1191TIP3   OH227767   0.561   2.113  17.866 -0.1340  0.1496 -0.1761
 1191TIP3    H127768   0.471   2.080  17.865 -0.3530  0.7386 -1.1687
 1191TIP3    H227769   0.551   2.208  17.864  0.5118  0.2239  0.0314
 1192TIP3   OH227770   7.151   3.829  18.919  0.1872  0.0935 -0.0167
 1192TIP3    H127771   7.058   3.821  18.942  0.3509 -0.1001  0.6076
 1192TIP3    H227772   7.194   3.757  18.965  1.1283  2.0914  2.5701
 1193TIP3   OH227773   1.434   6.028  17.041  0.2788 -0.1363  0.0078
 1193TIP3    H127774   1.393   5.961  17.095  0.3669  0.2328  0.5393
 1193TIP3    H227775   1.500   6.068  17.098  1.6804 -0.9989 -0.9560
 1194TIP3   OH227776   5.723   5.380  17.752 -1.1329  0.2365  0.6507
 1194TIP3    H127777   5.717   5.413  17.663  1.3672  0.0859  0.3512
 1194TIP3    H227778   5.680   5.295  17.750  0.5081 -0.6302 -0.9416
 1195TIP3   OH227779   6.843   0.136  19.198  0.3702  0.3652  0.4189
 1195TIP3    H127780   6.849   0.146  19.103 -0.0353 -0.5776  0.2811
 1195TIP3    H227781   6.765   0.185  19.223 -0.5120 -0.7979  0.0184
 1196TIP3   OH227782   3.098   2.978  18.618  0.1792 -0.1995 -0.0988
 1196TIP3    H127783   3.106   3.073  18.621 -0.4580 -0.1540  2.2351
 1196TIP3    H227784   3.067   2.954  18.705 -0.3515 -2.4965 -0.8466
 1197TIP3   OH227785   6.117   1.465  19.299  0.2260  0.1936 -0.4947
 1197TIP3    H127786   6.050   1.475  19.232 -0.1443  1.7738  0.0645
 1197TIP3    H227787   6.156   1.552  19.307  0.6991 -0.1222  0.8752
 1198TIP3   OH227788   1.737   0.415  17.572  0.2850  0.3460  0.0733
 1198TIP3    H127789   1.706   0.505  17.583  1.1804  0.5885  0.7936
 1198TIP3    H227790   1.749   0.383  17.662  1.7257  0.1411 -0.1712
 1199TIP3   OH227791   4.198   5.346  19.679 -0.0773 -0.5511 -0.0934
 1199TIP3    H127792   4.192   5.311  19.590 -1.3474 -0.3623 -0.0939
 1199TIP3    H227793   4.187   5.270  19.736 -2.7112 -0.2505 -0.0963
 1200TIP3   OH227794   0.535   2.449  18.627 -0.0997  0.7878 -0.4431
 1200TIP3    H127795   0.629   2.443  18.645 -0.0543  1.7128 -0.3317
 1200TIP3    H227796   0.517   2.543  18.626 -1.4509  0.6276  1.7841
 1201TIP3   OH227797   1.874   2.406  18.586  0.2952  0.6470  0.3568
 1201TIP3    H127798   1.831   2.483  18.549 -1.2577 -0.9775 -1.4047
 1201TIP3    H227799   1.851   2.409  18.679 -2.0768  0.9278 -0.1564
 1202TIP3   OH227800   3.634   4.617  17.150  0.6873  0.1995 -0.0446
 1202TIP3    H127801   3.683   4.659  17.080  2.3065  0.3031  1.1181
 1202TIP3    H227802   3.608   4.532  17.113 -0.6207  1.2028 -1.5897
 1203TIP3   OH227803   2.010   3.601  18.825 -0.0967  0.0707  0.2349
 1203TIP3    H127804   2.028   3.644  18.742  0.9785 -2.8835 -1.2206
 1203TIP3    H227805   1.967   3.667  18.878 -0.0035  2.3533 -2.3401
 1204TIP3   OH227806   4.933   1.999  17.978 -0.3768 -0.0696  0.3606
 1204TIP3    H127807   4.957   1.949  18.056 -1.0193  0.7829  1.1211
 1204TIP3    H227808   4.946   2.091  18.004  1.5668  0.1938 -1.2523
 1205TIP3   OH227809   1.814   0.213  17.180  0.5310  0.0753 -0.0370
 1205TIP3    H127810   1.802   0.297  17.135  1.5035 -0.2865 -1.0185
 1205TIP3    H227811   1.859   0.236  17.262  2.3533  0.3769 -1.0723
 1206TIP3   OH227812   6.702   4.897  17.977  0.2517  0.3566 -0.5228
 1206TIP3    H127813   6.647   4.941  18.042  0.2862 -0.1580 -0.1399
 1206TIP3    H227814   6.758   4.840  18.029 -0.8341 -1.2887 -1.1005
 1207TIP3   OH227815   6.796   3.355  19.303 -0.0163 -0.4825  0.0867
 1207TIP3    H127816   6.871   3.351  19.362  1.1554 -1.6872 -1.4100
 1207TIP3    H227817   6.832   3.377  19.218 -1.4869 -0.1809 -0.4941
 1208TIP3   OH227818   2.944   4.327  18.566  0.4470  0.5481  0.3771
 1208TIP3    H127819   2.949   4.241  18.524  0.8190  0.0190  1.4658
 1208TIP3    H227820   2.999   4.319  18.644 -1.3250  1.0266  1.7539
 1209TIP3   OH227821   6.834   1.242  18.524  0.0169 -0.2217  0.1089
 1209TIP3    H127822   6.801   1.170  18.577  0.9554 -0.7575 -0.0112
 1209TIP3    H227823   6.929   1.237  18.533  0.0895  1.2548  0.4150
 1210TIP3   OH227824   5.141   0.519  18.070  0.2023 -0.2306 -0.0709
 1210TIP3    H127825   5.072   0.480  18.017  0.8965 -1.8559  0.1500
 1210TIP3    H227826   5.100   0.539  18.154 -0.4389  0.5950 -0.5665
 1211TIP3   OH227827   5.003   4.830  19.304 -0.2735 -0.0128 -0.3888
 1211TIP3    H127828   4.968   4.860  19.388  0.8025 -1.4774  0.6390
 1211TIP3    H227829   4.927   4.800  19.255 -1.0047  1.5172 -0.2675
 1212TIP3   OH227830   1.240   4.732  18.040  0.3506 -0.4036  0.1332
 1212TIP3    H127831   1.274   4.699  18.123  4.1886  1.9742 -0.2895
 1212TIP3    H227832   1.181   4.803  18.065  2.8268  1.4925  0.9966
 1213TIP3   OH227833   6.946   1.666  16.641 -0.0273 -0.1487 -0.7466
 1213TIP3    H127834   6.921   1.741  16.695  0.3978  0.9240 -1.9861
 1213TIP3    H227835   6.885   1.597  16.667  0.5207  0.1257  1.4843
 1214TIP3   OH227836   3.363   4.795  17.930  0.2990 -0.2636 -0.3295
 1214TIP3    H127837   3.305   4.840  17.869 -0.2136 -2.3511 -1.4925
 1214TIP3    H227838   3.449   4.798  17.887  0.4640  0.4071  0.0443
 1215TIP3   OH227839   3.577   7.054  18.695 -0.7204 -0.8300  0.4537
 1215TIP3    H127840   3.608   6.986  18.755 -1.7742  0.0170  2.0482
 1215TIP3    H227841   3.489   7.026  18.670 -1.1386 -0.1178  1.0734
 1216TIP3   OH227842   2.512   2.348  18.494  0.1470 -0.1822  0.6463
 1216TIP3    H127843   2.487   2.273  18.440 -2.2641  1.0280 -0.0447
 1216TIP3    H227844   2.546   2.309  18.575  1.0931 -2.0016 -0.5606
 1217TIP3   OH227845   3.213   6.147  17.192 -0.0759 -0.0770  0.1964
 1217TIP3    H127846   3.156   6.074  17.167 -0.2207  0.3949 -0.9075
 1217TIP3    H227847   3.174   6.182  17.272 -1.3266  0.2127 -0.5165
 1218TIP3   OH227848   1.459   0.923  18.116  0.8329  0.2262 -0.1564
 1218TIP3    H127849   1.456   0.833  18.150  0.1359  0.0276 -0.7286
 1218TIP3    H227850   1.435   0.977  18.192  1.1731 -0.0708  0.1694
 1219TIP3   OH227851   6.461   6.891  18.221 -0.3455  0.4028  0.0466
 1219TIP3    H127852   6.446   6.798  18.205 -0.8132  0.5288 -0.2784
 1219TIP3    H227853   6.534   6.894  18.282 -0.0574 -0.1633 -0.2697
 1220TIP3   OH227854   0.232   3.188  18.924  0.1858 -0.4325 -0.1715
 1220TIP3    H127855   0.162   3.246  18.896  0.4184 -0.3967 -0.6904
 1220TIP3    H227856   0.187   3.117  18.971 -0.2685 -0.7593 -1.0702
 1221TIP3   OH227857   6.633   3.648  18.992  0.1311  0.1329 -0.1676
 1221TIP3    H127858   6.605   3.714  19.056  1.9947  1.6169 -0.7714
 1221TIP3    H227859   6.708   3.606  19.034  1.5366  1.2964 -1.3733
 1222TIP3   OH227860   4.846   6.475  19.432  0.2109 -0.6963 -0.4159
 1222TIP3    H127861   4.907   6.401  19.439 -0.3053 -1.3944 -2.6304
 1222TIP3    H227862   4.803   6.462  19.348 -2.7490 -0.0082  0.8862
 1223TIP3   OH227863   1.060   5.536  18.406  0.4159 -0.2802 -0.0908
 1223TIP3    H127864   1.046   5.630  18.394 -3.8222 -0.7158 -0.1387
 1223TIP3    H227865   0.990   5.508  18.464  0.7359 -3.6315 -1.0752
 1224TIP3   OH227866   7.436   4.991  17.603 -0.9222  0.3422  0.0432
 1224TIP3    H127867   7.415   5.082  17.628 -0.4505 -0.1132  2.3439
 1224TIP3    H227868   7.379   4.938  17.657 -0.2751 -0.7512 -0.3229
 1225TIP3   OH227869   4.671   4.442  18.081 -0.1070 -0.0396 -0.2489
 1225TIP3    H127870   4.591   4.388  18.079  0.2981 -0.6189 -1.3966
 1225TIP3    H227871   4.707   4.426  18.169 -0.8411 -0.3795  0.0057
 1226TIP3   OH227872   2.453   6.109  17.707  0.1104 -0.4874 -0.3986
 1226TIP3    H127873   2.372   6.133  17.751  0.5920  1.1659 -0.3545
 1226TIP3    H227874   2.425   6.072  17.623 -0.6827  1.6133 -1.1157
 1227TIP3   OH227875   3.101   1.118  17.235 -0.5396  0.1076  0.6047
 1227TIP3    H127876   3.182   1.163  17.260  0.0946 -0.4607 -0.3361
 1227TIP3    H227877   3.031   1.175  17.266  0.2292  0.9421  0.8539
 1228TIP3   OH227878   5.418   0.498  18.969 -0.4009 -0.6238 -0.1133
 1228TIP3    H127879   5.406   0.517  19.062 -0.3841  1.7874 -0.5475
 1228TIP3    H227880   5.344   0.542  18.926  0.1533 -0.8427 -1.3288
 1229TIP3   OH227881   0.745   3.486  17.155  0.7762  0.1056  0.2029
 1229TIP3    H127882   0.771   3.483  17.063  0.6601  0.7965  0.1435
 1229TIP3    H227883   0.756   3.396  17.185  1.5690  0.0284 -0.2780
 1230TIP3   OH227884   5.732   0.716  18.173  0.1946 -0.0702 -0.4985
 1230TIP3    H127885   5.819   0.744  18.200  1.2844 -2.8023 -0.8766
 1230TIP3    H227886   5.725   0.743  18.082  0.5298  0.3850 -0.3947
 1231TIP3   OH227887   5.912   0.344  17.157  0.4118 -0.7072 -0.1853
 1231TIP3    H127888   6.005   0.367  17.164  0.4429  0.0677 -2.4297
 1231TIP3    H227889   5.906   0.293  17.076 -1.1996 -0.2590 -0.3819
 1232TIP3   OH227890   5.238   2.280  19.427  0.7245 -0.5424  0.3051
 1232TIP3    H127891   5.185   2.212  19.468  1.7725 -1.0421  0.8774
 1232TIP3    H227892   5.284   2.236  19.356  2.4486 -0.7930  1.5304
 1233TIP3   OH227893   4.401   6.947  18.937 -0.6469 -0.6905  0.1181
 1233TIP3    H127894   4.358   7.029  18.964 -0.6879 -0.6953  0.0679
 1233TIP3    H227895   4.389   6.889  19.012  0.2774 -0.3208  0.5720
 1234TIP3   OH227896   5.807   5.850  17.968 -0.2847 -0.6809  0.1751
 1234TIP3    H127897   5.818   5.776  17.909 -2.1115  0.0818 -1.2355
 1234TIP3    H227898   5.723   5.833  18.011 -0.9147  0.7285 -0.4564
 1235TIP3   OH227899   2.250   1.792  17.445  0.9949 -0.3903 -0.0581
 1235TIP3    H127900   2.209   1.751  17.369 -0.6912  1.3905 -0.1753
 1235TIP3    H227901   2.310   1.857  17.408  0.7387 -0.0479  0.1220
 1236TIP3   OH227902   2.306   6.076  19.105 -0.6365  0.0268 -0.1370
 1236TIP3    H127903   2.276   5.985  19.095  0.9749 -0.8892  2.3950
 1236TIP3    H227904   2.393   6.076  19.065 -1.0531  0.7992 -1.0913
 1237TIP3   OH227905   0.439   2.916  19.347  0.6852 -0.3030  0.2002
 1237TIP3    H127906   0.532   2.901  19.331  0.6574 -0.8795  0.5374
 1237TIP3    H227907   0.395   2.888  19.267  0.7951 -0.0950  0.0684
 1238TIP3   OH227908   1.795   0.948  18.667 -0.9953  0.4964 -0.0684
 1238TIP3    H127909   1.786   1.024  18.609  2.1431  1.0601  0.0036
 1238TIP3    H227910   1.819   0.985  18.752  0.2481 -0.5280  0.0503
 1239TIP3   OH227911   3.182   0.342  19.301 -0.0432 -0.4887  0.2460
 1239TIP3    H127912   3.185   0.434  19.327  0.1234 -0.2982 -0.4512
 1239TIP3    H227913   3.097   0.332  19.257 -0.2113 -0.7520  0.6221
 1240TIP3   OH227914   3.542   5.997  19.173  0.5468  0.6507  0.5050
 1240TIP3    H127915   3.565   5.922  19.229  0.6063  1.0302  0.9944
 1240TIP3    H227916   3.447   5.999  19.173  0.4782 -0.6593 -1.1742
 1241TIP3   OH227917   3.671   0.053  17.140 -0.3020  0.0713  0.4417
 1241TIP3    H127918   3.631   0.139  17.132  1.2465  0.8149  0.4792
 1241TIP3    H227919   3.744   0.054  17.079  0.0546 -1.0280  0.8257
 1242TIP3   OH227920   5.328   4.084  17.084 -0.4796  0.0906 -0.3225
 1242TIP3    H127921   5.334   3.990  17.071 -3.5255 -0.3892  0.9464
 1242TIP3    H227922   5.324   4.096  17.179 -2.6325  1.2141 -0.4898
 1243TIP3   OH227923   6.308   7.132  16.256 -0.7381 -0.1982  0.1303
 1243TIP3    H127924   6.227   7.109  16.211 -0.8673 -1.8392  1.0902
 1243TIP3    H227925   6.375   7.080  16.212 -0.7285 -1.1421  1.1998
 1244TIP3   OH227926   3.987   4.012  17.939 -0.3809 -0.6772  0.2990
 1244TIP3    H127927   3.945   3.943  17.990 -2.3149  0.0871 -0.1569
 1244TIP3    H227928   3.936   4.016  17.858  0.3299  0.5981 -0.1140
 1245TIP3   OH227929   3.606   1.993  18.947  0.4811 -0.0141  0.0591
 1245TIP3    H127930   3.665   2.065  18.925  1.2260 -0.3348  0.9602
 1245TIP3    H227931   3.555   2.026  19.021 -1.2934  0.6824 -1.4044
 1246TIP3   OH227932   0.351   6.151  19.976 -0.0203 -0.6268  0.0146
 1246TIP3    H127933   0.290   6.097  20.027 -1.0390  2.6030  2.5445
 1246TIP3    H227934   0.297   6.221  19.941  1.7066  0.4005 -0.6998
 1247TIP3   OH227935   4.585   0.542  17.103  0.2844  0.3343  0.2531
 1247TIP3    H127936   4.619   0.561  17.016  2.4212 -0.3851  0.8640
 1247TIP3    H227937   4.602   0.622  17.153 -2.0052  1.1911 -0.2036
 1248TIP3   OH227938   3.954   5.853  17.739  0.1987 -0.0628 -0.3499
 1248TIP3    H127939   3.875   5.813  17.777  0.6320 -1.3364 -0.7184
 1248TIP3    H227940   3.941   5.846  17.644 -0.3196  1.9566 -0.4594
 1249TIP3   OH227941   1.790   5.701  18.218  0.1531 -0.0497 -0.5497
 1249TIP3    H127942   1.779   5.614  18.180 -1.7265 -0.1413  0.0695
 1249TIP3    H227943   1.775   5.687  18.312 -2.9156  1.2734 -0.7160
 1250TIP3   OH227944   4.763   1.325  18.231  0.1729  0.1193  0.3683
 1250TIP3    H127945   4.679   1.307  18.187 -0.0909 -0.9943  1.2735
 1250TIP3    H227946   4.768   1.420  18.234 -1.2220  0.2163  0.5671
 1251TIP3   OH227947   0.802   3.523  19.388 -0.0710 -0.3509  0.5493
 1251TIP3    H127948   0.761   3.531  19.302 -0.4197 -1.4304  0.6048
 1251TIP3    H227949   0.845   3.608  19.402  0.7284 -0.4491 -1.0601
 1252TIP3   OH227950   6.616   1.839  19.303  0.1902  0.3184 -0.1038
 1252TIP3    H127951   6.610   1.935  19.302  1.7761  0.4475 -1.9792
 1252TIP3    H227952   6.647   1.816  19.216 -0.7792 -1.9867  0.0875
 1253TIP3   OH227953   0.737   6.480  18.870 -0.0085  0.1620  0.2505
 1253TIP3    H127954   0.814   6.437  18.906 -0.9151 -0.4876  1.4786
 1253TIP3    H227955   0.669   6.413  18.871 -0.3144  0.3676 -1.9468
 1254TIP3   OH227956   6.764   4.300  16.842 -0.4123 -0.0892  0.0629
 1254TIP3    H127957   6.829   4.323  16.775 -1.2040  0.8406 -0.4122
 1254TIP3    H227958   6.767   4.372  16.905  0.2678 -0.9179  1.0098
 1255TIP3   OH227959   0.624   2.799  18.960 -0.2146 -0.2220 -0.1092
 1255TIP3    H127960   0.581   2.884  18.970 -0.2523 -0.1382 -0.8856
 1255TIP3    H227961   0.716   2.817  18.976 -0.5290 -0.5821  2.5191
 1256TIP3   OH227962   3.923   4.102  18.865  0.2593 -0.3628 -0.0660
 1256TIP3    H127963   3.940   4.075  18.774 -0.9588 -0.0183 -0.4160
 1256TIP3    H227964   3.975   4.041  18.918  1.6854 -0.0152 -1.0053
 1257TIP3   OH227965   0.057   6.791  18.969 -0.0206 -0.2744  0.1076
 1257TIP3    H127966   0.107   6.834  18.899 -0.3975  0.6612  0.4052
 1257TIP3    H227967   0.110   6.715  18.992  1.3950  0.8099  0.5721
 1258TIP3   OH227968   6.918   5.537  19.124 -0.2123  0.3345 -0.1217
 1258TIP3    H127969   6.850   5.586  19.078 -0.3433  0.1510 -0.1262
 1258TIP3    H227970   6.924   5.454  19.076  0.2503  0.4837 -0.3280
 1259TIP3   OH227971   4.940   5.933  16.672  0.3353  0.3158  0.3558
 1259TIP3    H127972   4.967   5.951  16.582  3.2743 -1.5075  0.7524
 1259TIP3    H227973   4.846   5.955  16.673  0.2376  0.6667 -3.0261
 1260TIP3   OH227974   7.218   0.939  18.479  0.6486 -0.4483 -0.1882
 1260TIP3    H127975   7.199   0.859  18.431  0.6651 -0.4330 -0.2207
 1260TIP3    H227976   7.233   1.005  18.411  0.8216 -0.4608 -0.1632
 1261TIP3   OH227977   5.466   6.771  18.997  0.0605  0.5626  0.1293
 1261TIP3    H127978   5.400   6.719  18.951  1.2290 -1.6585  0.8350
 1261TIP3    H227979   5.416   6.839  19.043 -1.5938 -0.2721 -0.3724
 1262TIP3   OH227980   6.790   4.146  18.107  0.0081 -0.5033  0.1338
 1262TIP3    H127981   6.744   4.148  18.191  0.5924 -1.0998  0.4773
 1262TIP3    H227982   6.863   4.086  18.121 -0.0594 -0.8500 -0.8906
 1263TIP3   OH227983   0.033   6.752  18.583 -0.2578 -0.5521  0.0355
 1263TIP3    H127984   0.104   6.798  18.629  0.4220 -1.1695 -0.3820
 1263TIP3    H227985   0.076   6.677  18.541 -0.9044 -0.1570 -1.3879
 1264TIP3   OH227986   5.349   2.027  18.351 -0.5486  0.0031  0.8278
 1264TIP3    H127987   5.282   1.981  18.300 -0.9749  1.5736 -0.0944
 1264TIP3    H227988   5.419   1.963  18.361 -0.8252 -0.6372 -1.0047
 1265TIP3   OH227989   1.752   4.349  17.712  0.2457 -0.5096  0.0241
 1265TIP3    H127990   1.728   4.292  17.785 -2.2300 -0.2044 -0.4456
 1265TIP3    H227991   1.679   4.339  17.650  1.4830  0.4754 -1.6746
 1266TIP3   OH227992   6.483   0.546  19.430  0.1005 -0.1423 -0.2726
 1266TIP3    H127993   6.546   0.579  19.493  0.0287 -0.0151 -0.2660
 1266TIP3    H227994   6.429   0.484  19.479 -1.3545  1.5386  0.3839
 1267TIP3   OH227995   6.988   2.559  18.356 -0.2347  1.0759 -0.7235
 1267TIP3    H127996   6.955   2.475  18.386 -0.7836  1.0821 -1.2845
 1267TIP3    H227997   7.030   2.598  18.434  3.4359 -1.2853 -1.2965
 1268TIP3   OH227998   0.665   2.507  18.349 -0.0019 -0.6630 -0.1539
 1268TIP3    H127999   0.621   2.427  18.323  0.6416 -1.3153  0.7115
 1268TIP3    H228000   0.614   2.540  18.423  0.1849 -0.7070 -0.0027
 1269TIP3   OH228001   1.845   7.385  19.077 -0.0085 -0.1189  0.3140
 1269TIP3    H128002   1.922   7.328  19.079 -0.7045 -1.0854  0.4010
 1269TIP3    H228003   1.822   7.397  19.169  0.1405  0.3177  0.2978
 1270TIP3   OH228004   5.599   2.760  18.816  0.3029 -0.4282 -0.5470
 1270TIP3    H128005   5.575   2.831  18.756 -0.8808  0.0115  0.3960
 1270TIP3    H228006   5.619   2.804  18.899 -0.4345 -1.1705  0.0469
 1271TIP3   OH228007   7.387   5.343  18.395 -0.0431 -0.5482 -0.4148
 1271TIP3    H128008   7.468   5.379  18.361  0.4639 -0.5804  0.7197
 1271TIP3    H228009   7.361   5.278  18.330  0.3465  0.0917 -1.2356
 1272TIP3   OH228010   1.902   0.104  18.121 -0.4483 -0.1125 -0.1268
 1272TIP3    H128011   1.901   0.090  18.216  1.2244  1.8617  0.2423
 1272TIP3    H228012   1.987   0.070  18.093  0.3824  2.0412 -0.3857
 1273TIP3   OH228013   3.460   2.794  17.326  0.0501  0.3172  0.3518
 1273TIP3    H128014   3.393   2.754  17.271  0.7259  0.3226 -0.5002
 1273TIP3    H228015   3.477   2.879  17.285  1.0219  0.0506  0.1893
 1274TIP3   OH228016   7.299   1.594  18.912  0.3411 -0.1315  0.2969
 1274TIP3    H128017   7.315   1.576  18.819  0.8271 -2.4899  0.7850
 1274TIP3    H228018   7.345   1.676  18.929  0.3236  0.2886 -1.5031
 1275TIP3   OH228019   7.444   4.950  16.812 -0.1021 -0.0481  0.3018
 1275TIP3    H128020   7.497   4.872  16.831 -0.5267 -0.2540  0.6761
 1275TIP3    H228021   7.418   4.939  16.720  0.0969 -0.1924  0.2617
 1276TIP3   OH228022   1.220   2.479  18.881 -0.5479 -0.1515 -0.6053
 1276TIP3    H128023   1.295   2.528  18.847 -0.9971  0.2102 -1.0914
 1276TIP3    H228024   1.221   2.495  18.975 -0.7396  0.8724 -0.7671
 1277TIP3   OH228025   5.690   5.078  17.086  0.0347 -0.3400 -0.2949
 1277TIP3    H128026   5.746   5.152  17.064 -0.8772  0.3254 -0.4063
 1277TIP3    H228027   5.604   5.101  17.051 -0.2408 -1.5001 -0.4361
 1278TIP3   OH228028   4.821   0.784  18.883  0.1881 -0.6212 -1.0428
 1278TIP3    H128029   4.829   0.696  18.846  0.2818 -1.6312  1.2355
 1278TIP3    H228030   4.875   0.782  18.962 -1.3392  0.8737  0.1054
 1279TIP3   OH228031   1.943   3.083  16.927 -0.0708  0.2464 -0.0765
 1279TIP3    H128032   2.024   3.034  16.942 -0.8191 -0.1906  3.0618
 1279TIP3    H228033   1.968   3.151  16.864  2.5706 -0.2675  0.2983
 1280TIP3   OH228034   5.751   0.002  18.544 -0.1682  0.4357 -0.1726
 1280TIP3    H128035   5.748   0.097  18.552 -0.0609  0.4709 -0.5456
 1280TIP3    H228036   5.739  -0.015  18.450  0.3623  0.1036 -0.1830
 1281TIP3   OH228037   6.113   5.816  17.377 -0.1154  0.3317 -0.1754
 1281TIP3    H128038   6.105   5.906  17.345 -0.3441  0.5719  0.5442
 1281TIP3    H228039   6.133   5.764  17.299 -0.2038  0.9744 -0.6278
 1282TIP3   OH228040   0.671   1.545  18.711  0.3434  1.0468  0.1996
 1282TIP3    H128041   0.732   1.506  18.774 -2.0728 -0.2646  1.8750
 1282TIP3    H228042   0.603   1.586  18.765 -1.9667 -0.3562 -1.4725
 1283TIP3   OH228043   0.858   5.986  18.521  0.1522 -0.3040  0.2703
 1283TIP3    H128044   0.775   5.980  18.474  0.0101  0.3725  0.4308
 1283TIP3    H228045   0.887   6.076  18.509  1.4184 -0.8007 -0.7108
 1284TIP3   OH228046   7.196   4.580  18.015  0.5156  0.0758  0.0852
 1284TIP3    H128047   7.247   4.627  18.081  0.2391 -0.1767  0.4787
 1284TIP3    H228048   7.117   4.552  18.061 -0.2031  0.8680 -0.6405
 1285TIP3   OH228049   4.988   7.440  18.035  0.1745 -0.3450  0.0045
 1285TIP3    H128050   4.895   7.427  18.056  0.0381 -1.4232 -1.1239
 1285TIP3    H228051   5.030   7.357  18.056  0.4030 -0.7299 -1.7742
 1286TIP3   OH228052   2.318   3.664  17.864 -0.0095  0.9865  0.4001
 1286TIP3    H128053   2.412   3.678  17.878  0.4296 -1.3815  0.3410
 1286TIP3    H228054   2.301   3.702  17.778  1.8561 -1.8381 -1.3941
 1287TIP3   OH228055   4.797   3.528  19.393 -0.1437  0.6213  0.7097
 1287TIP3    H128056   4.713   3.541  19.349 -1.3660 -0.1036  2.6709
 1287TIP3    H228057   4.862   3.533  19.323 -1.9828 -1.0656 -1.2911
 1288TIP3   OH228058   0.450   5.206  17.477 -0.0384 -0.6444  0.2895
 1288TIP3    H128059   0.357   5.196  17.456  0.5992 -0.7567 -3.1369
 1288TIP3    H228060   0.484   5.260  17.406  2.6120 -1.0224  1.1838
 1289TIP3   OH228061   6.719   6.355  17.032 -0.0603 -0.0886  0.0280
 1289TIP3    H128062   6.645   6.409  17.006  0.1068  0.7689  1.2586
 1289TIP3    H228063   6.774   6.413  17.085 -0.0232 -1.5095  1.6465
 1290TIP3   OH228064   1.060   1.775  18.450 -0.2576 -0.3015 -0.3745
 1290TIP3    H128065   1.091   1.838  18.515 -0.7502  1.1472 -1.4824
 1290TIP3    H228066   0.973   1.750  18.480 -0.9990  1.3178 -1.0752
 1291TIP3   OH228067   5.173   2.259  19.019  0.3241 -0.2234 -0.0227
 1291TIP3    H128068   5.267   2.276  19.021  0.7090 -1.8927 -1.5303
 1291TIP3    H228069   5.151   2.256  18.926 -1.4217  0.9678  0.3080
 1292TIP3   OH228070   1.367   4.714  17.808  0.1000  0.2814  0.3160
 1292TIP3    H128071   1.339   4.792  17.760 -1.7443 -0.6493 -0.2178
 1292TIP3    H228072   1.355   4.737  17.900 -2.6677 -0.0498  0.1317
 1293TIP3   OH228073   0.917   6.369  17.927  0.6904  0.6029 -0.0176
 1293TIP3    H128074   0.863   6.369  17.848 -0.1843  0.5661  0.5624
 1293TIP3    H228075   0.855   6.384  17.998  1.7498  2.8345  0.5006
 1294TIP3   OH228076   2.731   1.370  18.039 -0.5258 -0.2015  0.0500
 1294TIP3    H128077   2.762   1.460  18.051 -0.8650 -0.0436 -0.2646
 1294TIP3    H228078   2.784   1.319  18.101  0.1381  0.1154 -0.2411
 1295TIP3   OH228079   7.410   0.042  18.692  0.3889  0.1867  0.4278
 1295TIP3    H128080   7.318   0.067  18.691  0.0115 -1.0186  2.0971
 1295TIP3    H228081   7.455   0.119  18.656 -1.2907  0.4515 -1.3176
 1296TIP3   OH228082   1.585   7.435  17.895  0.6191 -0.2039  0.1160
 1296TIP3    H128083   1.679   7.425  17.907  0.5837 -2.3711 -0.8717
 1296TIP3    H228084   1.557   7.351  17.857 -1.0699  1.7250 -3.4020
 1297TIP3   OH228085   4.920   4.712  18.493 -0.5366  0.1608  0.2043
 1297TIP3    H128086   4.949   4.761  18.569 -0.2151 -0.4885  0.5081
 1297TIP3    H228087   4.924   4.620  18.520  1.4712 -0.2326 -1.2041
 1298TIP3   OH228088   5.740   6.562  16.899 -0.3261  0.5408 -0.3255
 1298TIP3    H128089   5.674   6.573  16.830 -1.1863 -0.2137  0.3471
 1298TIP3    H228090   5.735   6.470  16.922  0.9983  0.4721 -0.2634
 1299TIP3   OH228091   5.827   6.097  18.012 -0.3839  0.2045 -0.1162
 1299TIP3    H128092   5.818   6.002  18.002  0.2661  0.1388 -0.1391
 1299TIP3    H228093   5.749   6.124  18.060  0.4195 -0.6313  1.7459
 1300TIP3   OH228094   2.415   0.289  17.572  0.4961 -0.1158 -0.2271
 1300TIP3    H128095   2.439   0.258  17.659 -0.1223 -0.3859 -0.1529
 1300TIP3    H228096   2.499   0.305  17.528  0.8133  0.6383  0.6274
 1301TIP3   OH228097   1.390   0.656  18.155  0.2499 -0.2469  0.1519
 1301TIP3    H128098   1.322   0.591  18.138 -0.5064  0.0314  1.8459
 1301TIP3    H228099   1.470   0.605  18.169  0.6254 -0.5416 -2.5682
 1302TIP3   OH228100   7.508   3.023  16.807  0.0054 -0.1566 -0.2318
 1302TIP3    H128101   7.496   3.118  16.812  1.3715 -0.0000  0.3489
 1302TIP3    H228102   7.418   2.988  16.806 -0.6875  0.9386  3.7850
 1303TIP3   OH228103   1.272   7.594  18.697 -0.0308 -0.2608  0.2960
 1303TIP3    H128104   1.261   7.520  18.638 -0.1241 -1.1364  1.3655
 1303TIP3    H228105   1.236   7.564  18.781 -0.7683  1.2606  0.5818
 1304TIP3   OH228106   5.297   3.490  17.118 -0.0191  0.0215  0.3505
 1304TIP3    H128107   5.392   3.504  17.121  0.0705 -0.4893  0.1573
 1304TIP3    H228108   5.277   3.485  17.024  0.3389 -3.3383  0.3268
 1305TIP3   OH228109   6.672   4.924  18.331  0.0512  0.6976  0.6097
 1305TIP3    H128110   6.685   5.005  18.280  0.4149  1.2870  1.6101
 1305TIP3    H228111   6.580   4.928  18.358  0.1328  0.9166  0.8673
 1306TIP3   OH228112   6.232   0.778  19.128  0.3725 -0.0096  0.2699
 1306TIP3    H128113   6.266   0.847  19.184  1.5343 -0.9739  0.8002
 1306TIP3    H228114   6.302   0.761  19.065  0.0407 -0.5761  0.0428
 1307TIP3   OH228115   0.359   0.352  19.226  0.1241 -0.2778  0.1282
 1307TIP3    H128116   0.280   0.394  19.192  0.7103 -0.2679 -1.3041
 1307TIP3    H228117   0.418   0.348  19.150  0.2660 -3.2534  0.2956
 1308TIP3   OH228118   1.296   4.639  18.795  0.2677  0.0969  0.0729
 1308TIP3    H128119   1.236   4.576  18.835  1.8204 -0.3750  1.7882
 1308TIP3    H228120   1.344   4.588  18.730 -1.4113  0.5777 -1.6250
 1309TIP3   OH228121   0.418   1.893  17.198 -0.0356  0.3795 -0.4112
 1309TIP3    H128122   0.375   1.868  17.116 -0.6181 -1.2571  0.3504
 1309TIP3    H228123   0.484   1.826  17.212 -0.2909  0.3480  0.7171
 1310TIP3   OH228124   1.966   2.669  17.946 -0.0195 -0.1988  0.1581
 1310TIP3    H128125   2.062   2.676  17.943  0.0611 -1.2565 -0.8120
 1310TIP3    H228126   1.935   2.743  17.894  0.3821 -1.0061 -1.3076
 1311TIP3   OH228127   5.693   2.481  18.883  0.2388  0.5030  0.3019
 1311TIP3    H128128   5.614   2.443  18.844 -0.7111 -0.2488  2.7954
 1311TIP3    H228129   5.688   2.574  18.861 -1.4827  0.5000  0.5698
 1312TIP3   OH228130   5.539   3.932  18.880  0.1153 -0.1149 -0.0517
 1312TIP3    H128131   5.614   3.918  18.823  0.1064 -0.7285  0.0804
 1312TIP3    H228132   5.470   3.964  18.821  0.3400  0.0005 -0.2521
 1313TIP3   OH228133   1.373   7.228  17.019  0.5193  0.3957 -0.1956
 1313TIP3    H128134   1.284   7.254  17.043 -0.1414 -2.1811  0.4087
 1313TIP3    H228135   1.421   7.311  17.013 -1.9501  1.8738 -0.8052
 1314TIP3   OH228136   6.746   2.659  18.314  0.4935 -0.3073 -0.0801
 1314TIP3    H128137   6.744   2.675  18.220  2.6813  1.2823  0.0684
 1314TIP3    H228138   6.839   2.656  18.336  0.0925  1.5992  2.3377
 1315TIP3   OH228139   0.996   2.923  19.451  0.6082 -0.5146  0.2362
 1315TIP3    H128140   0.905   2.941  19.473 -0.1275 -2.2213 -1.1574
 1315TIP3    H228141   1.022   2.852  19.510  1.1452  0.1438  0.8108
 1316TIP3   OH228142   2.061   2.214  18.505  0.2618 -0.3593 -0.0165
 1316TIP3    H128143   2.101   2.205  18.592 -0.2336  0.1021  0.2608
 1316TIP3    H228144   1.983   2.267  18.520  0.8248  0.7700 -0.9316
 1317TIP3   OH228145   3.829   1.071  18.716 -0.0627  0.5521  0.0751
 1317TIP3    H128146   3.897   1.027  18.666 -0.9642  1.1816 -1.7866
 1317TIP3    H228147   3.796   1.139  18.658 -2.2016  0.3529  0.9480
 1318TIP3   OH228148   1.415   4.293  18.448  0.2125  0.4072 -0.0153
 1318TIP3    H128149   1.366   4.311  18.368  0.2049  1.6889  0.2487
 1318TIP3    H228150   1.482   4.230  18.421  0.3312  0.9555 -1.0814
 1319TIP3   OH228151   2.779   7.636  19.596 -0.2377 -0.4916 -0.1318
 1319TIP3    H128152   2.692   7.658  19.630 -0.4529  1.7728 -1.9443
 1319TIP3    H228153   2.765   7.557  19.544 -1.3263  0.1123 -0.7908
 1320TIP3   OH228154   1.502   7.449  18.325 -0.5952  0.2281 -0.4486
 1320TIP3    H128155   1.509   7.356  18.306  0.8382  0.5954 -1.9460
 1320TIP3    H228156   1.458   7.487  18.249 -2.1188  0.6569  0.6072
 1321TIP3   OH228157   2.516   0.819  17.216  0.7568 -0.8100 -0.5128
 1321TIP3    H128158   2.548   0.748  17.161 -0.0591 -1.4719 -0.1515
 1321TIP3    H228159   2.494   0.777  17.299 -0.2069 -0.2345 -0.4621
 1322TIP3   OH228160   0.543   3.224  16.892  0.2954 -0.2789  0.6145
 1322TIP3    H128161   0.524   3.240  16.985 -0.8479  0.0170  0.3509
 1322TIP3    H228162   0.554   3.311  16.855  1.7092 -0.4240  0.6361
 1323TIP3   OH228163   2.038   0.837  18.691  0.3098  0.2012 -0.4732
 1323TIP3    H128164   1.944   0.843  18.673  0.1962 -0.8927 -0.2956
 1323TIP3    H228165   2.044   0.831  18.786  0.5819  0.5387 -0.4673
 1324TIP3   OH228166   1.854   7.423  17.925 -0.1530 -0.0361 -0.7962
 1324TIP3    H128167   1.926   7.435  17.987  0.3757  1.5897 -1.6752
 1324TIP3    H228168   1.896   7.397  17.843 -0.8698 -2.4928 -0.4751
 1325TIP3   OH228169   4.733   6.753  19.601 -0.4264  0.3562 -0.5196
 1325TIP3    H128170   4.827   6.749  19.617 -0.2509  0.0201 -1.5527
 1325TIP3    H228171   4.695   6.690  19.663  0.1711 -0.5880 -1.0843
 1326TIP3   OH228172   0.185   0.242  19.384 -0.2693 -0.5988  0.3629
 1326TIP3    H128173   0.124   0.184  19.338 -0.6981 -0.3812  0.6453
 1326TIP3    H228174   0.255   0.257  19.322 -1.9967  1.6549 -1.2341
 1327TIP3   OH228175   2.963   3.042  18.824 -0.3503  0.2155  0.1914
 1327TIP3    H128176   3.007   3.045  18.909 -0.4962  1.1302  0.2456
 1327TIP3    H228177   2.882   2.994  18.842 -0.6278  0.8552  0.6910
 1328TIP3   OH228178   7.161   2.626  18.565  0.4220 -0.6998  0.5059
 1328TIP3    H128179   7.248   2.647  18.531  0.0225 -0.1979 -0.2265
 1328TIP3    H228180   7.173   2.544  18.613  1.6182  0.1698  1.7727
 1329TIP3   OH228181   4.018   0.024  19.429 -0.5185  0.3108 -0.6049
 1329TIP3    H128182   4.047  -0.061  19.463  0.2163 -0.1721 -2.3136
 1329TIP3    H228183   3.945   0.003  19.371 -1.4087  1.0477  0.2315
 1330TIP3   OH228184   6.536   4.036  17.984  0.0749 -0.1411  0.3669
 1330TIP3    H128185   6.606   4.045  18.049  1.2469 -0.4259 -0.8169
 1330TIP3    H228186   6.482   4.114  17.997  1.7863  1.1736 -0.0466
 1331TIP3   OH228187   1.103   3.006  17.459  1.0283 -0.0542 -0.1734
 1331TIP3    H128188   1.140   3.093  17.473  0.9437  0.1216 -0.9919
 1331TIP3    H228189   1.160   2.948  17.511  2.1503  0.2736 -0.9903
 1332TIP3   OH228190   7.385   0.619  18.990  0.1098 -0.9114  0.2389
 1332TIP3    H128191   7.391   0.614  18.895  0.0430  1.2511  0.0744
 1332TIP3    H228192   7.333   0.543  19.015 -1.1578 -0.7029 -1.5923
 1333TIP3   OH228193   0.147   5.962  17.490  0.1892 -0.3060  0.0108
 1333TIP3    H128194   0.063   5.950  17.535  0.0245 -1.1810 -0.5002
 1333TIP3    H228195   0.200   5.888  17.520  0.2391 -0.6340 -0.8595
 1334TIP3   OH228196   1.860   5.523  17.764 -0.1026 -0.0249  0.6125
 1334TIP3    H128197   1.794   5.479  17.709  1.9643 -0.6029 -1.6204
 1334TIP3    H228198   1.892   5.594  17.709  1.9670 -0.5365  1.0874
 1335TIP3   OH228199   2.663   2.210  17.555 -0.6425 -0.4557  0.2428
 1335TIP3    H128200   2.664   2.158  17.635  2.0928 -1.8748 -0.5887
 1335TIP3    H228201   2.690   2.149  17.486 -1.9993  0.9426 -1.6651
 1336TIP3   OH228202   5.709   1.607  17.714  0.4246  0.2943 -0.0897
 1336TIP3    H128203   5.657   1.604  17.794  1.7379  2.0004  0.9008
 1336TIP3    H228204   5.646   1.595  17.643 -0.9857  0.2623  1.1310
 1337TIP3   OH228205   4.935   6.137  17.129  0.0265 -0.4081 -0.2539
 1337TIP3    H128206   4.998   6.067  17.143  0.9232  0.4432  0.0595
 1337TIP3    H228207   4.888   6.112  17.049  1.8108 -0.3243 -1.3651
 1338TIP3   OH228208   4.472   5.315  17.937  0.0636 -0.1497  0.6407
 1338TIP3    H128209   4.399   5.288  17.880  1.6919  0.1822 -1.7544
 1338TIP3    H228210   4.463   5.409  17.946  0.5506 -0.0013 -0.2686
 1339TIP3   OH228211   0.277   1.170  19.198  0.0538  0.0535 -0.4018
 1339TIP3    H128212   0.233   1.095  19.239 -1.5344 -0.0953 -2.2140
 1339TIP3    H228213   0.224   1.245  19.224  1.5809  0.5877  1.3186
 1340TIP3   OH228214   3.053   6.170  19.533 -0.1857  0.1201 -0.3122
 1340TIP3    H128215   3.071   6.252  19.579 -0.0709  0.4696 -0.9734
 1340TIP3    H228216   3.124   6.161  19.470  0.2373 -0.9011  0.2972
 1341TIP3   OH228217   3.037   3.025  18.295 -0.0358 -0.0599 -0.2762
 1341TIP3    H128218   2.998   3.038  18.381 -1.9429 -0.1468 -1.0702
 1341TIP3    H228219   3.045   2.930  18.286 -0.4774 -0.0861 -0.4400
 1342TIP3   OH228220   7.441   2.796  18.863  0.3709  0.8672 -0.1136
 1342TIP3    H128221   7.513   2.804  18.925 -0.8487 -1.7123  1.8201
 1342TIP3    H228222   7.383   2.870  18.884  0.7403  0.9201  0.7459
 1343TIP3   OH228223   0.321   6.948  19.379  0.0737 -0.4399  0.0818
 1343TIP3    H128224   0.233   6.951  19.416  0.5245 -1.0623  1.2271
 1343TIP3    H228225   0.371   6.892  19.438  1.3570  0.2320 -0.3233
 1344TIP3   OH228226   6.818   7.061  19.387 -0.7741 -0.4286  0.6544
 1344TIP3    H128227   6.899   7.103  19.357 -1.4580  0.3901 -0.1165
 1344TIP3    H228228   6.841   6.969  19.398  0.1363 -0.2974 -0.0417
 1345TIP3   OH228229   6.576   2.400  19.290  0.3594  0.2702 -0.1816
 1345TIP3    H128230   6.518   2.433  19.220 -0.6953  0.4678  0.7627
 1345TIP3    H228231   6.660   2.441  19.272 -0.1238  1.0106 -0.8360
 1346TIP3   OH228232   4.432   1.204  17.151  0.2866 -0.3317 -0.4626
 1346TIP3    H128233   4.397   1.116  17.148 -1.3635  0.2703  0.2010
 1346TIP3    H228234   4.372   1.256  17.098 -0.9051  1.0474  2.0725
 1347TIP3   OH228235   3.192   5.883  17.452 -0.1695 -0.5284  0.2071
 1347TIP3    H128236   3.111   5.841  17.424 -0.0100 -0.9786  0.4053
 1347TIP3    H228237   3.248   5.880  17.375  0.0185 -1.1398  0.3545
 1348TIP3   OH228238   4.588   0.487  16.543 -0.0492 -0.3764  0.3062
 1348TIP3    H128239   4.543   0.467  16.625 -0.3695  0.6522  0.3965
 1348TIP3    H228240   4.584   0.405  16.492  0.6365 -1.1874  1.5260
 1349TIP3   OH228241   2.696   2.583  18.684  0.3346 -0.4871 -0.2133
 1349TIP3    H128242   2.607   2.615  18.670  1.3515  1.4920 -3.0593
 1349TIP3    H228243   2.684   2.495  18.720 -2.7275 -0.0573  0.1035
 1350TIP3   OH228244   5.599   6.692  17.593  0.5648  0.3907 -0.1313
 1350TIP3    H128245   5.585   6.597  17.601  1.1251  0.1896 -1.2886
 1350TIP3    H228246   5.692   6.704  17.609  0.2331  0.9620  1.5309
 1351TIP3   OH228247   4.679   6.327  16.655  0.0757  0.1372  0.7147
 1351TIP3    H128248   4.706   6.403  16.603  0.6618 -0.0431  0.7489
 1351TIP3    H228249   4.717   6.252  16.610 -0.1036 -0.0918  0.9460
 1352TIP3   OH228250   2.194   6.215  18.201 -0.1110  0.5229 -0.3366
 1352TIP3    H128251   2.174   6.287  18.141  0.8108  0.4810 -0.7143
 1352TIP3    H228252   2.248   6.255  18.270 -1.6052  0.6873  0.7918
 1353TIP3   OH228253   3.520   7.325  17.854  0.1668  0.1833 -0.7713
 1353TIP3    H128254   3.591   7.389  17.850  0.9801 -0.7404 -1.9197
 1353TIP3    H228255   3.444   7.371  17.816 -0.7439  2.1318  2.9608
 1354TIP3   OH228256   4.279   1.793  17.261  0.2032  0.4491 -0.2491
 1354TIP3    H128257   4.288   1.739  17.183  2.8283 -1.4775  1.2348
 1354TIP3    H228258   4.366   1.831  17.274 -0.5335  1.8259  1.0074
 1355TIP3   OH228259   3.621   6.804  18.266 -0.2951 -0.4728  0.1024
 1355TIP3    H128260   3.674   6.822  18.188  2.4335  2.9638  2.4445
 1355TIP3    H228261   3.671   6.737  18.313 -1.8202 -2.3688 -0.8211
 1356TIP3   OH228262   3.520   1.843  18.312 -0.2849 -0.4905 -0.1055
 1356TIP3    H128263   3.442   1.825  18.261 -0.0852 -0.9863 -0.2439
 1356TIP3    H228264   3.514   1.783  18.386 -0.2292 -0.2560  0.0905
 1357TIP3   OH228265   2.792   4.833  18.381  0.1838 -0.4471 -0.0005
 1357TIP3    H128266   2.849   4.909  18.367 -1.4578  0.2309 -4.3526
 1357TIP3    H228267   2.842   4.759  18.349 -0.7593 -0.0161 -2.7065
 1358TIP3   OH228268   7.219   0.842  18.926 -0.1342 -0.6663  0.1858
 1358TIP3    H128269   7.173   0.800  18.854  0.7343 -0.2885 -0.5986
 1358TIP3    H228270   7.251   0.769  18.979  0.2664 -0.9751 -0.4726
 1359TIP3   OH228271   0.472   0.314  18.560 -0.4363  0.4162  0.2696
 1359TIP3    H128272   0.377   0.325  18.567 -0.7592 -1.8254  0.1360
 1359TIP3    H228273   0.506   0.343  18.645 -1.4212 -0.3679  0.9393
 1360TIP3   OH228274   2.368   7.133  16.937  0.3495  0.6186 -0.2539
 1360TIP3    H128275   2.386   7.210  16.884  0.1206  0.9769  0.1813
 1360TIP3    H228276   2.442   7.074  16.920  1.2156  1.4792  0.4269
 1361TIP3   OH228277   4.569   2.381  17.530 -0.5794  0.5374 -0.4697
 1361TIP3    H128278   4.576   2.345  17.618  0.7715  2.1058  0.1281
 1361TIP3    H228279   4.476   2.400  17.519 -0.7723  0.3153  0.6394
 1362TIP3   OH228280   5.457   7.465  17.705 -0.4699 -0.8971 -0.4056
 1362TIP3    H128281   5.485   7.523  17.776 -0.6584  0.8562 -1.6914
 1362TIP3    H228282   5.505   7.384  17.720  0.1761 -0.2633  1.2042
 1363TIP3   OH228283   3.264   2.979  16.878  0.0371 -0.8828 -0.0647
 1363TIP3    H128284   3.237   3.060  16.921  1.6815  0.7700 -1.9479
 1363TIP3    H228285   3.359   2.974  16.893  0.5949 -0.4752 -2.9975
 1364TIP3   OH228286   2.178   2.580  16.956 -0.2636 -0.1584 -0.2910
 1364TIP3    H128287   2.103   2.638  16.964  0.4834  0.6678  1.1685
 1364TIP3    H228288   2.254   2.637  16.970  0.6532 -0.9805 -1.6673
 1365TIP3   OH228289   5.701   6.778  18.127  0.2307  0.3438  0.3628
 1365TIP3    H128290   5.795   6.761  18.128  0.2893  0.4751 -1.1274
 1365TIP3    H228291   5.691   6.862  18.171  1.1543  1.7264 -1.8911
 1366TIP3   OH228292   7.135   7.608  18.361 -0.1241 -0.4985 -0.1069
 1366TIP3    H128293   7.171   7.587  18.447  0.7425  1.5740  0.0894
 1366TIP3    H228294   7.205   7.588  18.299 -0.3090 -0.8095 -0.2215
 1367TIP3   OH228295   2.260   2.080  18.089 -0.0276 -0.7159  0.1245
 1367TIP3    H128296   2.253   2.091  17.995  0.0285  0.4342  0.2293
 1367TIP3    H228297   2.200   2.009  18.111  0.3961 -1.3822 -0.8384
 1368TIP3   OH228298   5.359   0.101  18.720 -0.3041 -0.1325 -0.1726
 1368TIP3    H128299   5.270   0.086  18.751 -0.2986 -1.0414 -0.5515
 1368TIP3    H228300   5.348   0.152  18.640 -0.4588  0.1895  0.0548
 1369TIP3   OH228301   3.316   6.334  18.904  0.2878 -0.1057 -0.6257
 1369TIP3    H128302   3.344   6.246  18.930 -4.4979 -1.8538 -0.4117
 1369TIP3    H228303   3.335   6.389  18.980  0.2100 -1.7616  0.6453
 1370TIP3   OH228304   6.000   5.208  17.622  0.3144 -0.5947  0.4818
 1370TIP3    H128305   5.950   5.286  17.597 -2.0141 -2.0118  0.3330
 1370TIP3    H228306   6.054   5.236  17.696 -0.6874  1.1048  0.6185
 1371TIP3   OH228307   5.691   7.525  19.494  0.2600 -0.6322  0.6642
 1371TIP3    H128308   5.685   7.595  19.429 -2.6303 -0.4735  1.0053
 1371TIP3    H228309   5.784   7.524  19.519  0.5810  2.4026 -0.0557
 1372TIP3   OH228310   1.059   5.096  18.328 -0.2486 -0.0555 -0.4558
 1372TIP3    H128311   1.088   5.109  18.418 -2.1503  0.5793  0.1142
 1372TIP3    H228312   1.024   5.181  18.301  0.1545 -0.2745 -1.7645
 1373TIP3   OH228313   6.592   4.776  17.535 -0.4208 -0.3164  0.5826
 1373TIP3    H128314   6.646   4.698  17.550 -0.3126 -0.5103 -0.7197
 1373TIP3    H228315   6.616   4.836  17.605  2.9596  0.3839 -0.9743
 1374TIP3   OH228316   6.092   0.411  18.287  0.3553  0.4131  0.0945
 1374TIP3    H128317   6.070   0.456  18.206  0.5046  3.0027  1.3921
 1374TIP3    H228318   6.007   0.385  18.324  0.2226  0.2353 -0.3302
 1375TIP3   OH228319   3.112   2.067  17.885  0.5061 -0.2427 -0.5329
 1375TIP3    H128320   3.154   2.142  17.843  0.4387  0.2115  0.1919
 1375TIP3    H228321   3.024   2.098  17.907  0.2229 -0.7746 -0.8830
 1376TIP3   OH228322   3.800   3.458  18.283 -0.5647 -0.0777 -0.2777
 1376TIP3    H128323   3.742   3.405  18.228  1.1444 -1.4688 -0.8432
 1376TIP3    H228324   3.823   3.400  18.356  0.7665  0.1230 -0.5160
 1377TIP3   OH228325   4.288   5.304  17.305 -0.4314 -0.1370 -0.9755
 1377TIP3    H128326   4.296   5.226  17.360 -0.3730  0.7099  0.2389
 1377TIP3    H228327   4.244   5.272  17.226 -2.9880 -0.9079  0.6178
 1378TIP3   OH228328   2.026   3.924  17.545  0.2077 -0.5510  0.3856
 1378TIP3    H128329   1.935   3.904  17.525  1.0024 -2.5325 -1.7637
 1378TIP3    H228330   2.040   4.012  17.512 -0.9069 -0.2305  0.7462
 1379TIP3   OH228331   0.518   2.167  19.275 -0.2092  0.4165 -0.5286
 1379TIP3    H128332   0.536   2.182  19.368 -1.1823 -0.6628 -0.1311
 1379TIP3    H228333   0.590   2.111  19.246 -1.9057 -2.6284  0.6615
 1380TIP3   OH228334   3.250   1.524  17.635  0.1825 -0.5705  0.0526
 1380TIP3    H128335   3.205   1.582  17.574 -0.2949  0.8246  1.6298
 1380TIP3    H228336   3.338   1.513  17.598 -0.0780  0.2509 -0.8611
 1381TIP3   OH228337   5.442   7.543  17.448  0.0500  0.0259 -0.1684
 1381TIP3    H128338   5.491   7.624  17.466 -0.0364  0.2748 -1.0161
 1381TIP3    H228339   5.421   7.508  17.535  0.8225  0.4689  0.2050
 1382TIP3   OH228340   6.025   6.259  18.189  0.2441  0.0118 -0.2539
 1382TIP3    H128341   5.935   6.227  18.181  0.4964 -0.3954 -1.8921
 1382TIP3    H228342   6.030   6.333  18.127  1.1402 -0.2337 -0.4968
 1383TIP3   OH228343   5.582   6.273  18.648  0.2783  0.7103  0.6488
 1383TIP3    H128344   5.623   6.187  18.646 -1.3406 -0.0959  0.1758
 1383TIP3    H228345   5.611   6.316  18.567 -0.4214 -0.1632 -0.0898
 1384TIP3   OH228346   2.663   5.787  17.196 -0.2339  0.6462  0.5162
 1384TIP3    H128347   2.740   5.736  17.222  1.9288  2.5103 -1.6993
 1384TIP3    H228348   2.594   5.722  17.185  1.8536 -1.6076 -0.2999
 1385TIP3   OH228349   5.661   2.481  19.157 -0.0313  0.2621  0.7170
 1385TIP3    H128350   5.702   2.548  19.211 -1.0590  1.9902 -0.5668
 1385TIP3    H228351   5.710   2.483  19.074  1.0987 -1.8845  1.2666
 1386TIP3   OH228352   7.103   2.665  18.138  0.8398 -0.1916 -0.2031
 1386TIP3    H128353   7.059   2.628  18.215 -0.7211  1.4090 -0.2531
 1386TIP3    H228354   7.143   2.590  18.094  0.5505 -1.3275  1.4018
 1387TIP3   OH228355   4.434   4.308  18.565 -0.4154  0.4162  0.0536
 1387TIP3    H128356   4.415   4.262  18.647  1.1351 -0.4075 -0.0160
 1387TIP3    H228357   4.349   4.315  18.521 -1.3256  1.0650  1.7970
 1388TIP3   OH228358   6.559   0.841  18.682  0.5198 -0.6668 -0.7027
 1388TIP3    H128359   6.541   0.876  18.595  0.6201  1.0249 -0.0901
 1388TIP3    H228360   6.634   0.893  18.713 -1.6830  1.3074  1.7616
 1389TIP3   OH228361   4.854   3.967  18.385  0.0244  0.5900 -0.0702
 1389TIP3    H128362   4.765   3.947  18.416  0.1686  0.8608  0.5347
 1389TIP3    H228363   4.872   3.900  18.319 -0.7911  0.7915 -0.5096
 1390TIP3   OH228364   5.959   2.074  16.999 -0.0907 -0.0692 -0.5082
 1390TIP3    H128365   5.909   1.992  17.001 -0.4461  0.1153 -1.4954
 1390TIP3    H228366   6.010   2.069  16.919 -1.9522  1.7134 -1.9249
 1391TIP3   OH228367   2.402   7.295  18.211  0.7319 -0.2862 -0.0749
 1391TIP3    H128368   2.336   7.226  18.217  0.0387  0.1858 -1.7777
 1391TIP3    H228369   2.478   7.258  18.256  0.9723 -2.8826 -2.3315
 1392TIP3   OH228370   2.718   6.976  18.797 -0.1496  0.1702  0.0808
 1392TIP3    H128371   2.712   6.964  18.702 -1.9530  2.3296 -0.1571
 1392TIP3    H228372   2.810   6.957  18.817  0.3055 -0.2441 -2.0805
 1393TIP3   OH228373   5.089   5.987  19.517 -0.3256  0.3005 -0.0832
 1393TIP3    H128374   4.997   5.979  19.490 -0.7173  0.9868  0.9665
 1393TIP3    H228375   5.118   5.897  19.532 -0.6063  0.0315 -1.1097
 1394TIP3   OH228376   1.174   4.894  18.879 -0.3465  0.2770  0.4885
 1394TIP3    H128377   1.167   4.834  18.953  0.3596 -1.2529 -0.6235
 1394TIP3    H228378   1.177   4.837  18.802 -0.3908  1.7827 -0.6766
 1395TIP3   OH228379   7.045   5.760  18.603 -0.0040 -0.0561 -0.3022
 1395TIP3    H128380   7.043   5.829  18.537 -1.4790  0.1417 -0.1002
 1395TIP3    H228381   7.015   5.681  18.557 -0.0607 -0.1470 -0.1139
 1396TIP3   OH228382   2.318   2.025  16.998  0.6271 -0.9064 -0.1932
 1396TIP3    H128383   2.355   1.943  16.966  0.2747 -0.7610 -1.0015
 1396TIP3    H228384   2.381   2.092  16.973  0.9810 -0.9397  0.5879
 1397TIP3   OH228385   3.218   0.640  19.306 -0.3915 -0.4259  0.2469
 1397TIP3    H128386   3.166   0.696  19.364 -0.7972  0.4606 -0.9286
 1397TIP3    H228387   3.253   0.701  19.240 -1.0545 -1.5778 -1.2237
 1398TIP3   OH228388   6.675   2.869  19.709 -0.0299 -0.6941  0.8512
 1398TIP3    H128389   6.699   2.857  19.801 -0.4440  0.3730  1.1169
 1398TIP3    H228390   6.705   2.789  19.666  0.5144 -1.0464  1.8410
 1399TIP3   OH228391   6.776   5.346  17.168  0.2455  0.6751 -0.3338
 1399TIP3    H128392   6.794   5.252  17.171 -1.9611  0.2149  0.0886
 1399TIP3    H228393   6.768   5.366  17.075  1.7612  0.6918 -0.4776
 1400TIP3   OH228394   3.536   0.637  16.776  0.3214 -0.0131 -0.2403
 1400TIP3    H128395   3.492   0.586  16.708 -0.5754 -0.3042  0.5230
 1400TIP3    H228396   3.628   0.614  16.768 -0.2135 -3.1969  1.1716
 1401TIP3   OH228397   1.044   3.384  18.710  0.1475 -0.1093  0.2717
 1401TIP3    H128398   1.065   3.403  18.618  0.9071  1.7965  0.7894
 1401TIP3    H228399   0.956   3.344  18.706  0.5916 -1.0640 -1.3314
 1402TIP3   OH228400   5.269   6.631  18.187 -0.2394 -0.3015 -0.0135
 1402TIP3    H128401   5.210   6.558  18.208 -1.6417  0.5785 -0.7438
 1402TIP3    H228402   5.277   6.627  18.091  0.6129 -0.1850  0.0494
 1403TIP3   OH228403   6.184   1.054  17.889 -0.2954  0.1562  0.1624
 1403TIP3    H128404   6.181   0.960  17.875 -1.6499  0.2793 -0.5551
 1403TIP3    H228405   6.186   1.064  17.984 -2.1554 -0.5993  0.3261
 1404TIP3   OH228406   6.056   1.222  18.470 -0.0363 -0.2948  0.3734
 1404TIP3    H128407   5.966   1.227  18.436 -0.0444 -0.1692  0.4128
 1404TIP3    H228408   6.051   1.155  18.539 -0.5389  1.0609  1.7043
 1405TIP3   OH228409   6.772   1.215  17.324 -0.5751  0.3367 -0.0565
 1405TIP3    H128410   6.738   1.304  17.310 -0.6375  0.0365 -2.0952
 1405TIP3    H228411   6.705   1.158  17.289 -0.0403 -0.4760  0.2219
 1406TIP3   OH228412   6.958   2.196  19.111  0.0994  0.1287  0.1036
 1406TIP3    H128413   7.010   2.224  19.036  0.8232  1.3023  1.0085
 1406TIP3    H228414   7.009   2.125  19.150  1.2658  1.5052  1.1900
 1407TIP3   OH228415   3.141   4.544  18.697 -0.3588  0.5907 -0.0854
 1407TIP3    H128416   3.217   4.570  18.750  0.1125  0.9291 -0.9133
 1407TIP3    H228417   3.076   4.612  18.712  0.0132  1.0277 -0.4421
 1408TIP3   OH228418   3.479   2.506  18.743  0.6207  0.2760  0.1176
 1408TIP3    H128419   3.397   2.457  18.750  1.4963 -1.0890  1.6098
 1408TIP3    H228420   3.492   2.520  18.649 -1.3038  0.5366 -0.1412
 1409TIP3   OH228421   1.662   5.351  17.652 -0.4839 -0.1601 -0.2050
 1409TIP3    H128422   1.670   5.307  17.737 -0.2189 -0.4607 -0.3825
 1409TIP3    H228423   1.710   5.294  17.592 -0.0532  0.4233 -0.4175
 1410TIP3   OH228424   0.526   4.461  19.528  0.6096  0.4240 -0.0573
 1410TIP3    H128425   0.511   4.543  19.576  1.3036 -0.4575  1.7216
 1410TIP3    H228426   0.613   4.472  19.489 -0.4254  1.6258 -2.2629
 1411TIP3   OH228427   1.268   2.967  18.957  0.5810 -0.1836 -0.2647
 1411TIP3    H128428   1.275   2.932  19.046  0.2008  1.7661  0.5894
 1411TIP3    H228429   1.192   2.923  18.920 -0.8823  0.8701  1.3538
 1412TIP3   OH228430   1.428   4.134  18.875  0.4674  0.2275  0.2692
 1412TIP3    H128431   1.452   4.217  18.917 -1.4533  1.3741 -0.7169
 1412TIP3    H228432   1.500   4.075  18.894  0.7373  1.3393  3.2124
 1413TIP3   OH228433   7.300   6.381  17.558  0.0355  0.3309  0.3154
 1413TIP3    H128434   7.275   6.290  17.544 -1.0764  0.5716  0.5920
 1413TIP3    H228435   7.305   6.390  17.653 -1.2696  0.8807  0.3662
 1414TIP3   OH228436   0.666   7.142  17.616 -0.6038  0.3163 -0.8868
 1414TIP3    H128437   0.744   7.179  17.574  1.1858 -0.7199  1.2975
 1414TIP3    H228438   0.615   7.105  17.544  0.7330  1.3104 -2.4261
 1415TIP3   OH228439   4.018   4.282  17.860 -0.8741 -0.4327  0.7766
 1415TIP3    H128440   4.109   4.303  17.881 -0.6641  0.3528 -0.7200
 1415TIP3    H228441   4.010   4.188  17.873 -0.0839 -0.3747  1.7290
 1416TIP3   OH228442   5.340   6.065  18.779 -0.1655 -0.1678 -0.7680
 1416TIP3    H128443   5.358   6.147  18.733 -2.4231  0.2203 -1.0836
 1416TIP3    H228444   5.257   6.081  18.825  0.3318 -1.6588  0.7538
 1417TIP3   OH228445   0.939   7.338  18.493  0.7911 -0.2093 -0.9358
 1417TIP3    H128446   0.996   7.411  18.467 -1.7456  2.5719  0.5769
 1417TIP3    H228447   0.857   7.355  18.445 -0.1424 -1.5880  0.1049
 1418TIP3   OH228448   7.592   0.382  18.985 -0.6922 -0.5131 -0.0147
 1418TIP3    H128449   7.574   0.422  18.900  0.9205 -2.7498 -1.4838
 1418TIP3    H228450   7.516   0.326  19.002 -0.3779 -1.1399 -0.6653
 1419TIP3   OH228451   6.878   0.350  18.722 -0.5753  0.3517  0.0493
 1419TIP3    H128452   6.913   0.367  18.634 -1.1158  1.6041  0.0647
 1419TIP3    H228453   6.813   0.418  18.736 -0.5991  0.0849  1.3838
 1420TIP3   OH228454   1.868   6.243  17.522 -0.0602 -0.2499  0.1947
 1420TIP3    H128455   1.933   6.274  17.459 -0.1729 -0.3876  0.0111
 1420TIP3    H228456   1.886   6.149  17.530 -1.5311 -0.7197 -1.3995
 1421TIP3   OH228457   4.228   4.232  18.808 -0.1952 -0.2811 -0.0619
 1421TIP3    H128458   4.196   4.154  18.853  0.0870 -0.2128  0.2606
 1421TIP3    H228459   4.317   4.244  18.841  0.3197 -0.6996 -1.2488
 1422TIP3   OH228460   5.731   3.662  18.280 -0.2251  0.0539 -0.3832
 1422TIP3    H128461   5.692   3.575  18.284  1.0036 -0.4878  0.6902
 1422TIP3    H228462   5.797   3.662  18.350  0.2403  1.6296 -0.7740
 1423TIP3   OH228463   5.000   0.573  19.418  0.3419 -0.4054 -0.7120
 1423TIP3    H128464   5.092   0.598  19.427  0.8447 -1.9724 -1.3207
 1423TIP3    H228465   4.999   0.478  19.430 -1.2971 -0.3381 -0.0374
 1424TIP3   OH228466   6.635   4.846  19.548  0.7605  0.1233  0.1784
 1424TIP3    H128467   6.571   4.911  19.518  0.4261 -0.0021  0.6031
 1424TIP3    H228468   6.690   4.894  19.610  0.8250  0.1272  0.1169
 1425TIP3   OH228469   3.162   4.798  18.171  0.0139  0.4473  0.3089
 1425TIP3    H128470   3.178   4.739  18.245 -0.6724  1.3108  1.1609
 1425TIP3    H228471   3.244   4.795  18.121 -0.5422 -2.4878 -0.6090
 1426TIP3   OH228472   3.427   4.697  17.281  0.3173 -0.2353 -0.5288
 1426TIP3    H128473   3.509   4.659  17.249  1.4463  0.9180  0.9120
 1426TIP3    H228474   3.450   4.742  17.361 -1.7828 -0.0203  0.0197
 1427TIP3   OH228475   6.651   0.326  19.315  0.1616  0.0518 -0.2310
 1427TIP3    H128476   6.641   0.419  19.338  0.5655  0.5424 -1.8765
 1427TIP3    H228477   6.594   0.280  19.376 -0.3339  1.4147  0.3847
 1428TIP3   OH228478   5.382   1.187  19.163  0.3251 -0.1333  0.3652
 1428TIP3    H128479   5.382   1.235  19.246  0.6694  0.1551  0.2026
 1428TIP3    H228480   5.384   1.095  19.189  0.1247 -0.0501  0.6813
 1429TIP3   OH228481   3.818   7.601  17.345 -0.8878  0.2845  0.0123
 1429TIP3    H128482   3.779   7.668  17.289 -1.8268  1.7121  2.2296
 1429TIP3    H228483   3.744   7.565  17.395 -0.1378 -1.1724  0.1432
 1430TIP3   OH228484   2.425   3.999  16.607  0.2067 -0.0609 -0.2076
 1430TIP3    H128485   2.441   3.913  16.567 -1.0058 -0.0736 -0.6872
 1430TIP3    H228486   2.337   3.993  16.642 -0.0193  1.1098 -0.5502
 1431TIP3   OH228487   2.141   3.525  17.596  0.0722 -0.1370 -0.1166
 1431TIP3    H128488   2.079   3.509  17.668  0.9772 -1.4396  0.4018
 1431TIP3    H228489   2.192   3.444  17.590 -0.4580 -0.3613 -2.7388
 1432TIP3   OH228490   2.387   0.803  17.541  0.4080  0.1015  0.2422
 1432TIP3    H128491   2.448   0.750  17.593  0.0476 -1.0926 -0.5107
 1432TIP3    H228492   2.316   0.743  17.519 -0.5478  1.2008  0.2477
 1433TIP3   OH228493   5.027   0.610  18.307  0.3532 -0.4776 -0.5543
 1433TIP3    H128494   4.952   0.561  18.273  0.7012 -0.3196 -1.5737
 1433TIP3    H228495   4.988   0.685  18.352 -0.1512 -1.2154  0.2679
 1434TIP3   OH228496   6.765   4.053  16.909  0.6080  0.6759 -0.5199
 1434TIP3    H128497   6.760   4.147  16.893  0.7482  0.7779 -0.0112
 1434TIP3    H228498   6.694   4.036  16.971  2.8264  1.1528  2.3966
 1435TIP3   OH228499   0.951   0.849  17.181  0.6708  0.2793 -0.0547
 1435TIP3    H128500   0.896   0.771  17.175  0.8324  0.2629 -1.9710
 1435TIP3    H228501   0.902   0.917  17.135 -0.3886  1.9473  3.2535
 1436TIP3   OH228502   7.558   4.819  18.557 -0.2610 -0.0459  0.1336
 1436TIP3    H128503   7.647   4.786  18.569  0.2667  1.1590 -0.3389
 1436TIP3    H228504   7.505   4.768  18.619  0.9492  0.0399  1.2874
 1437TIP3   OH228505   0.131   7.139  18.325 -0.0720  0.1399  0.3203
 1437TIP3    H128506   0.191   7.091  18.267  0.1956 -0.2093  0.8766
 1437TIP3    H228507   0.095   7.209  18.270  1.0168  0.4956  0.0356
 1438TIP3   OH228508   1.231   3.963  19.031  0.0835 -0.1008 -0.3701
 1438TIP3    H128509   1.309   3.978  18.976  0.7631  2.6481  1.1591
 1438TIP3    H228510   1.161   4.012  18.987 -0.1495 -0.4592 -0.4011
 1439TIP3   OH228511   3.349   0.736  17.196  0.2092  0.2581 -0.7314
 1439TIP3    H128512   3.424   0.790  17.221 -0.4428  0.5609  0.6480
 1439TIP3    H228513   3.309   0.710  17.279 -0.8526 -0.4203 -1.4278
 1440TIP3   OH228514   5.101   3.098  17.370 -0.4729 -0.1182 -0.4876
 1440TIP3    H128515   5.082   3.022  17.315 -1.8146 -1.5327  1.7675
 1440TIP3    H228516   5.084   3.068  17.459  2.3033  1.8401  0.8397
 1441TIP3   OH228517   5.589   6.073  18.206  0.6525  0.1795 -0.2068
 1441TIP3    H128518   5.547   6.156  18.229  0.7500  0.5375 -1.2858
 1441TIP3    H228519   5.549   6.009  18.266 -0.2899  0.7873 -0.1577
 1442TIP3   OH228520   7.614   4.144  19.209  0.5056  0.2073 -0.2669
 1442TIP3    H128521   7.559   4.203  19.157  1.3205  0.9397 -0.3361
 1442TIP3    H228522   7.702   4.183  19.203  1.2904 -1.5506 -1.1301
 1443TIP3   OH228523   4.816   3.226  17.095  0.5265  0.4161 -0.2786
 1443TIP3    H128524   4.872   3.154  17.065  0.8299  0.0569  1.0799
 1443TIP3    H228525   4.794   3.274  17.015  2.1802  0.1420 -0.9500
 1444TIP3   OH228526   4.578   2.912  17.370  0.0754  0.3175  0.4043
 1444TIP3    H128527   4.558   2.837  17.313  1.1825  1.1468 -1.1596
 1444TIP3    H228528   4.522   2.899  17.446 -0.6204 -1.4772 -0.3398
 1445TIP3   OH228529   6.998   6.486  18.536 -0.4373 -0.5072  0.0950
 1445TIP3    H128530   6.972   6.571  18.503 -3.0949 -1.0086  0.6738
 1445TIP3    H228531   7.043   6.505  18.619  0.8257  0.3827 -0.7544
 1446TIP3   OH228532   5.359   2.688  17.723 -0.6222 -0.0353  0.1097
 1446TIP3    H128533   5.357   2.672  17.629  0.8801  0.1620  0.0161
 1446TIP3    H228534   5.451   2.676  17.748 -0.8372  0.7328  1.4012
 1447TIP3   OH228535   4.979   7.241  16.959  0.3516 -0.0566 -0.3746
 1447TIP3    H128536   4.968   7.299  16.884 -1.3214 -1.0244 -0.9190
 1447TIP3    H228537   4.932   7.284  17.031 -0.5908 -0.5411 -0.6870
 1448TIP3   OH228538   1.630   5.221  17.885 -0.1682 -0.6980 -0.1559
 1448TIP3    H128539   1.577   5.149  17.919 -0.2599 -1.3426 -1.5964
 1448TIP3    H228540   1.624   5.289  17.953 -3.5695 -0.3738 -0.6038
 1449TIP3   OH228541   0.625   1.194  18.943  0.1607 -0.2619  0.1646
 1449TIP3    H128542   0.540   1.231  18.966  0.4564  0.0559  0.7644
 1449TIP3    H228543   0.626   1.107  18.985  0.4449  0.0582  0.8310
 1450TIP3   OH228544   1.444   7.245  17.557  0.8419  0.2329  0.2521
 1450TIP3    H128545   1.374   7.276  17.500  1.5453  0.8676 -0.2905
 1450TIP3    H228546   1.517   7.228  17.497  1.7986  1.5177  1.0139
 1451TIP3   OH228547   0.643   2.080  17.030  0.2581 -0.7607  0.3843
 1451TIP3    H128548   0.560   2.061  16.987  0.4108  0.1956 -0.3790
 1451TIP3    H228549   0.634   2.043  17.118 -0.8285 -0.9872  0.1912
 1452TIP3   OH228550   2.740   6.267  17.572  0.7086  0.0691  0.5370
 1452TIP3    H128551   2.735   6.172  17.574  1.9258 -0.0512 -0.7671
 1452TIP3    H228552   2.783   6.287  17.489 -1.6645  1.8601 -0.3725
 1453TIP3   OH228553   5.737   0.372  17.380 -0.1752 -0.0542  0.1042
 1453TIP3    H128554   5.806   0.414  17.431 -0.7521  0.7570  0.2461
 1453TIP3    H228555   5.778   0.353  17.296  0.6166 -0.8714  0.6575
 1454TIP3   OH228556   5.600   2.952  17.903 -0.5524  0.7774  0.0060
 1454TIP3    H128557   5.508   2.937  17.924 -0.4895  2.3756  1.6282
 1454TIP3    H228558   5.600   3.030  17.847 -0.2400  0.2290 -0.7748
 1455TIP3   OH228559   6.080   0.584  18.761  0.3058  0.5076 -0.4016
 1455TIP3    H128560   6.044   0.496  18.753 -0.4786  0.6127  1.4535
 1455TIP3    H228561   6.170   0.571  18.793 -0.0939  0.3716  0.7154
 1456TIP3   OH228562   5.293   7.017  18.002 -0.0250  0.6610 -0.6635
 1456TIP3    H128563   5.274   7.081  17.933  0.6615  1.0857 -0.4796
 1456TIP3    H228564   5.365   6.965  17.967 -0.0010  0.5597 -0.4654
 1457TIP3   OH228565   7.563   0.917  17.546 -0.2118 -0.1568  0.4688
 1457TIP3    H128566   7.606   0.834  17.525  0.4952  0.0881  0.9067
 1457TIP3    H228567   7.565   0.920  17.642  0.1745  0.5704  0.4423
 1458TIP3   OH228568   6.262   6.135  18.984  0.1709 -0.4687 -0.4653
 1458TIP3    H128569   6.218   6.060  18.944 -0.9449 -1.1926  1.9089
 1458TIP3    H228570   6.196   6.205  18.982 -0.1021 -0.6805  0.5331
 1459TIP3   OH228571   5.200   5.716  19.459  0.5336  0.8746 -0.9588
 1459TIP3    H128572   5.246   5.729  19.542  0.1500 -0.5914 -0.4799
 1459TIP3    H228573   5.250   5.767  19.395  3.0919 -0.9137 -0.5433
 1460TIP3   OH228574   3.928   6.688  17.165  0.0736  0.4140 -0.4370
 1460TIP3    H128575   3.908   6.743  17.240 -1.3592 -0.2241 -0.3087
 1460TIP3    H228576   3.852   6.697  17.108 -0.3213 -1.5782 -0.2998
 1461TIP3   OH228577   7.612   5.610  18.032  0.0721  0.4448  0.3764
 1461TIP3    H128578   7.545   5.649  18.087 -0.6353  1.6917 -1.2727
 1461TIP3    H228579   7.693   5.655  18.057 -0.4902  2.0278 -0.5262
 1462TIP3   OH228580   3.071   3.922  19.460  0.0259 -0.1047 -0.1670
 1462TIP3    H128581   3.153   3.875  19.450 -0.1740 -0.2106 -1.5573
 1462TIP3    H228582   3.012   3.881  19.397 -1.3488 -0.5541  1.3463
 1463TIP3   OH228583   3.788   2.484  16.887 -0.5041 -0.5195 -0.1429
 1463TIP3    H128584   3.752   2.571  16.902 -2.9224 -0.9903 -2.3522
 1463TIP3    H228585   3.850   2.495  16.815 -1.7459 -0.7183 -1.2954
 1464TIP3   OH228586   0.376   6.696  18.697  0.5215 -0.8651  0.1436
 1464TIP3    H128587   0.343   6.746  18.622 -1.5472 -2.0367  0.2102
 1464TIP3    H228588   0.468   6.721  18.703 -0.2097  2.3745 -0.2537
 1465TIP3   OH228589   1.365   0.284  17.632 -0.1151 -0.7495  0.5437
 1465TIP3    H128590   1.291   0.228  17.608 -1.3583  1.0887 -0.1522
 1465TIP3    H228591   1.405   0.308  17.549 -0.2103  0.1712  0.7545
 1466TIP3   OH228592   0.619   4.810  19.173  0.3670 -0.2482 -0.4049
 1466TIP3    H128593   0.630   4.718  19.198 -1.2085 -0.6313 -1.0009
 1466TIP3    H228594   0.626   4.809  19.077 -2.1245 -0.2057 -0.6618
 1467TIP3   OH228595   3.529   3.070  19.472  0.3098  0.3662  0.7209
 1467TIP3    H128596   3.446   3.067  19.521 -0.7563  1.2575 -0.9417
 1467TIP3    H228597   3.529   2.990  19.420  1.0558 -0.1872  1.5572
 1468TIP3   OH228598   4.802   7.563  18.875  0.4686  0.2541 -0.5774
 1468TIP3    H128599   4.811   7.538  18.967  0.2568  0.3266 -0.5360
 1468TIP3    H228600   4.886   7.601  18.852  0.4318  0.4809 -0.3366
 1469TIP3   OH228601   7.107   3.637  18.133  0.6007  0.1085 -0.0944
 1469TIP3    H128602   7.165   3.580  18.082  0.4493  0.1376 -0.2983
 1469TIP3    H228603   7.161   3.711  18.157  0.5269  0.3461 -0.6570
 1470TIP3   OH228604   7.318   5.271  19.648  0.4429 -0.8255  0.2901
 1470TIP3    H128605   7.257   5.259  19.574  0.5170 -0.1477  0.1222
 1470TIP3    H228606   7.273   5.331  19.707  1.9668  1.7454 -1.0177
 1471TIP3   OH228607   0.578   1.761  19.195 -0.0067 -0.0097 -0.0845
 1471TIP3    H128608   0.617   1.815  19.264 -0.0017  2.8230 -2.1323
 1471TIP3    H228609   0.652   1.714  19.157  0.1552 -0.6998  1.0259
 1472TIP3   OH228610   0.385   3.372  17.790 -0.1038  0.2087  0.6908
 1472TIP3    H128611   0.379   3.317  17.869 -2.0237  2.5117  2.2785
 1472TIP3    H228612   0.294   3.384  17.763  0.5213 -0.6342 -2.0465
 1473TIP3   OH228613   4.277   2.930  19.383 -0.2666 -0.7230  0.5398
 1473TIP3    H128614   4.307   3.021  19.387  0.8212 -1.0523  0.2205
 1473TIP3    H228615   4.208   2.930  19.316 -1.2521  0.1118  1.5107
 1474TIP3   OH228616   6.081   2.183  18.597 -0.0613  0.3638 -0.1828
 1474TIP3    H128617   6.113   2.108  18.648  0.7220  0.6254 -0.2635
 1474TIP3    H228618   6.050   2.245  18.662 -1.2429 -0.2546 -0.1421
 1475TIP3   OH228619   2.196   5.365  18.637 -0.3065  0.2584 -0.2478
 1475TIP3    H128620   2.154   5.443  18.600  2.0712  0.8832 -1.9454
 1475TIP3    H228621   2.170   5.365  18.729 -3.1124  1.0764 -0.9391
 1476TIP3   OH228622   5.529   2.867  18.545  0.1351  0.0870 -0.2165
 1476TIP3    H128623   5.601   2.818  18.506  0.9347  2.5245 -2.0053
 1476TIP3    H228624   5.451   2.840  18.496  0.8660  1.8672 -2.5277
 1477TIP3   OH228625   0.909   1.729  18.072  0.2826  0.2085  0.0597
 1477TIP3    H128626   0.917   1.633  18.077  0.7091  0.2809  0.9424
 1477TIP3    H228627   0.846   1.744  18.002  1.3527 -0.6730 -1.1539
 1478TIP3   OH228628   3.324   1.276  17.272 -0.1458  0.0855  0.0937
 1478TIP3    H128629   3.407   1.236  17.300 -0.5900 -0.9793 -0.0378
 1478TIP3    H228630   3.333   1.368  17.295  1.2611  0.0888 -0.3315
 1479TIP3   OH228631   6.784   3.517  16.990 -0.1117  0.2152 -0.6271
 1479TIP3    H128632   6.811   3.606  16.968 -0.5044  0.4093 -0.3393
 1479TIP3    H228633   6.751   3.523  17.080 -0.4313 -0.1569 -0.7167
 1480TIP3   OH228634   3.297   5.847  18.121 -0.0994  0.2820  0.0124
 1480TIP3    H128635   3.281   5.813  18.209  1.9189 -0.1893  0.2648
 1480TIP3    H228636   3.210   5.866  18.085 -1.0574 -1.0734  1.4874
 1481TIP3   OH228637   6.387   6.372  17.677 -0.5046 -0.0545  0.2820
 1481TIP3    H128638   6.406   6.311  17.747  1.5122  0.8488  0.5970
 1481TIP3    H228639   6.452   6.442  17.687  1.1766 -0.8052 -3.5950
 1482TIP3   OH228640   0.263   4.652  19.183 -0.5763 -0.4732 -0.2464
 1482TIP3    H128641   0.177   4.675  19.216  0.1221 -1.2329  2.3116
 1482TIP3    H228642   0.290   4.577  19.235  2.0767  0.4345 -0.1501
 1483TIP3   OH228643   2.940   1.328  17.358 -0.2862 -0.6996 -0.4804
 1483TIP3    H128644   2.858   1.370  17.385  0.3622  0.8047 -0.7474
 1483TIP3    H228645   2.966   1.375  17.278  2.0678  0.5673  0.9087
 1484TIP3   OH228646   6.165   2.493  17.775  0.2335 -0.3311  0.1322
 1484TIP3    H128647   6.108   2.568  17.759 -0.2472 -0.8862 -0.9031
 1484TIP3    H228648   6.222   2.490  17.698  0.7347 -0.6099  0.5072
 1485TIP3   OH228649   6.759   3.457  18.361  0.1072 -0.4061 -0.3662
 1485TIP3    H128650   6.763   3.551  18.343 -0.0536 -0.9150 -3.6760
 1485TIP3    H228651   6.833   3.420  18.312 -0.3509 -2.1083  0.1636
 1486TIP3   OH228652   3.129   6.602  18.016 -0.1151  0.2541 -0.0503
 1486TIP3    H128653   3.035   6.621  18.007  0.2460  2.1800 -0.1219
 1486TIP3    H228654   3.155   6.569  17.930 -0.7413 -0.4955  0.0284
 1487TIP3   OH228655   5.831   5.893  18.944 -0.3153 -0.6035  0.0372
 1487TIP3    H128656   5.869   5.885  18.856 -0.9554  2.4377 -0.6355
 1487TIP3    H228657   5.736   5.887  18.930 -0.4366  0.2625  0.4627
 1488TIP3   OH228658   7.088   1.943  17.549 -0.7733 -0.0629  0.6499
 1488TIP3    H128659   7.095   1.974  17.459  0.3351  0.5939  0.9446
 1488TIP3    H228660   7.111   1.850  17.544 -0.5922  0.0008  0.2646
 1489TIP3   OH228661   7.514   1.143  19.393  0.5926 -0.1391 -0.1488
 1489TIP3    H128662   7.512   1.059  19.348  0.8313  0.3681 -1.1257
 1489TIP3    H228663   7.607   1.165  19.398  0.4699  0.5302 -0.7802
 1490TIP3   OH228664   2.749   7.109  19.270  0.4940  0.4730 -0.3422
 1490TIP3    H128665   2.668   7.063  19.248 -0.7519  2.4027  0.0188
 1490TIP3    H228666   2.815   7.069  19.213 -0.2978 -2.3110  0.5434
 1491TIP3   OH228667   5.013   0.971  19.130 -0.4443 -0.1793 -0.1929
 1491TIP3    H128668   4.919   0.972  19.150 -0.7113  1.7669 -1.3097
 1491TIP3    H228669   5.055   1.008  19.208 -0.7362  0.2438 -0.2349
 1492TIP3   OH228670   6.252   4.272  18.599 -0.6351 -0.1555  0.0814
 1492TIP3    H128671   6.212   4.359  18.596  0.0568  0.1463 -1.0829
 1492TIP3    H228672   6.344   4.287  18.575 -0.7691 -1.3400 -1.3141
 1493TIP3   OH228673   4.140   0.268  19.383 -0.1508  0.2104 -0.2712
 1493TIP3    H128674   4.086   0.269  19.304 -0.5394  0.2644 -0.0072
 1493TIP3    H228675   4.104   0.197  19.436  0.9832 -0.7596 -0.7405
 1494TIP3   OH228676   2.995   0.932  19.001  0.3603 -0.1641  0.3063
 1494TIP3    H128677   2.978   0.946  18.908  0.8427 -0.8094  0.1118
 1494TIP3    H228678   2.924   0.978  19.046 -1.2781 -1.8316 -0.4307
 1495TIP3   OH228679   2.460   1.445  18.119  0.3653  0.3128 -0.2702
 1495TIP3    H128680   2.492   1.401  18.197  0.2705 -1.2041 -1.0623
 1495TIP3    H228681   2.513   1.410  18.048 -0.7363  0.3415 -1.1321
 1496TIP3   OH228682   2.113   7.426  18.039  0.6388  0.4650  0.1554
 1496TIP3    H128683   2.163   7.377  17.974  0.0126  0.3385 -0.2340
 1496TIP3    H228684   2.180   7.464  18.096  1.1950  0.6428 -0.6024
 1497TIP3   OH228685   0.657   5.170  18.181 -0.2934 -0.1503 -0.1687
 1497TIP3    H128686   0.586   5.122  18.138 -1.4174 -0.1907  1.6302
 1497TIP3    H228687   0.622   5.258  18.193  0.4211  0.1538 -0.2901
 1498TIP3   OH228688   6.308   4.787  17.690  0.2161  0.4842  0.2502
 1498TIP3    H128689   6.249   4.778  17.616  0.8863 -0.4590 -0.1774
 1498TIP3    H228690   6.359   4.866  17.671  0.3207  0.2964 -0.2426
 1499TIP3   OH228691   1.280   1.818  19.143 -0.1120  0.1332  0.0500
 1499TIP3    H128692   1.364   1.861  19.131  0.5122 -1.0273  0.1135
 1499TIP3    H228693   1.302   1.732  19.178 -1.4834  1.2584  4.3442
 1500TIP3   OH228694   7.063   5.473  17.281  0.2144  0.6409 -0.3874
 1500TIP3    H128695   7.038   5.461  17.189 -1.0698 -1.9945  0.1936
 1500TIP3    H228696   6.983   5.501  17.325  0.3339  0.1222  0.1878
 1501TIP3   OH228697   1.851   5.182  17.502 -0.1153  0.3870 -0.5069
 1501TIP3    H128698   1.874   5.157  17.413 -0.0279 -0.1348 -0.3439
 1501TIP3    H228699   1.855   5.100  17.552 -0.3346  0.6400 -0.0607
 1502TIP3   OH228700   4.587   5.906  18.273 -0.1306 -0.6436 -0.4182
 1502TIP3    H128701   4.614   5.997  18.283 -1.1117 -0.0222 -2.6789
 1502TIP3    H228702   4.532   5.906  18.194 -1.7299 -2.8767  0.5997
 1503TIP3   OH228703   6.395   4.701  17.947 -0.1550  0.4078  0.2660
 1503TIP3    H128704   6.437   4.615  17.947  1.2599  1.0432  1.6946
 1503TIP3    H228705   6.368   4.715  17.856 -3.3288 -2.8278  0.4718
 1504TIP3   OH228706   0.469   2.657  17.374 -0.2173  0.0544 -0.6783
 1504TIP3    H128707   0.385   2.613  17.359  0.4388 -1.2447 -0.6891
 1504TIP3    H228708   0.467   2.732  17.315 -0.6343 -0.9876 -2.0627
 1505TIP3   OH228709   6.385   4.761  19.135  0.5718 -0.0289 -0.1834
 1505TIP3    H128710   6.345   4.847  19.145  1.1197  0.4960 -2.0430
 1505TIP3    H228711   6.322   4.700  19.174 -1.3054  0.9472 -1.5291
 1506TIP3   OH228712   5.931   6.153  16.795  0.5466  0.3153  0.4108
 1506TIP3    H128713   5.930   6.125  16.703  1.9887  3.0170 -0.5373
 1506TIP3    H228714   5.983   6.086  16.839  0.9194 -0.3781 -1.0167
 1507TIP3   OH228715   6.452   5.339  17.097  0.0576 -0.1048 -0.1693
 1507TIP3    H128716   6.486   5.416  17.143  1.5941 -0.4250 -0.6930
 1507TIP3    H228717   6.515   5.325  17.026  1.2084 -3.1795  1.2720
 1508TIP3   OH228718   6.690   7.580  16.882 -0.5828  0.1471  0.3828
 1508TIP3    H128719   6.633   7.629  16.822 -1.0024  0.0943  0.7316
 1508TIP3    H228720   6.745   7.647  16.923  0.9578  0.0168 -1.3480
 1509TIP3   OH228721   7.101   4.184  19.251  0.2568 -0.1032  0.5816
 1509TIP3    H128722   7.128   4.148  19.167  1.2696 -0.7712  1.1725
 1509TIP3    H228723   7.154   4.263  19.262 -0.7300  0.6574  0.0720
 1510TIP3   OH228724   4.732   1.850  17.515 -0.1378 -0.1055 -0.1134
 1510TIP3    H128725   4.785   1.839  17.436  1.1290  0.3158  0.6349
 1510TIP3    H228726   4.753   1.938  17.546 -0.6715 -0.2364  0.6465
 1511TIP3   OH228727   0.283   7.499  16.951 -0.5175  0.2689 -0.0891
 1511TIP3    H128728   0.296   7.405  16.938 -1.5491  0.1738 -0.4721
 1511TIP3    H228729   0.360   7.539  16.910 -0.2987 -0.3771 -0.3271
 1512TIP3   OH228730   5.884   3.816  17.885  0.2732  0.3171  0.4045
 1512TIP3    H128731   5.967   3.788  17.925  0.5764  1.9961  1.0162
 1512TIP3    H228732   5.904   3.820  17.792  0.2601 -1.2692  0.2974
 1513TIP3   OH228733   5.487   4.648  18.135  0.2644 -0.2929  0.1266
 1513TIP3    H128734   5.560   4.590  18.158  1.8973  1.2345 -0.8634
 1513TIP3    H228735   5.444   4.668  18.218  1.4450 -0.6685  0.8491
 1514TIP3   OH228736   1.611   5.787  19.007  0.1825 -0.2401 -0.1698
 1514TIP3    H128737   1.672   5.717  19.025 -2.2283 -2.9790 -1.7807
 1514TIP3    H228738   1.537   5.771  19.065 -0.6512  0.6339 -0.9387
 1515TIP3   OH228739   0.301   6.972  19.098 -0.0031  0.0444  0.5972
 1515TIP3    H128740   0.331   6.966  19.189  0.3983  1.8168  0.6238
 1515TIP3    H228741   0.209   6.996  19.105 -0.6884 -2.3117  0.5012
 1516TIP3   OH228742   2.760   3.533  18.006  0.0934 -0.3773 -0.1532
 1516TIP3    H128743   2.853   3.521  17.985  0.1909 -2.1875  1.0476
 1516TIP3    H228744   2.716   3.463  17.958 -0.7425  0.7843 -1.1143
 1517TIP3   OH228745   7.326   7.216  18.698  0.2269 -0.6636 -0.2609
 1517TIP3    H128746   7.382   7.229  18.621 -0.5188  0.9766 -0.5733
 1517TIP3    H228747   7.387   7.206  18.771  0.9356 -1.3092 -0.9289
 1518TIP3   OH228748   2.890   7.433  18.506  0.9396  0.0954 -0.0344
 1518TIP3    H128749   2.886   7.338  18.518 -0.5472  0.0695 -0.5412
 1518TIP3    H228750   2.813   7.466  18.552  1.9605  1.1815  0.9785
 1519TIP3   OH228751   5.141   2.412  18.472 -0.0499  0.3098 -0.0149
 1519TIP3    H128752   5.138   2.507  18.483  1.8557  0.3028  1.0007
 1519TIP3    H228753   5.049   2.387  18.462 -0.5248  2.3577 -1.5353
 1520TIP3   OH228754   1.827   6.598  18.704  0.4932 -0.2976  0.0432
 1520TIP3    H128755   1.778   6.596  18.786 -0.7268  0.2662 -0.6332
 1520TIP3    H228756   1.771   6.649  18.645  1.1967 -0.9604 -1.2270
 1521TIP3   OH228757   5.454   5.788  19.070 -0.2511  0.0686  0.2486
 1521TIP3    H128758   5.475   5.877  19.043  0.4336  0.0838  0.8024
 1521TIP3    H228759   5.367   5.795  19.110 -0.4420  0.3807 -0.2095
 1522TIP3   OH228760   6.492   1.422  19.238  0.1919  0.3267  0.0725
 1522TIP3    H128761   6.486   1.331  19.268  0.0020  0.1823 -0.3928
 1522TIP3    H228762   6.585   1.443  19.247  0.3660 -0.1635 -0.5242
 1523TIP3   OH228763   3.722   5.679  18.998  0.7973 -0.0592 -0.3785
 1523TIP3    H128764   3.688   5.748  18.941  1.2170 -0.2432 -0.8618
 1523TIP3    H228765   3.711   5.713  19.087  0.0836  0.2046 -0.5657
 1524TIP3   OH228766   0.075   3.344  18.691 -0.0124 -0.0536  0.5174
 1524TIP3    H128767   0.142   3.313  18.629 -0.8904  0.3586 -0.6715
 1524TIP3    H228768   0.002   3.283  18.680 -1.3768  1.7475 -1.1483
 1525TIP3   OH228769   3.716   1.752  17.988  0.0657  0.5303 -0.5372
 1525TIP3    H128770   3.678   1.836  17.965  0.5202  1.1082  0.7684
 1525TIP3    H228771   3.743   1.761  18.079  0.9231 -0.7331 -0.6345
 1526TIP3   OH228772   0.216   4.587  17.470 -0.5819 -0.3209 -0.1006
 1526TIP3    H128773   0.127   4.586  17.505 -1.5573 -0.7178 -2.4083
 1526TIP3    H228774   0.209   4.543  17.385  1.2779  1.9259 -1.5483
 1527TIP3   OH228775   0.724   3.973  19.606  0.0935  0.0884 -0.2968
 1527TIP3    H128776   0.815   3.995  19.589 -0.5019  1.0139 -2.5110
 1527TIP3    H228777   0.679   4.057  19.615 -0.6626 -0.3417  0.1009
 1528TIP3   OH228778   6.073   4.268  17.839  0.8260  0.1787  0.0799
 1528TIP3    H128779   6.053   4.298  17.750 -1.2197 -1.0737  0.0571
 1528TIP3    H228780   6.114   4.343  17.881  0.5236  1.2717 -1.4935
 1529TIP3   OH228781   5.589   2.117  18.722 -0.0578  0.0034 -0.4279
 1529TIP3    H128782   5.632   2.144  18.641  0.2402 -1.0156 -0.6340
 1529TIP3    H228783   5.510   2.071  18.694 -0.1476 -0.0322 -0.1295
 1530TIP3   OH228784   4.069   7.170  19.011  0.5739 -0.9552  0.0002
 1530TIP3    H128785   4.118   7.146  18.932  1.4523 -2.4891  0.9641
 1530TIP3    H228786   4.040   7.260  18.994  1.3113 -1.0009 -1.7750
 1531TIP3   OH228787   2.056   3.127  19.364 -0.4492  0.2946 -0.0026
 1531TIP3    H128788   1.989   3.185  19.400 -0.6184  0.8466 -1.1631
 1531TIP3    H228789   2.119   3.185  19.321 -0.6058 -0.3411 -1.1642
 1532TIP3   OH228790   1.450   0.858  18.927  0.1190  0.3483 -0.8715
 1532TIP3    H128791   1.355   0.855  18.913 -0.2918  0.3641  1.4319
 1532TIP3    H228792   1.477   0.766  18.929 -0.4470  0.1540  1.4437
 1533TIP3   OH228793   4.652   5.599  16.911  0.5891 -0.0251  0.1059
 1533TIP3    H128794   4.740   5.576  16.880  0.3520  0.1423 -0.7228
 1533TIP3    H228795   4.623   5.668  16.851  0.2826  0.6287  0.9907
 1534TIP3   OH228796   7.385   4.373  18.236 -0.2986  0.2705 -0.8145
 1534TIP3    H128797   7.298   4.339  18.215 -1.3129  1.7843  0.6511
 1534TIP3    H228798   7.373   4.468  18.240  1.6048  0.5723 -1.2954
 1535TIP3   OH228799   4.372   3.789  17.537  0.4730  0.4465 -0.0847
 1535TIP3    H128800   4.317   3.762  17.464 -1.0093  1.5277  0.5832
 1535TIP3    H228801   4.312   3.832  17.598  1.6298 -0.5233  1.8440
 1536TIP3   OH228802   5.952   6.899  19.336 -0.3228 -0.4710  0.3296
 1536TIP3    H128803   5.887   6.964  19.363 -0.0422  0.0004 -0.0967
 1536TIP3    H228804   5.905   6.816  19.335 -1.5034  0.1532 -2.0068
 1537TIP3   OH228805   5.618   2.687  17.834  0.5565  0.0697 -0.3416
 1537TIP3    H128806   5.675   2.696  17.758  1.3719  0.0324  0.2525
 1537TIP3    H228807   5.636   2.764  17.887 -1.3578  1.0500 -1.0341
 1538TIP3   OH228808   3.896   1.414  17.261  0.5484 -0.1706  0.1083
 1538TIP3    H128809   3.959   1.419  17.190  0.5117 -0.1911  0.0750
 1538TIP3    H228810   3.813   1.440  17.221  0.3792 -0.9169 -0.0363
 1539TIP3   OH228811   0.549   3.251  19.376  0.6419  0.1448 -0.4861
 1539TIP3    H128812   0.577   3.260  19.285  1.1823 -1.4195 -0.4995
 1539TIP3    H228813   0.454   3.240  19.371  0.4075  1.9486 -0.6892
 1540TIP3   OH228814   1.963   0.809  18.958 -0.2418  0.4118 -0.4793
 1540TIP3    H128815   1.969   0.769  19.045 -0.4264 -2.2547 -1.6209
 1540TIP3    H228816   1.936   0.900  18.976  1.8893  0.6145  2.3290
 1541TIP3   OH228817   7.554   2.559  18.066  0.1389 -0.4648 -0.0243
 1541TIP3    H128818   7.606   2.489  18.107  0.5072  0.1956  0.6499
 1541TIP3    H228819   7.619   2.617  18.027 -0.0926  0.3452  0.7851
 1542TIP3   OH228820   5.591   7.351  17.314 -0.1299 -0.4081  0.0733
 1542TIP3    H128821   5.533   7.422  17.339 -0.3775 -0.3918 -0.5479
 1542TIP3    H228822   5.545   7.271  17.342 -0.6154 -0.4158 -0.7295
 1543TIP3   OH228823   5.906   3.851  18.493  0.4911 -0.2103  0.5955
 1543TIP3    H128824   5.944   3.763  18.495  1.5158  0.0525 -2.4470
 1543TIP3    H228825   5.979   3.908  18.517  0.7322 -0.0212 -0.5361
 1544TIP3   OH228826   6.910   5.867  17.700  0.1625  0.2815  0.5912
 1544TIP3    H128827   6.918   5.912  17.785 -2.1355  1.7873  0.0971
 1544TIP3    H228828   6.944   5.930  17.637 -0.2868  0.1035  0.1723
 1545TIP3   OH228829   6.789   1.859  18.592  0.0833  0.0216 -0.2020
 1545TIP3    H128830   6.777   1.916  18.668 -2.8850 -0.3162 -0.2835
 1545TIP3    H228831   6.771   1.771  18.626  0.0861 -0.2953 -1.0103
 1546TIP3   OH228832   2.294   0.322  18.907  0.5022 -0.1648 -0.2195
 1546TIP3    H128833   2.315   0.295  18.818  1.3997  0.3600 -0.1892
 1546TIP3    H228834   2.227   0.261  18.936  0.2824 -0.4164 -1.2093
 1547TIP3   OH228835   2.705   1.749  17.649 -0.1188 -0.5979 -0.3878
 1547TIP3    H128836   2.750   1.834  17.652  0.2592 -0.8147  0.2648
 1547TIP3    H228837   2.738   1.708  17.569  0.0452 -0.3210 -0.4660
 1548TIP3   OH228838   1.699   5.962  19.333 -0.3890 -0.1230  0.3766
 1548TIP3    H128839   1.769   5.901  19.314  0.6514  1.0351  0.3870
 1548TIP3    H228840   1.683   6.008  19.251 -0.3367  0.4028  0.6509
 1549TIP3   OH228841   3.294   1.219  17.008  0.5427 -0.0820  0.5648
 1549TIP3    H128842   3.311   1.239  17.100  1.5381  1.0493  0.1681
 1549TIP3    H228843   3.200   1.202  17.004 -0.1787  2.9739  1.3350
 1550TIP3   OH228844   2.440   3.436  16.649 -0.0569 -0.8360 -0.7932
 1550TIP3    H128845   2.479   3.446  16.736 -0.1528 -1.0899 -0.7191
 1550TIP3    H228846   2.506   3.468  16.588 -0.0059 -0.6181 -0.6238
 1551TIP3   OH228847   7.020   7.553  18.828  0.3866  0.6761  0.5026
 1551TIP3    H128848   6.966   7.583  18.902 -0.9964  0.9720 -0.5834
 1551TIP3    H228849   7.007   7.620  18.761 -0.7762 -1.0414 -1.0817
 1552TIP3   OH228850   3.950   4.056  18.582  0.0455  0.8074  0.0363
 1552TIP3    H128851   3.899   4.018  18.511  0.3966  0.9538 -0.2942
 1552TIP3    H228852   3.961   4.148  18.557 -0.6396  1.1014  0.7361
 1553TIP3   OH228853   1.565   2.197  19.157 -0.4057 -0.3328  0.0094
 1553TIP3    H128854   1.646   2.168  19.114  0.3109  1.4842  0.0219
 1553TIP3    H228855   1.589   2.281  19.197 -2.5857  0.8211 -0.9478
 1554TIP3   OH228856   2.722   2.884  18.867 -0.0665  0.0661  0.4658
 1554TIP3    H128857   2.732   2.819  18.936  1.3981  0.3144  0.5266
 1554TIP3    H228858   2.667   2.841  18.801 -1.6298 -0.1150  1.8161
 1555TIP3   OH228859   6.952   1.787  18.937  0.3675  0.1037 -0.0451
 1555TIP3    H128860   6.990   1.707  18.973  0.0317  0.2142  0.5880
 1555TIP3    H228861   6.964   1.780  18.843 -2.6328 -2.2762 -0.3933
 1556TIP3   OH228862   1.206   3.128  18.715 -0.2513  0.4398 -0.3846
 1556TIP3    H128863   1.242   3.103  18.800 -0.4218  1.0859 -0.1131
 1556TIP3    H228864   1.158   3.210  18.732 -0.4061  0.5017 -1.0711
 1557TIP3   OH228865   7.393   5.010  19.582  0.0883  0.0160  0.3661
 1557TIP3    H128866   7.487   5.005  19.563  0.3223 -1.7142  1.6929
 1557TIP3    H228867   7.380   5.098  19.618  1.1364  0.3957 -0.1593
 1558TIP3   OH228868   3.671   2.724  16.972 -0.0257 -0.9156  0.0431
 1558TIP3    H128869   3.621   2.802  16.951 -0.8670 -1.3361  0.4430
 1558TIP3    H228870   3.689   2.731  17.065 -0.6183 -1.4741  0.2089
 1559TIP3   OH228871   5.633   0.312  19.330 -1.1658 -0.1280  0.2573
 1559TIP3    H128872   5.712   0.354  19.296 -1.2198 -0.5458 -0.3993
 1559TIP3    H228873   5.653   0.218  19.326 -2.0078 -0.2862 -0.7349
 1560TIP3   OH228874   0.803   0.471  18.360  0.2737  0.1909 -0.0778
 1560TIP3    H128875   0.803   0.546  18.420 -0.2477  0.4850 -0.4389
 1560TIP3    H228876   0.895   0.446  18.354  0.3676  0.3318  0.6312
 1561TIP3   OH228877   6.600   1.031  17.183  0.2725  0.4903  0.1463
 1561TIP3    H128878   6.547   0.997  17.111 -0.0771  0.9584  0.1756
 1561TIP3    H228879   6.615   0.956  17.240  1.1349 -0.0525 -0.7567
 1562TIP3   OH228880   6.978   5.073  18.058 -0.4936 -0.1251 -0.4391
 1562TIP3    H128881   6.936   5.005  18.005 -0.0440  0.2328 -1.2707
 1562TIP3    H228882   7.043   5.112  18.000  0.4016 -0.0909  0.5662
 1563TIP3   OH228883   3.584   7.350  19.230 -0.0695  0.1407  0.4211
 1563TIP3    H128884   3.545   7.266  19.206 -2.0213  1.2973 -0.7414
 1563TIP3    H228885   3.678   7.338  19.217 -0.4918 -1.2332 -1.8837
 1564TIP3   OH228886   1.731   6.631  18.327  0.8734 -0.2445 -0.9986
 1564TIP3    H128887   1.826   6.619  18.325  0.7414 -1.4931 -1.4308
 1564TIP3    H228888   1.706   6.635  18.234  0.1532 -3.8957 -1.1357
 1565TIP3   OH228889   4.437   7.149  17.490  0.0577  0.2654 -0.0672
 1565TIP3    H128890   4.419   7.243  17.483 -2.5639  0.0508  2.0348
 1565TIP3    H228891   4.352   7.107  17.477  0.4117 -1.5255  2.5707
 1566TIP3   OH228892   4.130   6.870  16.816 -0.3911 -0.4059 -0.2147
 1566TIP3    H128893   4.184   6.880  16.738 -1.4882 -0.6288 -1.0229
 1566TIP3    H228894   4.086   6.785  16.804 -0.0026 -0.8003  1.0034
 1567TIP3   OH228895   4.339   3.188  19.325  0.1179 -0.1702 -0.6194
 1567TIP3    H128896   4.389   3.203  19.245 -0.2959 -0.4547 -0.9376
 1567TIP3    H228897   4.293   3.271  19.340  1.7766  0.5925  0.4774
 1568TIP3   OH228898   5.915   3.007  17.719  0.5484 -0.4589  0.4096
 1568TIP3    H128899   5.874   3.091  17.696  0.4059 -0.2986  1.2133
 1568TIP3    H228900   5.900   2.998  17.813  0.1621 -1.6130  0.2503
 1569TIP3   OH228901   5.449   6.638  17.271  0.0363 -0.0867  0.4796
 1569TIP3    H128902   5.459   6.698  17.198 -2.3837 -1.7152 -1.3509
 1569TIP3    H228903   5.525   6.580  17.266  0.9525  1.0729  0.5922
 1570TIP3   OH228904   4.793   4.865  19.079  0.2078  0.0570 -0.4725
 1570TIP3    H128905   4.734   4.805  19.124  0.2034 -0.7525 -1.5248
 1570TIP3    H228906   4.760   4.868  18.989 -0.1491  2.0964 -0.3390
 1571TIP3   OH228907   6.732   2.940  19.143  0.4153  0.1186 -0.4404
 1571TIP3    H128908   6.726   3.019  19.088  1.0792  0.5592  0.1027
 1571TIP3    H228909   6.795   2.884  19.097  1.5058  0.7807  0.1949
 1572TIP3   OH228910   0.511   2.711  18.598  0.0963 -0.1346  0.1599
 1572TIP3    H128911   0.484   2.767  18.670 -1.3362 -1.1288  0.4429
 1572TIP3    H228912   0.454   2.736  18.525  1.0769  0.4012 -0.4399
 1573TIP3   OH228913   5.059   1.517  17.438  0.2437 -0.4150  0.0145
 1573TIP3    H128914   5.147   1.483  17.455  0.1610 -1.0408 -0.7563
 1573TIP3    H228915   5.070   1.612  17.437  1.6222 -0.4482 -3.4065
 1574TIP3   OH228916   7.281   2.487  19.552 -0.4901 -0.1988  0.3556
 1574TIP3    H128917   7.326   2.570  19.557 -2.0678  0.6705  0.8126
 1574TIP3    H228918   7.235   2.490  19.468 -1.5889 -0.0292  0.9448
 1575TIP3   OH228919   5.598   6.249  16.536 -0.1550  0.8702 -0.3721
 1575TIP3    H128920   5.554   6.228  16.618 -1.4870 -0.7525 -1.4122
 1575TIP3    H228921   5.581   6.173  16.480  1.8361  1.3313 -1.7248
 1576TIP3   OH228922   5.251   0.195  18.051 -0.3769  0.5989  0.7493
 1576TIP3    H128923   5.345   0.201  18.070 -0.3286 -0.4456  0.9517
 1576TIP3    H228924   5.211   0.260  18.109  0.3026  1.9167 -0.2112
 1577TIP3   OH228925   5.179   7.414  17.659 -0.0735  0.1862 -0.1806
 1577TIP3    H128926   5.265   7.447  17.684 -0.2003  0.8614 -0.6178
 1577TIP3    H228927   5.170   7.437  17.566 -0.6930  0.0579 -0.1586
 1578TIP3   OH228928   4.222   2.738  17.156 -0.5615 -0.1592  0.3798
 1578TIP3    H128929   4.287   2.672  17.134 -1.5829 -0.7046 -1.1758
 1578TIP3    H228930   4.154   2.729  17.088  0.1439  3.7417 -1.1121
 1579TIP3   OH228931   1.060   2.850  18.811 -0.6220 -0.0773 -0.1621
 1579TIP3    H128932   0.992   2.850  18.744 -0.5179  0.4864 -0.2704
 1579TIP3    H228933   1.013   2.862  18.893 -0.6681  0.1592 -0.2234
 1580TIP3   OH228934   7.429   7.181  19.236 -0.5381  0.2268 -0.0105
 1580TIP3    H128935   7.515   7.175  19.194  0.8618  0.3696  2.6291
 1580TIP3    H228936   7.446   7.167  19.329 -3.5598 -0.8992  0.5061
 1581TIP3   OH228937   5.488   5.203  16.942  0.6212  0.3049 -0.0279
 1581TIP3    H128938   5.538   5.252  16.876  0.3228  0.0758 -0.4227
 1581TIP3    H228939   5.408   5.254  16.954  1.0887  0.8773  0.8812
 1582TIP3   OH228940   6.318   1.073  18.933 -0.1751 -0.2886  0.1945
 1582TIP3    H128941   6.225   1.085  18.954  0.1922  1.5082  0.9937
 1582TIP3    H228942   6.358   1.157  18.954  1.6286 -0.9949 -0.2518
 1583TIP3   OH228943   0.304   0.643  18.752  0.3226 -0.3202  0.9848
 1583TIP3    H128944   0.226   0.690  18.722  0.3478 -0.3168  0.9243
 1583TIP3    H228945   0.276   0.552  18.758  0.6533 -0.5234 -0.2499
 1584TIP3   OH228946   2.482   5.193  18.684 -0.4653 -0.3702 -0.1771
 1584TIP3    H128947   2.450   5.176  18.773  1.2848  1.5173  0.8895
 1584TIP3    H228948   2.474   5.287  18.672 -0.1184 -0.5088 -1.8106
 1585TIP3   OH228949   6.734   7.557  18.194 -0.0722  0.0609  0.7711
 1585TIP3    H128950   6.656   7.612  18.191 -0.0024  0.3759  3.0695
 1585TIP3    H228951   6.801   7.607  18.148 -0.9549  0.2164 -0.3745
 1586TIP3   OH228952   6.592   5.486  17.634  0.1345  0.2580  0.1596
 1586TIP3    H128953   6.534   5.519  17.565 -0.5677 -2.9439 -0.9437
 1586TIP3    H228954   6.533   5.466  17.707  0.2397 -0.4447  0.0548
 1587TIP3   OH228955   0.287   2.552  19.588 -0.3923  0.0855  0.2322
 1587TIP3    H128956   0.271   2.641  19.622  2.8867  0.6448  0.6300
 1587TIP3    H228957   0.273   2.559  19.494  2.5689  1.9331 -0.2115
 1588TIP3   OH228958   1.241   0.928  17.406 -0.1438 -0.1958 -0.3575
 1588TIP3    H128959   1.239   0.966  17.318  0.3245  1.2979  0.2416
 1588TIP3    H228960   1.150   0.932  17.435  0.0635  1.8353  0.2037
 1589TIP3   OH228961   7.193   6.537  18.737 -0.5992  0.2384  0.0210
 1589TIP3    H128962   7.220   6.623  18.705  0.6139 -0.0234  0.3087
 1589TIP3    H228963   7.173   6.551  18.829  0.3215  0.0826  0.2576
 1590TIP3   OH228964   7.310   3.503  17.963 -0.0459 -0.3045 -0.3057
 1590TIP3    H128965   7.338   3.569  17.899  0.0939  0.6356  0.6893
 1590TIP3    H228966   7.392   3.463  17.994 -0.1116 -0.7453 -0.6980
 1591TIP3   OH228967   4.014   6.440  18.562  0.5787 -0.4680 -0.1675
 1591TIP3    H128968   4.085   6.503  18.572  1.7925 -1.7748 -0.2751
 1591TIP3    H228969   3.934   6.493  18.564  1.4962  0.9339  0.9227
 1592TIP3   OH228970   5.126   5.297  19.527  0.0432 -0.3140  0.1589
 1592TIP3    H128971   5.146   5.226  19.466 -3.4413 -1.6310  0.3329
 1592TIP3    H228972   5.150   5.263  19.613 -2.9157 -2.0778  0.4324
 1593TIP3   OH228973   3.009   6.536  17.188  0.4032 -0.0797 -0.4261
 1593TIP3    H128974   2.917   6.514  17.173  0.4529  0.1682 -1.1277
 1593TIP3    H228975   3.049   6.529  17.102  1.2924 -1.3042  0.0605
 1594TIP3   OH228976   1.342   3.785  17.842 -0.5236 -0.1772  0.1557
 1594TIP3    H128977   1.427   3.820  17.814  0.2491 -2.0318  0.0292
 1594TIP3    H228978   1.364   3.710  17.896 -2.0883 -1.5000 -0.9712
 1595TIP3   OH228979   0.286   1.806  17.809 -0.0502 -0.4281 -0.0113
 1595TIP3    H128980   0.259   1.766  17.891 -0.5183  0.8797  0.4973
 1595TIP3    H228981   0.381   1.795  17.808 -0.0388 -0.4575  0.7031
 1596TIP3   OH228982   3.938   3.729  17.812 -0.5300  0.3077 -0.0143
 1596TIP3    H128983   3.860   3.741  17.866 -1.0292 -0.9535 -0.4172
 1596TIP3    H228984   3.905   3.687  17.732  0.7326 -1.7728  0.4703
 1597TIP3   OH228985   5.202   1.121  17.173  0.0131  0.6133 -0.2882
 1597TIP3    H128986   5.192   1.148  17.264 -3.1241 -1.8888  0.2751
 1597TIP3    H228987   5.113   1.124  17.137  0.5814 -1.8534 -2.1587
 1598TIP3   OH228988   7.075   5.853  17.153  0.0140  0.7615 -0.0043
 1598TIP3    H128989   7.152   5.798  17.140 -0.2942  0.4638 -0.6023
 1598TIP3    H228990   7.084   5.885  17.243  0.4048  0.0589  0.2163
 1599TIP3   OH228991   6.583   1.143  18.310  0.7042 -0.8925  0.1523
 1599TIP3    H128992   6.624   1.225  18.338 -0.7506  0.5243 -1.5912
 1599TIP3    H228993   6.624   1.123  18.226  0.2116 -1.3157  0.0085
 1600TIP3   OH228994   7.557   2.682  17.678 -0.1816  0.2401  0.4948
 1600TIP3    H128995   7.490   2.749  17.662 -0.1271  0.4713  1.1820
 1600TIP3    H228996   7.629   2.706  17.620 -0.3066  0.5638  0.4714
 1601TIP3   OH228997   7.410   5.939  17.930 -0.1874 -0.1294 -0.2677
 1601TIP3    H128998   7.355   6.010  17.895  0.1429  0.4514  0.3761
 1601TIP3    H228999   7.347   5.873  17.958 -0.5687  0.4594  0.3137
 1602TIP3   OH229000   3.536   2.642  18.525 -0.2347 -0.1419 -0.2122
 1602TIP3    H129001   3.600   2.685  18.468  1.2621 -1.1070  0.6473
 1602TIP3    H229002   3.472   2.709  18.545 -0.2607  0.4874 -2.2197
 1603TIP3   OH229003   3.689   1.766  18.701 -0.6600  0.1421 -0.0396
 1603TIP3    H129004   3.782   1.773  18.682 -0.7661  0.2686 -0.5343
 1603TIP3    H229005   3.667   1.847  18.748 -0.7773  0.7124 -1.0398
 1604TIP3   OH229006   6.851   4.943  17.414  0.3150 -0.8355  0.1079
 1604TIP3    H129007   6.798   4.867  17.438 -1.2681  0.3184  0.4494
 1604TIP3    H229008   6.791   5.001  17.368  0.8868  1.1038  1.6381
 1605TIP3   OH229009   3.191   2.014  18.341  0.5397  0.1138 -0.1133
 1605TIP3    H129010   3.263   2.075  18.333  1.0436 -0.5040 -0.3609
 1605TIP3    H229011   3.220   1.950  18.406  0.0476  0.0930  0.0955
 1606TIP3   OH229012   4.909   4.606  18.902  0.4067 -0.3467  0.1051
 1606TIP3    H129013   4.871   4.691  18.877 -0.5654 -0.2876  1.6254
 1606TIP3    H229014   4.928   4.563  18.819  0.5943  1.2188 -0.7013
 1607TIP3   OH229015   1.235   4.194  18.611 -0.1690 -0.2423 -0.4944
 1607TIP3    H129016   1.308   4.231  18.562 -0.7365  2.7717  0.7054
 1607TIP3    H229017   1.275   4.163  18.693  0.1106 -0.9567 -0.8975
 1608TIP3   OH229018   0.234   3.914  18.063 -0.1772 -0.2221 -0.1547
 1608TIP3    H129019   0.217   4.007  18.044  1.2040  0.2226  0.5783
 1608TIP3    H229020   0.180   3.894  18.139  0.7448  0.4848  0.7162
 1609TIP3   OH229021   5.192   2.814  16.589  0.2701  0.2725  0.0647
 1609TIP3    H129022   5.117   2.755  16.598 -0.5767  1.3985  0.6914
 1609TIP3    H229023   5.236   2.810  16.674  2.6002 -2.4721 -1.1177
 1610TIP3   OH229024   5.122   7.579  19.196 -0.3676  0.2443 -0.4565
 1610TIP3    H129025   5.178   7.575  19.274 -0.1222 -0.5573 -0.6630
 1610TIP3    H229026   5.163   7.646  19.141  0.2071 -0.0979 -0.4582
 1611TIP3   OH229027   3.819   2.845  19.447  0.4609  0.1267  0.5924
 1611TIP3    H129028   3.906   2.840  19.487  0.8337  0.3790 -0.1502
 1611TIP3    H229029   3.820   2.930  19.401  0.1202 -0.2233 -0.0701
 1612TIP3   OH229030   6.659   0.543  18.674 -0.7138 -0.4121 -0.5499
 1612TIP3    H129031   6.671   0.543  18.579 -0.4624  2.2528 -0.5970
 1612TIP3    H229032   6.650   0.636  18.697  1.5094 -0.7564  2.2876
 1613TIP3   OH229033   4.283   1.229  18.134  0.6749  0.2612 -0.3900
 1613TIP3    H129034   4.215   1.275  18.085  0.6067  1.0517  0.4212
 1613TIP3    H229035   4.287   1.142  18.094  0.2570  0.7081 -1.4375
 1614TIP3   OH229036   5.184   1.555  18.606 -0.7653  0.2182 -0.2295
 1614TIP3    H129037   5.217   1.471  18.575 -1.5665  0.7575 -2.8399
 1614TIP3    H229038   5.262   1.607  18.623 -0.2710 -0.6754  0.2727
 1615TIP3   OH229039   7.386   2.269  17.216  0.0784  0.5331  0.5779
 1615TIP3    H129040   7.389   2.200  17.283 -0.3441  0.1496  0.2099
 1615TIP3    H229041   7.304   2.315  17.232 -0.2048  0.2023  0.0956
 1616TIP3   OH229042   1.416   7.120  17.286 -0.7309  0.2322 -0.5154
 1616TIP3    H129043   1.495   7.168  17.312  0.3961 -1.2872 -0.9776
 1616TIP3    H229044   1.368   7.181  17.231  0.3746  1.0217 -0.6415
 1617TIP3   OH229045   1.532   5.402  18.250  0.5077  0.0962 -0.1080
 1617TIP3    H129046   1.552   5.397  18.157 -0.5677 -1.4649 -0.2847
 1617TIP3    H229047   1.455   5.458  18.256 -1.2903 -2.1959 -0.5311
 1618TIP3   OH229048   2.159   4.054  18.855 -0.0444 -0.3678  0.0560
 1618TIP3    H129049   2.128   4.105  18.781  1.4824 -1.3146 -1.3085
 1618TIP3    H229050   2.125   4.099  18.932 -1.0136  1.1019 -1.1894
 1619TIP3   OH229051   5.909   7.017  18.926  0.0381 -0.1678 -0.5300
 1619TIP3    H129052   5.950   7.033  18.841  0.4705 -0.3309 -0.3510
 1619TIP3    H229053   5.957   6.943  18.963 -0.0952 -0.0465 -0.1069
 1620TIP3   OH229054   3.918   6.079  19.048  0.1669  0.3020 -0.4230
 1620TIP3    H129055   3.935   6.082  19.142  3.1893 -1.6878 -0.7822
 1620TIP3    H229056   3.934   6.169  19.018  1.2948  0.4946  0.6683
 1621TIP3   OH229057   5.013   3.763  18.119 -0.0463 -0.0441 -0.0338
 1621TIP3    H129058   5.095   3.726  18.153 -0.2079  0.0692  0.4815
 1621TIP3    H229059   4.964   3.687  18.089  0.8118 -0.0230 -1.6509
 1622TIP3   OH229060   0.154   5.744  18.126 -0.2132 -0.3992  0.9248
 1622TIP3    H129061   0.217   5.674  18.110  1.2380  0.6735  1.7759
 1622TIP3    H229062   0.205   5.825  18.122 -1.5178  0.5069  1.6762
 1623TIP3   OH229063   7.147   4.275  18.117 -0.1233  0.3826  0.0434
 1623TIP3    H129064   7.081   4.341  18.138 -2.1077 -1.4026 -0.1640
 1623TIP3    H229065   7.097   4.206  18.073  1.6095 -1.7732  1.2972
 1624TIP3   OH229066   0.915   2.299  17.683  0.2899  0.3212 -0.1284
 1624TIP3    H129067   0.859   2.245  17.627 -0.2098  0.7892 -0.0863
 1624TIP3    H229068   0.901   2.388  17.653  0.8192  0.4724  0.0572
 1625TIP3   OH229069   5.185   3.750  17.789 -0.8094 -0.1432  0.5617
 1625TIP3    H129070   5.123   3.788  17.727 -1.0896 -2.1920 -0.5042
 1625TIP3    H229071   5.136   3.742  17.871 -1.0593  0.7445  0.5125
 1626TIP3   OH229072   5.877   5.607  17.831  0.2721 -0.0622 -0.2976
 1626TIP3    H129073   5.936   5.626  17.759  1.6031 -0.8728  0.5343
 1626TIP3    H229074   5.804   5.559  17.791 -0.6979  2.3131 -1.6000
 1627TIP3   OH229075   1.108   5.858  19.781 -0.0269 -0.3627  0.6529
 1627TIP3    H129076   1.023   5.896  19.804 -0.2879 -0.5894  0.0729
 1627TIP3    H229077   1.168   5.933  19.779 -0.4687 -0.0228 -0.1431
 1628TIP3   OH229078   0.517   0.778  18.854  0.1297  0.3430 -0.0290
 1628TIP3    H129079   0.430   0.741  18.837  0.1824  0.3803 -0.3752
 1628TIP3    H229080   0.500   0.848  18.917 -0.1674  0.7043 -0.4999
 1629TIP3   OH229081   0.864   4.658  18.216  0.0625 -0.1141  0.4695
 1629TIP3    H129082   0.803   4.730  18.234  0.3152 -0.1404  1.5460
 1629TIP3    H229083   0.904   4.641  18.301  3.8852  1.9849 -0.6790
 1630TIP3   OH229084   1.345   4.044  19.293  0.3026 -0.7364  0.5427
 1630TIP3    H129085   1.292   4.024  19.216 -1.1094  0.4970  1.1484
 1630TIP3    H229086   1.353   3.961  19.339 -1.5811 -0.8654  0.6952
 1631TIP3   OH229087   0.875   5.473  19.500  0.4643  0.6642  0.1210
 1631TIP3    H129088   0.841   5.472  19.589  0.4132 -0.6269  0.1070
 1631TIP3    H229089   0.798   5.481  19.444  0.1876 -1.6593  0.1076
 1632TIP3   OH229090   2.193   1.012  17.412 -0.2060  0.3451  0.2652
 1632TIP3    H129091   2.267   0.952  17.401  0.0040 -0.0462  3.1688
 1632TIP3    H229092   2.232   1.099  17.403  0.3429  0.1200  0.4157
 1633TIP3   OH229093   2.547   6.646  17.558  0.1164 -0.3910 -0.6294
 1633TIP3    H129094   2.465   6.692  17.574  0.8191  0.5880  0.3751
 1633TIP3    H229095   2.529   6.555  17.584  0.0172  0.3066  2.0427
 1634TIP3   OH229096   4.316   5.101  18.198 -0.1912 -0.1790  0.0097
 1634TIP3    H129097   4.371   5.047  18.140 -0.8318  1.0857 -1.8971
 1634TIP3    H229098   4.294   5.044  18.271  2.4035 -1.2105  0.0928
 1635TIP3   OH229099   3.602   4.328  18.758 -0.3483 -0.2702 -0.5054
 1635TIP3    H129100   3.696   4.334  18.776 -0.4335  0.1438 -0.1851
 1635TIP3    H229101   3.594   4.254  18.697  0.4559  1.1621 -2.4579
 1636TIP3   OH229102   4.109   7.332  19.327 -0.7620 -0.3321  0.0183
 1636TIP3    H129103   4.190   7.382  19.340  0.3272 -2.0361  0.1351
 1636TIP3    H229104   4.066   7.376  19.253  0.7114  0.0970 -0.6390
 1637TIP3   OH229105   5.111   0.019  17.647  0.4108  0.2952  0.2925
 1637TIP3    H129106   5.086   0.009  17.555 -0.8864  0.2616  0.6235
 1637TIP3    H229107   5.133   0.111  17.657 -2.0439  0.9266  0.5057
 1638TIP3   OH229108   1.353   4.957  18.298 -0.5018 -0.0176  0.2399
 1638TIP3    H129109   1.291   5.013  18.344  1.4749  2.5918 -0.0144
 1638TIP3    H229110   1.329   4.868  18.323 -2.5633  1.0246  2.3138
 1639TIP3   OH229111   4.518   6.365  18.288  0.9180  0.0025  0.2941
 1639TIP3    H129112   4.443   6.400  18.336  0.3945 -0.5318 -0.1247
 1639TIP3    H229113   4.577   6.440  18.276 -0.2169  0.7667 -0.6742
 1640TIP3   OH229114   6.309   2.082  17.004  0.0179 -0.0557  0.2715
 1640TIP3    H129115   6.400   2.098  16.978 -0.3230  2.3571  0.3876
 1640TIP3    H229116   6.260   2.085  16.922 -0.0958 -0.2877  0.3324
 1641TIP3   OH229117   0.482   4.175  17.916 -0.4035 -0.0229 -0.1316
 1641TIP3    H129118   0.532   4.128  17.983  1.0436  1.4806 -0.0790
 1641TIP3    H229119   0.549   4.205  17.854 -1.6335 -0.8403 -1.9484
 1642TIP3   OH229120   2.026   6.680  17.706 -0.5776 -0.3571  0.4704
 1642TIP3    H129121   2.052   6.588  17.702 -2.4030 -0.9548  1.4948
 1642TIP3    H229122   1.983   6.689  17.791 -0.9669  1.3029  0.1258
 1643TIP3   OH229123   4.970   0.825  18.456 -0.1848  0.0201 -0.2798
 1643TIP3    H129124   5.055   0.845  18.495  0.6600  0.7056 -2.3101
 1643TIP3    H229125   4.922   0.907  18.459  0.0027  0.1595 -0.9167
 1644TIP3   OH229126   4.880   3.592  18.707 -0.1406  0.2426  0.5435
 1644TIP3    H129127   4.881   3.667  18.766 -0.4533  0.6866  0.0005
 1644TIP3    H229128   4.808   3.538  18.738  0.6470 -0.2945  1.4852
 1645TIP3   OH229129   6.477   2.573  19.492  0.6763  0.0433  0.1129
 1645TIP3    H129130   6.563   2.613  19.500  0.0452  1.4246  0.3417
 1645TIP3    H229131   6.494   2.479  19.480  2.2754  0.5344 -1.9560
 1646TIP3   OH229132   5.104   6.574  18.498  0.1094  0.1851  0.1613
 1646TIP3    H129133   5.025   6.521  18.510 -0.0788  0.2875 -0.5965
 1646TIP3    H229134   5.079   6.642  18.435  0.8690  0.0646 -0.2894
 1647TIP3   OH229135   5.861   0.868  19.173 -0.0069  0.0828  0.7169
 1647TIP3    H129136   5.935   0.910  19.218 -0.0624  0.8326  0.1163
 1647TIP3    H229137   5.903   0.810  19.109  0.0676  0.9119  0.0064
 1648TIP3   OH229138   2.195   4.223  17.492 -0.2743 -0.3190 -0.5935
 1648TIP3    H129139   2.178   4.178  17.409  1.1560  0.9053 -1.6103
 1648TIP3    H229140   2.112   4.220  17.539 -0.5359 -2.9687 -1.0931
 1649TIP3   OH229141   0.859   3.830  17.379  0.1093 -0.1578 -0.4910
 1649TIP3    H129142   0.784   3.855  17.433  1.3173  1.6602  0.4343
 1649TIP3    H229143   0.876   3.739  17.403 -1.9796 -0.7300 -0.9938
 1650TIP3   OH229144   2.278   0.700  17.918 -0.6180  0.2128  0.0960
 1650TIP3    H129145   2.300   0.756  17.992 -0.4892 -0.0002  0.2161
 1650TIP3    H229146   2.228   0.758  17.860 -0.3686  0.4934  0.1555
 1651TIP3   OH229147   6.942   1.326  19.448 -0.2417 -0.0801  0.3667
 1651TIP3    H129148   6.897   1.243  19.430  1.0862 -0.2980 -2.4753
 1651TIP3    H229149   7.035   1.304  19.445  0.1289  1.3202  0.8388
 1652TIP3   OH229150   7.628   7.011  17.892  0.3972  0.4898  0.2221
 1652TIP3    H129151   7.645   6.961  17.972  1.0257  0.0176 -0.1908
 1652TIP3    H229152   7.576   6.952  17.838  0.7928  0.4247 -0.0994
 1653TIP3   OH229153   2.536   2.828  17.907 -0.0518 -0.9761  0.1226
 1653TIP3    H129154   2.540   2.761  17.975  0.2871 -0.0293  1.0510
 1653TIP3    H229155   2.587   2.791  17.834 -0.0256 -1.7978  0.5446
 1654TIP3   OH229156   5.203   0.127  19.078 -0.2536  0.1742 -0.0367
 1654TIP3    H129157   5.273   0.173  19.032 -0.4388 -0.8557 -1.4014
 1654TIP3    H229158   5.142   0.101  19.009 -1.1073 -0.4567  0.9310
 1655TIP3   OH229159   5.339   0.749  18.661  0.5451  0.4249  0.6794
 1655TIP3    H129160   5.359   0.832  18.704  1.2503 -0.1438  1.4744
 1655TIP3    H229161   5.281   0.704  18.722  2.0236 -0.6376  1.3534
 1656TIP3   OH229162   4.664   7.653  19.175 -0.6212  0.2138 -0.3731
 1656TIP3    H129163   4.732   7.588  19.190 -0.9330  0.3020  1.6223
 1656TIP3    H229164   4.584   7.614  19.210 -0.9969  1.2864  0.0322
 1657TIP3   OH229165   7.084   7.596  19.509 -0.6398  0.2131 -0.8435
 1657TIP3    H129166   7.152   7.602  19.441 -1.1172 -2.8698 -1.7505
 1657TIP3    H229167   7.081   7.503  19.532 -3.7008  0.4188  0.0606
 1658TIP3   OH229168   1.687   4.262  16.927  0.1456  0.0705  0.2167
 1658TIP3    H129169   1.644   4.179  16.945  0.8001 -0.0778  1.2045
 1658TIP3    H229170   1.761   4.264  16.988  0.8219  0.8521 -0.5999
 1659TIP3   OH229171   1.829   5.871  18.820  0.1488  0.1707  0.9005
 1659TIP3    H129172   1.803   5.811  18.750  1.8617 -0.2061  0.5417
 1659TIP3    H229173   1.915   5.839  18.848 -0.7208 -0.0763  3.6146
 1660TIP3   OH229174   1.270   4.901  19.830 -0.3455  0.0102 -0.3135
 1660TIP3    H129175   1.343   4.952  19.867  0.8632 -1.1793 -0.9938
 1660TIP3    H229176   1.210   4.967  19.796 -0.2085  1.0637  1.3415
 1661TIP3   OH229177   3.006   2.491  18.692 -0.1023 -0.0811 -0.5729
 1661TIP3    H129178   3.083   2.438  18.714 -0.1484 -0.5491 -1.4710
 1661TIP3    H229179   2.966   2.513  18.776  2.4173  2.3629  0.1340
 1662TIP3   OH229180   3.287   2.374  18.862  0.2222  0.3474  0.1022
 1662TIP3    H129181   3.206   2.356  18.909 -0.4169  1.3116 -0.5962
 1662TIP3    H229182   3.356   2.360  18.927 -0.5409  0.1093  0.8749
 1663TIP3   OH229183   5.028   6.935  17.314  0.4661  0.0080 -0.7416
 1663TIP3    H129184   5.043   7.025  17.341  0.4315 -0.1302 -0.2435
 1663TIP3    H229185   5.114   6.894  17.318  0.1038 -0.7086  1.8270
 1664TIP3   OH229186   6.117   6.820  18.961 -0.0426 -0.4407  0.1337
 1664TIP3    H129187   6.172   6.767  18.904 -0.0419 -1.5947  1.1507
 1664TIP3    H229188   6.176   6.885  18.999  0.2696 -0.6300 -0.0265
 1665TIP3   OH229189   4.402   5.232  18.571 -0.5652  0.2377 -0.0340
 1665TIP3    H129190   4.411   5.285  18.492 -0.5029 -0.4875 -0.5277
 1665TIP3    H229191   4.372   5.293  18.638  1.8809  1.4575  0.0700
 1666TIP3   OH229192   1.151   1.990  18.652 -0.0021 -0.4084  0.6759
 1666TIP3    H129193   1.155   2.062  18.715  1.4083  0.0846  0.0686
 1666TIP3    H229194   1.132   2.034  18.568  0.8509 -0.7298  0.3060
 1667TIP3   OH229195   2.967   0.108  18.842 -0.2177 -0.3349 -0.2708
 1667TIP3    H129196   3.039   0.143  18.896 -0.5631 -0.2518  0.1422
 1667TIP3    H229197   3.005   0.100  18.754  0.5998 -1.2046  0.1367
 1668TIP3   OH229198   0.845   5.129  17.954  0.2402 -0.3599 -0.3028
 1668TIP3    H129199   0.754   5.106  17.932  0.0888  2.7660 -3.8392
 1668TIP3    H229200   0.837   5.207  18.009  0.6946  0.7297 -1.7243
 1669TIP3   OH229201   3.533   1.461  17.618 -0.4706 -0.2542 -0.1301
 1669TIP3    H129202   3.623   1.455  17.586 -1.1702 -1.2911 -2.0138
 1669TIP3    H229203   3.520   1.555  17.635  0.5666  0.0738 -1.0482
 1670TIP3   OH229204   7.216   6.876  18.385  0.6530 -0.4343  0.7465
 1670TIP3    H129205   7.234   6.859  18.478  1.7001 -0.6368  0.5239
 1670TIP3    H229206   7.261   6.958  18.366 -0.4574  0.1746  0.6639
 1671TIP3   OH229207   1.635   5.208  17.299 -0.6679 -0.0627  0.1187
 1671TIP3    H129208   1.706   5.179  17.242 -0.9720 -1.2668  0.3429
 1671TIP3    H229209   1.620   5.135  17.359 -0.7855  0.9325  1.3558
 1672TIP3   OH229210   2.445   2.730  18.712  0.1554  0.1734 -0.1217
 1672TIP3    H129211   2.353   2.737  18.686 -0.2700  1.9947  1.6652
 1672TIP3    H229212   2.481   2.817  18.696  1.4398 -0.3618 -0.2512
 1673TIP3   OH229213   6.619   1.019  17.590  0.2190  0.3574 -0.1378
 1673TIP3    H129214   6.625   0.990  17.681 -0.4455  0.6776  0.0102
 1673TIP3    H229215   6.585   1.108  17.594 -0.8439  0.0041 -0.7362
 1674TIP3   OH229216   3.689   1.750  17.408  0.0609 -0.4018 -0.2250
 1674TIP3    H129217   3.621   1.740  17.475  0.2110 -1.9345 -0.2536
 1674TIP3    H229218   3.749   1.678  17.425  0.2497 -0.6619 -1.8484
 1675TIP3   OH229219   4.896   7.435  17.178 -0.5931  0.3493  0.0027
 1675TIP3    H129220   4.829   7.501  17.193  1.1343  1.9805  1.1304
 1675TIP3    H229221   4.969   7.484  17.140  0.7014 -0.9406  0.7208
 1676TIP3   OH229222   3.228   6.711  19.050  0.0950 -0.0846 -0.1649
 1676TIP3    H129223   3.186   6.739  18.969 -0.7628  0.3297  0.4103
 1676TIP3    H229224   3.262   6.791  19.089  0.0465 -0.2139  0.1441
 1677TIP3   OH229225   3.220   3.289  18.210 -0.1123  0.1631 -0.4477
 1677TIP3    H129226   3.296   3.284  18.153  0.4424  0.2469  0.2708
 1677TIP3    H229227   3.157   3.228  18.172  0.2913  0.1313 -1.0755
 1678TIP3   OH229228   4.665   6.142  18.375 -0.5176 -0.1872  0.2470
 1678TIP3    H129229   4.684   6.151  18.469 -0.8605 -0.4357  0.3445
 1678TIP3    H229230   4.625   6.226  18.351  0.9033  0.4399 -0.0202
 1679TIP3   OH229231   2.952   7.115  16.735  0.5941  0.1381  0.0555
 1679TIP3    H129232   2.961   7.200  16.693  0.6455  0.4259  0.6399
 1679TIP3    H229233   3.004   7.055  16.681  0.0339  0.3481 -0.7149
 1680TIP3   OH229234   1.338   6.873  19.529  0.4048  0.2421 -0.0749
 1680TIP3    H129235   1.278   6.799  19.524  1.5568 -0.7722  0.4397
 1680TIP3    H229236   1.287   6.948  19.498 -1.2113 -0.5031  0.6431
 1681TIP3   OH229237   5.549   1.803  17.500  0.3656 -0.3946 -0.4982
 1681TIP3    H129238   5.589   1.841  17.578 -0.1473  0.0244 -0.4276
 1681TIP3    H229239   5.540   1.710  17.521  0.0402 -0.2517  0.0378
 1682TIP3   OH229240   4.916   6.130  18.222  0.1174  0.5851  0.1283
 1682TIP3    H129241   4.841   6.129  18.282  0.3121 -0.7375  0.3664
 1682TIP3    H229242   4.955   6.043  18.230  0.9902  0.8639 -0.8709
 1683TIP3   OH229243   0.827   0.856  18.350 -0.3389  0.0672 -0.1054
 1683TIP3    H129244   0.878   0.851  18.270  0.0714  0.0403  0.1553
 1683TIP3    H229245   0.803   0.949  18.358 -1.0212 -0.0558 -0.6516
 1684TIP3   OH229246   4.297   7.285  17.754  0.0266 -0.5095 -0.3119
 1684TIP3    H129247   4.241   7.268  17.678 -1.5450 -0.6759  0.8576
 1684TIP3    H229248   4.317   7.379  17.747 -0.4649 -0.4273 -0.6828
 1685TIP3   OH229249   0.206   4.827  18.129  0.1102 -0.2432 -0.5618
 1685TIP3    H129250   0.194   4.841  18.222  0.3004 -0.9178 -0.4321
 1685TIP3    H229251   0.154   4.750  18.108  0.8673 -0.7019 -0.8052
 1686TIP3   OH229252   4.546   5.876  19.259 -0.6906  0.0903 -0.6516
 1686TIP3    H129253   4.517   5.964  19.235 -1.4097  0.2612  0.7194
 1686TIP3    H229254   4.635   5.889  19.290 -1.0860  0.5106  0.3723
 1687TIP3   OH229255   5.482   4.991  18.056  0.2650  0.1692  0.4034
 1687TIP3    H129256   5.442   5.011  18.141 -0.5540  3.2203 -0.5494
 1687TIP3    H229257   5.572   5.023  18.063 -0.3060  2.1193 -0.3235
 1688TIP3   OH229258   2.899   7.004  19.081 -0.0926 -0.0334  0.0437
 1688TIP3    H129259   2.858   6.918  19.095 -1.6345  0.5350 -0.7633
 1688TIP3    H229260   2.926   7.003  18.990 -0.6079  0.5179 -0.1232
 1689TIP3   OH229261   2.397   6.101  18.662 -0.1102  0.2394 -0.1185
 1689TIP3    H129262   2.424   6.025  18.713 -0.5815 -0.3567 -0.7354
 1689TIP3    H229263   2.474   6.158  18.660 -0.4722  0.9689  2.4457
 1690TIP3   OH229264   6.887   6.853  19.569 -0.6107 -0.7057  0.1835
 1690TIP3    H129265   6.953   6.784  19.570  0.4039  0.2340  0.2421
 1690TIP3    H229266   6.826   6.827  19.499 -0.7508 -2.0831  0.7827
 1691TIP3   OH229267   0.984   7.228  18.147 -0.5249  0.2396 -0.1788
 1691TIP3    H129268   0.896   7.192  18.130  0.3840 -2.1027 -0.2305
 1691TIP3    H229269   0.968   7.303  18.204 -2.7274  1.2327 -1.9131
 1692TIP3   OH229270   4.944   1.129  18.345 -0.5213 -0.2065  0.1816
 1692TIP3    H129271   4.997   1.155  18.420 -0.6991  1.2273 -0.1529
 1692TIP3    H229272   4.871   1.191  18.345 -1.6483 -1.4944  0.0262
 1693TIP3   OH229273   2.553   1.718  19.401 -0.2608 -0.0272  0.3349
 1693TIP3    H129274   2.610   1.751  19.332  1.3973 -0.0790  1.5828
 1693TIP3    H229275   2.485   1.784  19.411 -0.5856 -0.0782 -1.3847
 1694TIP3   OH229276   7.377   0.667  17.441 -0.1866  0.1009 -0.3359
 1694TIP3    H129277   7.472   0.653  17.432 -0.0852 -0.7375  1.5956
 1694TIP3    H229278   7.338   0.612  17.373  0.6871  0.8111 -1.4731
 1695TIP3   OH229279   4.493   6.475  17.957 -0.4847  0.2012  0.0697
 1695TIP3    H129280   4.439   6.445  17.884 -1.4057 -1.8362  1.4819
 1695TIP3    H229281   4.578   6.493  17.918 -0.5609 -2.1050 -1.3445
 1696TIP3   OH229282   7.022   1.686  19.328  0.4007 -0.0405 -0.0404
 1696TIP3    H129283   7.080   1.620  19.363 -0.7369 -0.1415  1.7752
 1696TIP3    H229284   6.934   1.648  19.337 -0.1642  1.1950 -0.1232
 1697TIP3   OH229285   0.302   0.700  17.605  0.2528 -0.4357 -0.9105
 1697TIP3    H129286   0.357   0.645  17.661 -3.2766 -1.4691  1.8585
 1697TIP3    H229287   0.264   0.640  17.541  1.0798  0.0276 -1.8831
 1698TIP3   OH229288   0.157   3.692  17.904  0.2698 -0.6879  0.2413
 1698TIP3    H129289   0.070   3.712  17.939  0.5339  1.4287 -0.2223
 1698TIP3    H229290   0.216   3.706  17.978  0.3078 -1.3673  0.3463
 1699TIP3   OH229291   1.186   5.467  19.408 -0.3317  0.3159  0.1039
 1699TIP3    H129292   1.208   5.389  19.459 -0.1187  1.0600  1.1646
 1699TIP3    H229293   1.099   5.493  19.439  0.0723  1.1474  0.5737
 1700TIP3   OH229294   3.837   6.124  18.631 -0.1047 -0.2672 -0.4276
 1700TIP3    H129295   3.864   6.161  18.547 -0.9122  1.8992  0.2052
 1700TIP3    H229296   3.917   6.125  18.684  0.2343 -0.9291 -0.9213
 1701TIP3   OH229297   0.186   3.467  17.180  0.1705 -0.9454 -0.1715
 1701TIP3    H129298   0.253   3.520  17.136 -0.3979 -0.7035 -0.7627
 1701TIP3    H229299   0.169   3.514  17.262  1.9795 -1.9524  0.8436
 1702TIP3   OH229300   0.183   5.861  17.789 -0.0619  0.2848  0.7412
 1702TIP3    H129301   0.090   5.839  17.795 -0.0607  0.4842  1.6569
 1702TIP3    H229302   0.191   5.943  17.838  0.7470 -0.2043  1.4515
 1703TIP3   OH229303   3.616   2.406  17.700  0.6116 -0.6671 -0.2292
 1703TIP3    H129304   3.532   2.432  17.662  1.6886  1.1165 -1.5369
 1703TIP3    H229305   3.619   2.450  17.785  0.3999 -0.3865 -0.3662
 1704TIP3   OH229306   3.009   5.868  16.859  0.5784  0.2024  0.3957
 1704TIP3    H129307   2.923   5.865  16.818  0.8776  1.0228 -0.3015
 1704TIP3    H229308   3.028   5.777  16.882 -0.7127  0.0876  1.0708
 1705TIP3   OH229309   1.398   5.028  18.652  0.6134  0.5088  0.1826
 1705TIP3    H129310   1.307   5.033  18.680  0.9166 -1.4530  1.7722
 1705TIP3    H229311   1.409   5.101  18.591 -2.4764 -0.2733 -1.4718
 1706TIP3   OH229312   4.996   4.711  17.155 -0.1046 -0.8016 -0.7434
 1706TIP3    H129313   4.947   4.779  17.109 -1.7370 -0.8212  0.8658
 1706TIP3    H229314   5.083   4.749  17.168 -1.1638  1.3482  0.7380
 1707TIP3   OH229315   3.222   4.941  18.879 -0.1094 -0.1752 -0.1452
 1707TIP3    H129316   3.142   4.938  18.826 -0.3766 -1.8481  0.2879
 1707TIP3    H229317   3.275   4.869  18.845 -0.0509 -0.9409  1.4708
 1708TIP3   OH229318   0.828   6.031  17.880 -0.2929  0.2091  0.3987
 1708TIP3    H129319   0.752   6.039  17.823 -0.5749 -0.0291  0.7372
 1708TIP3    H229320   0.900   6.072  17.831 -0.8442  1.2748  0.4609
 1709TIP3   OH229321   6.053   5.044  18.224 -0.1779 -0.0102  0.4198
 1709TIP3    H129322   5.993   4.975  18.195 -0.9485  0.4077  0.9642
 1709TIP3    H229323   6.000   5.099  18.282  0.9499 -0.0985  1.6032
 1710TIP3   OH229324   3.084   6.093  17.872  0.3029  0.4475  0.3085
 1710TIP3    H129325   3.027   6.123  17.943 -0.0278  0.4375  0.0490
 1710TIP3    H229326   3.093   5.999  17.886 -0.8978  0.1971 -0.4542
 1711TIP3   OH229327   2.568   2.954  18.616 -0.1878  0.4417  0.5952
 1711TIP3    H129328   2.519   2.988  18.541  0.3969 -2.2335 -1.1486
 1711TIP3    H229329   2.660   2.965  18.591  0.0137 -1.0969  0.5519
 1712TIP3   OH229330   1.489   6.343  18.819 -0.2785 -0.3454 -0.2556
 1712TIP3    H129331   1.470   6.405  18.748 -0.1890  0.8302  0.7153
 1712TIP3    H229332   1.407   6.296  18.832 -0.8238  0.6503  0.0096
 1713TIP3   OH229333   2.707   0.308  17.698 -0.1126 -0.2337  0.4625
 1713TIP3    H129334   2.719   0.279  17.608  1.4500  0.6336  0.3498
 1713TIP3    H229335   2.758   0.245  17.750  1.4354  0.9301  0.4241
 1714TIP3   OH229336   1.792   7.572  18.546 -0.4389 -0.1615 -0.1671
 1714TIP3    H129337   1.710   7.526  18.532  0.4196 -2.0003  0.5775
 1714TIP3    H229338   1.819   7.549  18.635  1.1104 -0.0068 -0.5619
 1715TIP3   OH229339   7.357   6.277  18.384 -0.2706  0.1703  0.2305
 1715TIP3    H129340   7.285   6.281  18.321 -0.9224 -2.2428  0.7016
 1715TIP3    H229341   7.315   6.290  18.469 -0.5111 -2.5475  0.6386
 1716TIP3   OH229342   5.198   1.201  17.451 -0.0580 -0.0935 -0.0205
 1716TIP3    H129343   5.225   1.289  17.478  1.5359  0.0075 -1.7103
 1716TIP3    H229344   5.279   1.160  17.420 -0.9107 -1.8969  0.0469
 1717TIP3   OH229345   2.063   3.983  17.981 -0.2299 -0.6858  0.7805
 1717TIP3    H129346   2.053   4.078  17.981  0.5169 -0.5781 -0.7159
 1717TIP3    H229347   2.023   3.955  17.898  0.3923 -1.5605  0.7638
 1718TIP3   OH229348   4.601   0.762  19.178  0.2906  0.0950  0.1357
 1718TIP3    H129349   4.513   0.795  19.199 -0.5803 -0.2184 -2.6611
 1718TIP3    H229350   4.658   0.838  19.190 -0.9624  1.3911 -1.5902
 1719TIP3   OH229351   5.017   4.069  17.129 -0.0955 -0.1137 -0.3703
 1719TIP3    H129352   5.015   3.977  17.103  0.3177 -0.0547 -0.6259
 1719TIP3    H229353   5.089   4.106  17.078  0.5624  0.0666  0.6592
 1720TIP3   OH229354   4.154   3.302  16.652  0.1225 -0.2234  0.0526
 1720TIP3    H129355   4.220   3.322  16.585 -1.1698 -0.3873 -1.3263
 1720TIP3    H229356   4.072   3.331  16.614 -0.6108  0.0858  1.7912
 1721TIP3   OH229357   4.826   5.152  17.802 -0.3873  0.3586  0.8293
 1721TIP3    H129358   4.868   5.097  17.736  0.6950  1.5212  0.5196
 1721TIP3    H229359   4.845   5.109  17.885 -0.9144 -0.5766  0.4859
 1722TIP3   OH229360   0.971   1.721  19.036  0.3282 -0.2670 -0.4780
 1722TIP3    H129361   1.040   1.711  18.970  0.7402 -0.1111 -0.0779
 1722TIP3    H229362   0.910   1.783  18.997  0.1681 -0.7585 -1.0327
 1723TIP3   OH229363   7.265   6.463  19.688  0.5841  0.2269 -0.0962
 1723TIP3    H129364   7.269   6.558  19.676  0.6185  0.0751 -1.4081
 1723TIP3    H229365   7.283   6.427  19.601 -4.3162 -0.8723 -0.9566
 1724TIP3   OH229366   1.159   5.713  18.791 -0.1415 -0.3974 -0.0269
 1724TIP3    H129367   1.098   5.651  18.751 -0.3133  0.2962 -0.8453
 1724TIP3    H229368   1.245   5.681  18.766 -0.1232 -1.4412  1.2186
 1725TIP3   OH229369   0.652   3.445  16.783 -0.1811 -0.0398  0.2986
 1725TIP3    H129370   0.663   3.482  16.695  0.9607  0.1893  0.5228
 1725TIP3    H229371   0.741   3.443  16.819 -0.5886 -0.5029  1.3035
 1726TIP3   OH229372   0.545   7.033  18.969 -0.7942 -0.5788 -1.1889
 1726TIP3    H129373   0.468   6.988  19.004 -0.6742 -0.6606 -1.0274
 1726TIP3    H229374   0.606   6.962  18.948 -0.8856 -0.5313 -1.6130
 1727TIP3   OH229375   2.170   4.841  18.435 -0.3764  0.3310 -0.5435
 1727TIP3    H129376   2.246   4.841  18.494 -0.8559 -2.7413  0.2260
 1727TIP3    H229377   2.195   4.780  18.365 -0.4689  2.6753 -2.7874
 1728TIP3   OH229378   3.505   4.635  19.329  0.0340 -0.3345 -0.5270
 1728TIP3    H129379   3.556   4.611  19.407 -1.1276  0.3216  0.4804
 1728TIP3    H229380   3.456   4.556  19.307  0.1132 -0.4253 -0.3800
 1729TIP3   OH229381   7.050   3.703  18.529  0.1143  0.3716  0.4190
 1729TIP3    H129382   6.982   3.766  18.552  1.1468  1.8205 -0.3428
 1729TIP3    H229383   7.012   3.618  18.551 -1.0142  1.2821  2.2337
 1730TIP3   OH229384   4.031   1.379  17.644  0.3050  0.2834  0.0498
 1730TIP3    H129385   4.126   1.380  17.642  0.3349 -0.6693  0.6402
 1730TIP3    H229386   4.008   1.293  17.679 -0.7605  0.7017  0.4297
 1731TIP3   OH229387   3.635   4.962  18.059  0.4131 -0.7758  0.7251
 1731TIP3    H129388   3.616   5.055  18.070 -0.9969 -0.8495 -0.8572
 1731TIP3    H229389   3.722   4.961  18.019 -0.4327 -0.0164 -1.2445
 1732TIP3   OH229390   7.334   4.819  17.207  0.4595  0.3185 -0.5087
 1732TIP3    H129391   7.264   4.755  17.216  0.8373 -0.2794 -1.5841
 1732TIP3    H229392   7.393   4.781  17.142  1.3519  1.1873 -0.2402
 1733TIP3   OH229393   4.739   1.053  19.210  0.1191  0.2726  0.2974
 1733TIP3    H129394   4.710   1.140  19.181 -0.7704 -0.6263 -1.7567
 1733TIP3    H229395   4.698   1.040  19.295 -1.4317  1.0724 -0.2962
 1734TIP3   OH229396   7.647   6.027  17.156  0.0746  0.1461 -0.6185
 1734TIP3    H129397   7.665   6.043  17.248 -2.0345 -2.4177  0.3654
 1734TIP3    H229398   7.587   6.098  17.131  0.4210  0.6799  0.0230
 1735TIP3   OH229399   3.647   6.418  18.424  0.4879 -0.7110 -0.3232
 1735TIP3    H129400   3.707   6.480  18.383  0.0641 -0.8910 -1.2285
 1735TIP3    H229401   3.664   6.427  18.518 -0.6520  1.8956 -0.3052
 1736TIP3   OH229402   5.034   3.453  18.099 -0.9676  0.3867 -0.1768
 1736TIP3    H129403   5.118   3.498  18.107 -0.7668 -0.0632  0.2280
 1736TIP3    H229404   4.992   3.496  18.024  0.0487 -0.0776 -1.0325
 1737TIP3   OH229405   7.530   2.996  18.506  0.0626  0.5063  0.7906
 1737TIP3    H129406   7.596   3.042  18.456 -0.4745  1.4911  0.9717
 1737TIP3    H229407   7.455   2.988  18.446  0.2031 -0.2846  0.7057
 1738TIP3   OH229408   4.113   6.025  18.080  0.1328  0.5744  0.4735
 1738TIP3    H129409   4.130   6.032  18.174  0.1492 -1.2110  0.6358
 1738TIP3    H229410   4.101   5.931  18.065  0.1599  0.8298 -1.3170
 1739TIP3   OH229411   1.573   2.945  18.449  0.3212 -0.6144  0.3298
 1739TIP3    H129412   1.554   2.985  18.534 -0.2100  0.4032 -0.2488
 1739TIP3    H229413   1.641   3.001  18.411  0.2763 -0.8412 -0.0841
 1740TIP3   OH229414   4.379   4.640  19.114 -0.3925  0.3553 -0.3010
 1740TIP3    H129415   4.317   4.651  19.186 -1.8344  1.1460 -1.6105
 1740TIP3    H229416   4.398   4.546  19.113 -1.2852  0.1554  0.3744
 1741TIP3   OH229417   0.923   3.249  17.843  0.4319 -0.3602 -0.2746
 1741TIP3    H129418   0.866   3.322  17.818  0.8044 -0.6395 -2.1540
 1741TIP3    H229419   0.878   3.206  17.915 -0.0166  1.4479  0.5856
 1742TIP3   OH229420   1.225   0.775  17.955 -0.0329  0.5790  0.3057
 1742TIP3    H129421   1.217   0.683  17.981 -0.9226  0.9652  1.5225
 1742TIP3    H229422   1.293   0.810  18.012  0.6298  0.5796 -0.4729
 1743TIP3   OH229423   5.080   5.135  17.688 -1.0879 -0.3819  0.2202
 1743TIP3    H129424   5.163   5.113  17.730 -0.5031  0.4115 -0.4917
 1743TIP3    H229425   5.039   5.198  17.748 -0.7124 -0.0172  0.1003
 1744TIP3   OH229426   7.120   1.477  18.138 -0.1162 -0.2105  0.6083
 1744TIP3    H129427   7.065   1.409  18.098 -0.7777  0.3657  0.5254
 1744TIP3    H229428   7.059   1.547  18.161  0.4994  0.1816  1.0850
 1745TIP3   OH229429   2.741   3.797  18.509  0.1055  0.5473 -0.4989
 1745TIP3    H129430   2.816   3.851  18.535 -0.4751  0.7382  0.8494
 1745TIP3    H229431   2.780   3.717  18.474  0.9544  0.3082  0.9067
 1746TIP3   OH229432   5.125   7.337  16.621  0.7252 -0.4568 -0.2173
 1746TIP3    H129433   5.160   7.275  16.684  0.5676 -0.7750 -0.4420
 1746TIP3    H229434   5.094   7.283  16.549  2.3609  0.0023 -1.3052
 1747TIP3   OH229435   5.651   0.759  17.652  0.4027 -0.3410 -0.7949
 1747TIP3    H129436   5.733   0.784  17.695  0.0568  0.3590 -0.5225
 1747TIP3    H229437   5.618   0.685  17.703 -0.4263  0.9923  0.6999
 1748TIP3   OH229438   3.861   7.546  18.629  0.1658 -0.8187 -0.2845
 1748TIP3    H129439   3.909   7.611  18.578 -0.1930 -0.4778 -0.1911
 1748TIP3    H229440   3.769   7.560  18.606 -0.2102  0.5934  1.8164
 1749TIP3   OH229441   6.284   3.408  18.613 -0.6672  0.1963 -0.2839
 1749TIP3    H129442   6.258   3.317  18.625 -0.6945  0.2331 -0.0570
 1749TIP3    H229443   6.377   3.410  18.635 -0.8339  0.3608  0.4166
 1750TIP3   OH229444   1.439   2.924  18.730  0.1072 -0.1546 -0.4128
 1750TIP3    H129445   1.473   3.012  18.715  0.0723 -0.3051 -1.3832
 1750TIP3    H229446   1.384   2.933  18.808 -0.2044  0.7643 -0.7299
 1751TIP3   OH229447   6.385   3.511  18.960  0.2381 -0.4738  0.5683
 1751TIP3    H129448   6.464   3.460  18.976  1.7751  0.8233 -2.1914
 1751TIP3    H229449   6.417   3.596  18.929 -2.1742 -0.2202 -1.5555
 1752TIP3   OH229450   0.968   6.296  17.143 -0.0497  0.4632  0.5305
 1752TIP3    H129451   0.999   6.365  17.084 -1.4623 -0.5992 -1.6105
 1752TIP3    H229452   0.986   6.214  17.096  2.5286 -0.8423  3.4178
 1753TIP3   OH229453   3.446   3.400  17.975  0.1990  0.6207  0.4211
 1753TIP3    H129454   3.371   3.390  17.916  0.0225  1.2304  0.5302
 1753TIP3    H229455   3.520   3.363  17.926 -0.1023  0.3634  0.1562
 1754TIP3   OH229456   7.513   7.458  17.109 -0.5711  0.6113  0.2627
 1754TIP3    H129457   7.592   7.496  17.072 -1.1834  1.7494  0.0865
 1754TIP3    H229458   7.451   7.456  17.036 -0.2723 -1.6631 -0.0058
 1755TIP3   OH229459   2.462   2.714  17.265  0.1265  0.3834  0.2811
 1755TIP3    H129460   2.371   2.738  17.282 -0.2490  0.0044 -1.0710
 1755TIP3    H229461   2.499   2.788  17.218  0.2070  0.1065 -0.0986
 1756TIP3   OH229462   2.593   1.059  18.162  0.3482  0.2529  0.6790
 1756TIP3    H129463   2.516   1.112  18.140 -0.6193 -0.6515  1.7587
 1756TIP3    H229464   2.636   1.108  18.232 -0.0497  0.0688  1.0580
 1757TIP3   OH229465   1.578   0.490  18.652  0.0970  0.0328 -0.1658
 1757TIP3    H129466   1.660   0.462  18.613  2.5982  0.8833  3.8916
 1757TIP3    H229467   1.595   0.579  18.684 -2.4210  0.2790  0.7735
 1758TIP3   OH229468   3.863   5.539  18.168  0.5459 -0.1109  0.1001
 1758TIP3    H129469   3.805   5.599  18.214  1.6678  1.1025  0.0069
 1758TIP3    H229470   3.832   5.540  18.078  1.7411  1.9435 -0.3467
 1759TIP3   OH229471   3.412   5.249  17.180  0.0334  0.4236 -0.6142
 1759TIP3    H129472   3.453   5.327  17.216 -1.1361  0.5360  0.5699
 1759TIP3    H229473   3.474   5.217  17.114  0.6361  2.1984 -0.9601
 1760TIP3   OH229474   3.244   5.136  19.277  0.0458 -0.2624  0.1163
 1760TIP3    H129475   3.184   5.093  19.215  1.4576  0.1391 -1.6145
 1760TIP3    H229476   3.331   5.115  19.244  0.8336  0.7089  1.4907
 1761TIP3   OH229477   4.582   3.984  18.992  0.0387 -0.2129  0.5835
 1761TIP3    H129478   4.578   4.047  18.919 -0.6595 -0.1821  0.6387
 1761TIP3    H229479   4.670   3.995  19.028  0.2866 -0.0067 -0.0600
 1762TIP3   OH229480   3.823   7.244  18.488  0.4162 -0.2317  0.1802
 1762TIP3    H129481   3.742   7.284  18.518  0.0713  0.1965 -1.2215
 1762TIP3    H229482   3.883   7.251  18.562 -1.3780 -2.3210  1.9716
 1763TIP3   OH229483   7.508   6.024  17.491 -0.4075  0.1762 -0.3767
 1763TIP3    H129484   7.419   6.057  17.506 -0.1797  0.4850  0.3179
 1763TIP3    H229485   7.552   6.094  17.442 -0.6403 -0.1189 -1.0224
 1764TIP3   OH229486   7.399   3.733  17.838  0.5937 -0.0587  0.2964
 1764TIP3    H129487   7.327   3.796  17.831  2.1372  1.7093 -0.3466
 1764TIP3    H229488   7.451   3.763  17.912  1.7499 -0.1260 -0.4594
 1765TIP3   OH229489   0.258   7.064  17.689  0.1105 -0.4647 -0.1018
 1765TIP3    H129490   0.255   6.972  17.712 -0.2975 -0.6267 -0.7901
 1765TIP3    H229491   0.192   7.075  17.620  0.7167  0.1656 -0.6042
 1766TIP3   OH229492   7.622   2.422  19.348  0.2639  0.2815  0.0799
 1766TIP3    H129493   7.653   2.342  19.391  2.0300  0.5091 -0.6799
 1766TIP3    H229494   7.574   2.469  19.417  3.1385  0.7274  1.9727
 1767TIP3   OH229495   1.728   1.621  19.212 -0.4121  0.0775 -0.5078
 1767TIP3    H129496   1.678   1.566  19.152 -0.7128 -0.4285  0.1874
 1767TIP3    H229497   1.808   1.572  19.228 -0.1388  0.4166 -0.8367
 1768TIP3   OH229498   2.935   3.318  18.099 -0.2090  0.6090  0.2469
 1768TIP3    H129499   2.964   3.399  18.057  0.6972  0.2292  0.0953
 1768TIP3    H229500   2.930   3.255  18.028  0.0512  0.2910  0.5085
 1769TIP3   OH229501   6.754   3.176  17.498  0.1611 -0.0368  0.3879
 1769TIP3    H129502   6.845   3.171  17.530 -0.1957 -0.9213  1.3308
 1769TIP3    H229503   6.737   3.270  17.489  1.0511  0.1512  0.5574
 1770TIP3   OH229504   6.281   2.163  17.341 -0.2043  0.0915  0.0271
 1770TIP3    H129505   6.297   2.082  17.391 -2.6226  0.2402  1.1918
 1770TIP3    H229506   6.348   2.224  17.372  0.8098 -1.0384  0.1283
 1771TIP3   OH229507   6.303   0.916  17.299  0.0003 -0.0899 -0.1762
 1771TIP3    H129508   6.221   0.867  17.309 -0.7496  1.4632  2.0739
 1771TIP3    H229509   6.322   0.912  17.206 -1.4453 -2.3552 -0.4537
 1772TIP3   OH229510   0.368   3.438  19.603  0.5808 -0.0617 -0.1240
 1772TIP3    H129511   0.288   3.396  19.572  0.8484  1.0888 -2.6348
 1772TIP3    H229512   0.403   3.379  19.669 -0.9179 -1.9330 -0.9258
 1773TIP3   OH229513   4.646   0.179  19.610 -0.5554 -0.7510 -0.1427
 1773TIP3    H129514   4.568   0.144  19.567  0.4535 -1.9946 -1.0735
 1773TIP3    H229515   4.634   0.160  19.703 -1.4652 -0.6870 -0.2421
 1774TIP3   OH229516   0.762   3.147  17.623  1.0149 -0.2889 -0.2599
 1774TIP3    H129517   0.844   3.137  17.671  1.3354 -0.0394 -0.7563
 1774TIP3    H229518   0.782   3.209  17.553  0.7746 -1.2522 -1.2136
 1775TIP3   OH229519   3.578   7.519  18.549 -0.4171  0.0076  0.1519
 1775TIP3    H129520   3.571   7.566  18.632 -0.5252  0.2721 -0.0072
 1775TIP3    H229521   3.516   7.446  18.558 -1.5905  0.9210 -0.2937
 1776TIP3   OH229522   6.872   4.905  18.735 -0.0817  0.0230 -0.2653
 1776TIP3    H129523   6.871   4.969  18.664  1.8885 -0.2365 -0.5850
 1776TIP3    H229524   6.965   4.884  18.747 -0.6081 -2.3110  0.2413
 1777TIP3   OH229525   5.120   3.336  19.437 -0.0962  0.3100 -0.0114
 1777TIP3    H129526   5.164   3.288  19.507 -2.1007  0.6957  1.5971
 1777TIP3    H229527   5.092   3.418  19.477 -1.9620  0.2201 -1.0203
 1778TIP3   OH229528   2.571   0.015  17.369  0.1620 -0.6529  0.1169
 1778TIP3    H129529   2.479   0.012  17.395  0.8529 -1.3224  2.7374
 1778TIP3    H229530   2.598   0.105  17.387  0.7109 -1.1843  2.2089
 1779TIP3   OH229531   5.312   6.122  17.870 -0.3063  0.0218 -0.2689
 1779TIP3    H129532   5.364   6.182  17.923 -0.4275 -0.1844  0.0856
 1779TIP3    H229533   5.344   6.035  17.893 -2.4849 -0.3297  1.8781
 1780TIP3   OH229534   6.584   6.002  17.829  0.4270 -0.0627  0.2414
 1780TIP3    H129535   6.492   5.999  17.854  0.2486  1.0180 -0.2106
 1780TIP3    H229536   6.592   5.939  17.757  0.0032 -0.0474  0.1798
 1781TIP3   OH229537   3.874   7.590  17.937 -0.4244  0.2758  0.5060
 1781TIP3    H129538   3.929   7.589  17.859 -0.9768 -1.6032  0.0832
 1781TIP3    H229539   3.862   7.683  17.957  0.8249  0.7660 -0.8446
 1782TIP3   OH229540   3.693   7.507  18.315  0.0438 -0.2383  0.4774
 1782TIP3    H129541   3.716   7.416  18.329  0.2166 -0.4714 -1.1953
 1782TIP3    H229542   3.646   7.532  18.394 -1.0863 -2.1247  0.4523
 1783TIP3   OH229543   4.915   4.963  16.962  0.0523  0.4456  0.3167
 1783TIP3    H129544   4.834   5.000  16.996 -0.7723 -1.3257  0.3918
 1783TIP3    H229545   4.929   5.007  16.878 -0.7251  1.0961  0.5213
 1784TIP3   OH229546   5.099   6.321  18.643  0.5577 -0.2802  0.0590
 1784TIP3    H129547   5.175   6.373  18.668 -0.3879  1.8707 -1.2526
 1784TIP3    H229548   5.133   6.256  18.582  1.3283  0.8467 -0.7420
 1785TIP3   OH229549   0.740   3.224  17.251  0.2308  0.0791 -0.0285
 1785TIP3    H129550   0.654   3.220  17.209  0.8248 -0.5390 -1.2542
 1785TIP3    H229551   0.766   3.132  17.260  0.7021  0.2554  0.4718
 1786TIP3   OH229552   0.969   4.247  19.017  0.4461  0.0040  0.2773
 1786TIP3    H129553   0.953   4.207  19.103 -0.9253 -0.1119 -0.0150
 1786TIP3    H229554   0.993   4.173  18.961 -0.3209 -0.1664  0.1658
 1787TIP3   OH229555   5.878   5.991  18.311 -0.7861  0.3463 -0.1634
 1787TIP3    H129556   5.850   5.996  18.220  0.7398  0.7883 -0.6500
 1787TIP3    H229557   5.799   5.969  18.360 -1.6791  0.3266 -1.5635
 1788TIP3   OH229558   3.539   7.075  19.188  0.4684  0.0589  0.0984
 1788TIP3    H129559   3.617   7.021  19.201  1.1116  0.5551 -1.4576
 1788TIP3    H229560   3.527   7.077  19.094 -0.6527  1.0899  0.2411
 1789TIP3   OH229561   0.198   3.178  17.189  0.0486  0.0207 -0.3862
 1789TIP3    H129562   0.169   3.266  17.169 -0.4542 -0.1145 -0.2567
 1789TIP3    H229563   0.222   3.140  17.104  0.6162  0.3988 -0.4030
 1790TIP3   OH229564   0.302   6.418  18.651 -0.3764  0.1135  0.1864
 1790TIP3    H129565   0.293   6.497  18.704  0.3711 -0.6398  1.4768
 1790TIP3    H229566   0.270   6.444  18.564 -1.7210  1.3547  1.0027
 1791TIP3   OH229567   6.682   6.439  19.133  0.4162  0.5821 -0.0047
 1791TIP3    H129568   6.627   6.362  19.116  2.0567 -0.8585  0.8688
 1791TIP3    H229569   6.686   6.446  19.228  2.1987  0.2560 -0.0145
 1792TIP3   OH229570   6.017   0.434  18.003  0.0569  0.1179 -0.5046
 1792TIP3    H129571   6.054   0.399  17.922  0.3089 -0.5735 -0.1035
 1792TIP3    H229572   5.931   0.393  18.009  0.1596 -0.0669 -0.2760
 1793TIP3   OH229573   6.670   4.117  18.336 -0.1947  0.3252 -0.0429
 1793TIP3    H129574   6.606   4.179  18.371 -0.1742  0.5051 -0.3207
 1793TIP3    H229575   6.653   4.036  18.383  0.3305  0.7625  0.9368
 1794TIP3   OH229576   6.927   7.402  19.255 -0.2060  0.6286  0.1861
 1794TIP3    H129577   6.914   7.417  19.349 -0.7604 -0.9499  0.3931
 1794TIP3    H229578   6.842   7.369  19.224  0.3053  0.0251 -0.6153
 1795TIP3   OH229579   4.808   1.008  17.622  0.4320  0.0110 -0.1362
 1795TIP3    H129580   4.836   0.918  17.640  0.1192  0.2059  1.4919
 1795TIP3    H229581   4.888   1.060  17.635  0.2023  0.1534  0.8036
 1796TIP3   OH229582   1.753   7.658  17.014 -0.2074  0.3133 -0.4671
 1796TIP3    H129583   1.732   7.727  16.951 -0.6569  0.5512 -0.0639
 1796TIP3    H229584   1.791   7.705  17.088  2.4489 -0.1507 -1.4307
 1797TIP3   OH229585   4.357   0.927  18.080  0.0849 -0.2548  0.0704
 1797TIP3    H129586   4.341   0.867  18.152 -0.3713 -0.0261  0.1648
 1797TIP3    H229587   4.327   0.880  18.002  2.4292 -1.3198 -0.2800
 1798TIP3   OH229588   2.111   0.277  18.618 -0.2466 -0.1726 -0.3051
 1798TIP3    H129589   2.108   0.369  18.644 -0.1706  0.0411 -1.0413
 1798TIP3    H229590   2.024   0.243  18.641 -0.3475  0.1325 -0.2305
 1799TIP3   OH229591   3.868   2.155  19.251 -0.1625 -0.2111 -0.2797
 1799TIP3    H129592   3.962   2.163  19.234  0.1481 -0.6127  1.1313
 1799TIP3    H229593   3.844   2.070  19.213 -0.3130  0.5340 -1.9736
 1800TIP3   OH229594   1.006   5.785  17.994  0.0918  0.2377  0.2266
 1800TIP3    H129595   0.994   5.863  18.049  0.9437  0.4240  0.1571
 1800TIP3    H229596   1.062   5.815  17.923 -1.1547  0.0454 -0.8671
 1801TIP3   OH229597   0.986   3.637  17.143 -0.6256 -0.5225  0.4728
 1801TIP3    H129598   0.904   3.637  17.193 -0.2860 -2.2778  1.0878
 1801TIP3    H229599   0.970   3.576  17.071 -0.0620 -0.4063  0.2461
 1802TIP3   OH229600   6.867   3.799  16.900  0.1070 -0.4224 -0.3303
 1802TIP3    H129601   6.954   3.806  16.861  0.6588 -0.3306  0.8853
 1802TIP3    H229602   6.831   3.887  16.896  1.2767  0.2124  1.8347
 1803TIP3   OH229603   5.113   6.587  19.279  0.3032 -0.7975  0.0390
 1803TIP3    H129604   5.116   6.494  19.259 -0.7891 -0.9665  0.5345
 1803TIP3    H229605   5.132   6.592  19.373  0.1183 -0.5533  0.0675
 1804TIP3   OH229606   7.358   4.717  19.574 -0.1894 -0.2990 -0.4483
 1804TIP3    H129607   7.359   4.799  19.623  0.3652 -1.9469  2.5084
 1804TIP3    H229608   7.435   4.722  19.517  0.3324  0.8669  0.3107
 1805TIP3   OH229609   1.045   4.623  17.857 -0.2511  0.1224  0.4360
 1805TIP3    H129610   1.129   4.643  17.898 -1.5306  1.2745  2.7100
 1805TIP3    H229611   1.053   4.655  17.767  1.3740  1.1878  0.9191
 1806TIP3   OH229612   6.216   2.748  18.576  0.0238 -0.1421 -0.6764
 1806TIP3    H129613   6.291   2.774  18.631 -0.2977 -0.5936 -0.0060
 1806TIP3    H229614   6.164   2.691  18.633 -1.3037  0.8654 -0.8380
 1807TIP3   OH229615   4.701   2.349  19.628  0.2716  0.4281 -0.1219
 1807TIP3    H129616   4.796   2.344  19.628  0.2427 -2.4663 -1.3396
 1807TIP3    H229617   4.673   2.270  19.676 -1.6254  3.0275  3.5198
 1808TIP3   OH229618   1.031   2.083  19.720  0.1630 -0.2656  0.6865
 1808TIP3    H129619   0.946   2.069  19.762 -0.2802  1.0538  0.2847
 1808TIP3    H229620   1.038   2.178  19.710  1.3459 -0.3944  0.0029
 1809TIP3   OH229621   1.840   3.118  19.154  0.0927 -0.1277  0.0313
 1809TIP3    H129622   1.910   3.120  19.089  1.1329 -0.7708  1.0982
 1809TIP3    H229623   1.881   3.081  19.233 -1.7584 -1.7316  0.3099
 1810TIP3   OH229624   4.669   1.503  18.922  0.3434 -0.3790  0.0058
 1810TIP3    H129625   4.747   1.488  18.975  0.7437 -0.2930 -0.5600
 1810TIP3    H229626   4.608   1.434  18.950  0.4593 -0.1820  0.7534
 1811TIP3   OH229627   1.558   2.473  18.079  0.5203  0.5173  0.0929
 1811TIP3    H129628   1.531   2.510  17.995 -0.0099  0.5545  0.2777
 1811TIP3    H229629   1.516   2.529  18.144  0.1478 -0.0972  0.3794
 1812TIP3   OH229630   0.444   5.776  17.831 -0.4913 -0.3842 -0.5433
 1812TIP3    H129631   0.349   5.791  17.833 -0.5245 -0.6260 -0.1698
 1812TIP3    H229632   0.453   5.680  17.837 -0.2430 -0.4211 -1.3858
 1813TIP3   OH229633   2.066   3.301  17.855 -0.5645 -1.0542  0.2892
 1813TIP3    H129634   2.005   3.370  17.830 -1.6405 -2.0343  0.1358
 1813TIP3    H229635   2.148   3.347  17.871 -1.6954  0.5309  2.0283
 1814TIP3   OH229636   4.014   0.272  17.112  0.1747  0.1236 -0.0995
 1814TIP3    H129637   4.045   0.183  17.096 -1.2284 -0.9571  2.6645
 1814TIP3    H229638   4.072   0.305  17.181 -0.5202  0.6351  0.2485
 1815TIP3   OH229639   2.347   1.158  18.092 -0.0515 -0.2125 -0.0285
 1815TIP3    H129640   2.268   1.204  18.121  0.1845  0.4727 -0.4507
 1815TIP3    H229641   2.348   1.170  17.997 -1.2306 -3.0688 -0.4978
 1816TIP3   OH229642   2.411   1.831  17.693  0.2110 -0.0306 -0.3422
 1816TIP3    H129643   2.368   1.756  17.735 -0.3571 -0.4581 -1.6126
 1816TIP3    H229644   2.499   1.800  17.673  0.8985  0.5742  1.5365
 1817TIP3   OH229645   1.740   1.029  18.095  0.2274  0.1249 -0.6683
 1817TIP3    H129646   1.746   1.056  18.003 -1.3539  0.3401 -0.7212
 1817TIP3    H229647   1.661   0.975  18.100  1.6955 -2.1203  0.0552
 1818TIP3   OH229648   4.051   4.471  16.845  0.7881 -0.3877 -0.1822
 1818TIP3    H129649   3.964   4.480  16.807  0.4513  2.0885  0.9339
 1818TIP3    H229650   4.037   4.431  16.931  0.5856  0.8607  0.3906
 1819TIP3   OH229651   6.581   5.869  19.311  0.5702  0.4740  0.2104
 1819TIP3    H129652   6.578   5.888  19.218 -0.7521  1.1498  0.3572
 1819TIP3    H229653   6.489   5.865  19.338  0.9219  1.1239  1.6367
 1820TIP3   OH229654   0.175   1.690  18.752 -0.0076  0.1036 -0.2571
 1820TIP3    H129655   0.173   1.596  18.770  0.0124 -0.0535 -1.0126
 1820TIP3    H229656   0.096   1.705  18.699  0.5314  0.3070 -1.0237
 1821TIP3   OH229657   1.227   7.111  19.377  0.1307 -0.1206 -0.0455
 1821TIP3    H129658   1.201   7.187  19.429  3.1483  2.5515 -2.0956
 1821TIP3    H229659   1.156   7.048  19.390  0.1014  0.6145  6.3520
 1822TIP3   OH229660   2.924   5.776  17.444 -0.4852  0.4800  0.1251
 1822TIP3    H129661   2.879   5.721  17.507 -2.0998 -0.3506 -1.6691
 1822TIP3    H229662   2.923   5.726  17.362 -0.7587  2.5598 -1.2225
 1823TIP3   OH229663   1.421   5.604  18.864  0.2353 -0.0533 -0.0565
 1823TIP3    H129664   1.466   5.685  18.838  1.2017 -0.1584  1.2213
 1823TIP3    H229665   1.482   5.534  18.838 -0.5870 -0.4033 -1.1388
 1824TIP3   OH229666   1.914   1.913  17.533  0.3477  0.0308  0.4989
 1824TIP3    H129667   1.886   1.838  17.585 -0.5146 -1.2671 -1.6969
 1824TIP3    H229668   2.000   1.936  17.569 -1.1822  0.8313  4.0452
 1825TIP3   OH229669   4.642   2.936  17.024  0.2993  0.1569  0.2535
 1825TIP3    H129670   4.634   2.976  16.937  0.7167 -0.2823  0.0102
 1825TIP3    H229671   4.733   2.905  17.027  0.1270 -0.3029  0.6411
 1826TIP3   OH229672   0.770   5.404  17.998 -0.4573 -0.0808  0.1229
 1826TIP3    H129673   0.734   5.470  18.057 -0.2619 -0.3267  0.5256
 1826TIP3    H229674   0.853   5.442  17.968  0.2909 -0.6693  1.3677
 1827TIP3   OH229675   7.327   4.486  17.448 -0.1388  0.0855  0.2932
 1827TIP3    H129676   7.351   4.569  17.489  0.1966  0.0424  0.1908
 1827TIP3    H229677   7.356   4.495  17.357 -1.3288  0.3696 -0.0679
 1828TIP3   OH229678   4.076   5.127  17.899 -0.2067  0.4210 -0.4219
 1828TIP3    H129679   4.162   5.093  17.873 -1.0248 -0.3395 -2.4166
 1828TIP3    H229680   4.054   5.189  17.830 -0.9998  1.0897  0.4188
 1829TIP3   OH229681   2.423   4.789  18.094  0.1376 -0.1496  0.1916
 1829TIP3    H129682   2.451   4.722  18.031 -2.2250 -1.1720  0.1371
 1829TIP3    H229683   2.432   4.872  18.047  1.4852 -0.5655 -0.3351
 1830TIP3   OH229684   5.108   3.984  18.488  0.5908  0.5943 -0.3375
 1830TIP3    H129685   5.145   3.921  18.549  2.1813  0.8820 -0.9324
 1830TIP3    H229686   5.017   3.959  18.478  0.6581 -0.2905  1.0703
 1831TIP3   OH229687   1.901   4.746  18.440  0.0087  0.6143  0.1186
 1831TIP3    H129688   1.843   4.786  18.504  0.4978 -2.3981  2.6797
 1831TIP3    H229689   1.986   4.789  18.454 -0.0167  0.3381  1.2238
 1832TIP3   OH229690   4.581   4.031  18.205 -0.3203  0.0756 -0.3303
 1832TIP3    H129691   4.674   4.011  18.191 -0.8083 -1.7735 -1.2998
 1832TIP3    H229692   4.545   4.039  18.117 -0.9073  1.8691  0.0387
 1833TIP3   OH229693   5.009   1.814  18.202  0.5337  1.0240 -0.1484
 1833TIP3    H129694   4.995   1.722  18.225 -0.6648  1.1215 -0.3986
 1833TIP3    H229695   5.099   1.832  18.228  1.2548 -0.5882 -1.3641
 1834TIP3   OH229696   3.394   5.369  18.624  0.3218  0.2416 -0.0792
 1834TIP3    H129697   3.401   5.410  18.538  2.0672 -2.8576 -1.5867
 1834TIP3    H229698   3.479   5.384  18.665 -0.1075  0.7224  0.6557
 1835TIP3   OH229699   2.434   4.541  18.989  0.0109 -0.1542 -0.2901
 1835TIP3    H129700   2.522   4.522  18.957 -0.2094  0.5926 -1.4092
 1835TIP3    H229701   2.382   4.553  18.909 -1.0509 -0.3608  0.3556
 1836TIP3   OH229702   5.102   0.832  18.091 -0.8164 -0.2042  0.3306
 1836TIP3    H129703   5.123   0.770  18.161  0.1991  0.6537  0.8024
 1836TIP3    H229704   5.037   0.891  18.131 -0.5193  0.0543  0.4382
 1837TIP3   OH229705   2.827   6.593  18.867  0.4534  0.7029  0.9407
 1837TIP3    H129706   2.779   6.512  18.885  0.3980  0.3955 -0.4797
 1837TIP3    H229707   2.778   6.635  18.796  1.2314  1.3252  0.7536
 1838TIP3   OH229708   5.058   0.299  17.057 -0.3893 -0.6405 -0.1926
 1838TIP3    H129709   5.041   0.240  16.983 -2.8045  0.3327 -0.4862
 1838TIP3    H229710   5.014   0.258  17.131  0.4580 -0.6713  0.3136
 1839TIP3   OH229711   0.308   3.613  19.401 -0.5865  0.3200  0.3175
 1839TIP3    H129712   0.344   3.532  19.438 -1.7016 -0.6525 -0.6281
 1839TIP3    H229713   0.375   3.645  19.341 -0.2538 -0.0506  0.4879
 1840TIP3   OH229714   1.286   6.467  18.644  0.1818  0.1795  0.1401
 1840TIP3    H129715   1.332   6.546  18.672 -0.3669  1.0368 -1.2367
 1840TIP3    H229716   1.207   6.500  18.600 -0.1170 -1.1366 -0.3549
 1841TIP3   OH229717   6.398   7.560  18.422 -0.7352  0.2301 -0.5479
 1841TIP3    H129718   6.308   7.531  18.413 -0.6424  0.6062 -3.7513
 1841TIP3    H229719   6.450   7.479  18.418 -0.8580  0.0814  0.5441
 1842TIP3   OH229720   0.909   3.124  19.728 -0.3684  0.1579  0.3740
 1842TIP3    H129721   0.950   3.210  19.730  0.6052 -0.0663 -2.9029
 1842TIP3    H229722   0.880   3.114  19.637 -0.2835 -3.0300  0.5787
 1843TIP3   OH229723   0.972   1.476  16.770 -0.5955 -0.0954 -0.3146
 1843TIP3    H129724   0.939   1.389  16.747 -1.1429  0.8801 -3.6962
 1843TIP3    H229725   1.052   1.486  16.719 -0.0793  1.1107  0.6675
 1844TIP3   OH229726   4.250   6.794  18.435  0.3663  0.2844 -0.7722
 1844TIP3    H129727   4.270   6.799  18.528 -0.8083  0.5999 -0.5280
 1844TIP3    H229728   4.267   6.882  18.402  2.2778 -0.1893 -1.2045
 1845TIP3   OH229729   1.559   2.613  17.290 -0.0193 -0.2972 -0.8969
 1845TIP3    H129730   1.621   2.682  17.266 -0.2858  0.5905  0.8210
 1845TIP3    H229731   1.473   2.652  17.274 -0.1595 -0.8362 -1.4738
 1846TIP3   OH229732   4.816   5.328  19.071 -0.1988 -0.2949  0.2201
 1846TIP3    H129733   4.747   5.296  19.012  0.8877 -2.1753 -0.1007
 1846TIP3    H229734   4.832   5.418  19.042 -2.7122  0.3444  0.5179
 1847TIP3   OH229735   6.283   1.947  19.226  1.0386  0.4585 -0.0462
 1847TIP3    H129736   6.299   1.856  19.250 -1.4801  0.2695  1.2824
 1847TIP3    H229737   6.203   1.970  19.274  0.1893  2.5938 -2.3113
 1848TIP3   OH229738   1.761   1.558  18.839 -0.3437 -0.3623 -0.0796
 1848TIP3    H129739   1.720   1.633  18.880  1.7931  0.6126  0.4150
 1848TIP3    H229740   1.789   1.589  18.753 -1.0269 -1.1452 -0.6076
 1849TIP3   OH229741   5.035   6.943  17.659  0.2376  0.2237 -0.7513
 1849TIP3    H129742   4.961   7.004  17.656  1.4590  1.7684 -1.1641
 1849TIP3    H229743   5.111   6.997  17.636  1.5754 -1.1838  0.1533
 1850TIP3   OH229744   7.254   6.149  18.904  0.0382  0.3273  0.6426
 1850TIP3    H129745   7.307   6.163  18.982  2.2069 -0.3813 -0.6210
 1850TIP3    H229746   7.279   6.062  18.873 -2.0700 -0.1365  0.0889
 1851TIP3   OH229747   5.183   3.523  18.886  0.6751 -0.2158 -0.2483
 1851TIP3    H129748   5.152   3.550  18.973  0.4712  0.3500 -0.4948
 1851TIP3    H229749   5.196   3.429  18.894  0.3269 -0.2216  0.2991
 1852TIP3   OH229750   4.474   5.338  19.612 -0.3710 -0.3215 -0.4262
 1852TIP3    H129751   4.503   5.429  19.607  1.3093 -0.8274 -0.2820
 1852TIP3    H229752   4.390   5.343  19.659  1.0721  0.9031  2.2371
 1853TIP3   OH229753   1.903   1.201  17.420 -0.1316 -0.2754  0.0114
 1853TIP3    H129754   1.962   1.265  17.460 -1.1123  1.3696 -1.0512
 1853TIP3    H229755   1.919   1.120  17.469  1.9446  0.4703  0.6870
 1854TIP3   OH229756   6.347   0.940  17.041 -0.1177 -0.2137 -0.5896
 1854TIP3    H129757   6.342   0.870  16.975 -0.0538  0.6366 -1.5262
 1854TIP3    H229758   6.269   0.993  17.026  0.8207  1.0407 -1.2264
 1855TIP3   OH229759   0.991   1.489  17.682 -0.3988 -0.1054 -0.1075
 1855TIP3    H129760   0.915   1.486  17.623 -0.0371 -0.6553 -0.5589
 1855TIP3    H229761   1.059   1.440  17.636 -0.1726 -0.7425  0.8756
 1856TIP3   OH229762   0.939   1.492  19.364 -0.2271 -0.6062  0.2863
 1856TIP3    H129763   1.011   1.539  19.407  1.0874 -2.7873  0.5794
 1856TIP3    H229764   0.917   1.548  19.289  0.6678  0.9131  1.1062
 1857TIP3   OH229765   5.648   5.881  19.522  0.1608 -0.2243 -0.1039
 1857TIP3    H129766   5.632   5.831  19.442  0.4786  0.3667 -0.5428
 1857TIP3    H229767   5.739   5.909  19.515 -0.3990  1.6210 -0.5488
 1858TIP3   OH229768   0.786   6.581  17.460 -0.1284 -0.1868  0.5759
 1858TIP3    H129769   0.778   6.499  17.411 -0.0403  1.8369 -3.2599
 1858TIP3    H229770   0.696   6.616  17.462  0.1554  0.6319  0.0259
 1859TIP3   OH229771   7.263   1.071  18.248 -0.1572  0.4200  0.1236
 1859TIP3    H129772   7.174   1.049  18.220  0.4614 -0.3720 -1.3270
 1859TIP3    H229773   7.320   1.022  18.189  1.2600 -0.4350  2.0674
 1860TIP3   OH229774   1.079   2.033  19.008  0.1410  0.1980 -0.1000
 1860TIP3    H129775   1.127   1.958  19.044 -0.2842 -0.1156 -0.1928
 1860TIP3    H229776   1.124   2.109  19.046  0.1825 -0.1135  0.4851
 1861TIP3   OH229777   5.700   4.225  19.226 -0.1918 -0.0701  0.3142
 1861TIP3    H129778   5.611   4.248  19.255 -0.2284  0.0576  0.1000
 1861TIP3    H229779   5.690   4.141  19.181  0.1777 -1.3735  2.5035
 1862TIP3   OH229780   2.815   6.734  19.099  0.4150  0.1126 -0.3435
 1862TIP3    H129781   2.827   6.679  19.021  2.4748 -0.3713  0.2423
 1862TIP3    H229782   2.864   6.688  19.168  0.0923  1.4199  0.7953
 1863TIP3   OH229783   1.018   2.748  18.463  0.2493 -0.7495  0.0635
 1863TIP3    H129784   0.972   2.721  18.384 -0.7123 -0.0213  0.3491
 1863TIP3    H229785   0.948   2.760  18.528  0.8415  0.3400  0.5212
 1864TIP3   OH229786   5.856   7.280  18.545 -0.0908  0.0378 -0.0029
 1864TIP3    H129787   5.880   7.333  18.621 -0.1055 -0.1357  0.1223
 1864TIP3    H229788   5.856   7.190  18.577 -1.7938  0.0925  0.2546
 1865TIP3   OH229789   5.758   6.054  18.622  0.3516  0.3882 -0.0118
 1865TIP3    H129790   5.834   6.002  18.649  1.3793  1.7912 -0.1022
 1865TIP3    H229791   5.702   5.992  18.576  0.7595 -0.9969  1.2922
 1866TIP3   OH229792   3.948   1.870  17.819  0.0087  0.4026 -0.1973
 1866TIP3    H129793   3.856   1.889  17.802 -0.3213  3.8395  3.7304
 1866TIP3    H229794   3.964   1.786  17.776 -5.1981 -0.8938 -0.2427
 1867TIP3   OH229795   6.210   5.922  18.744  0.1273 -0.1336 -0.2351
 1867TIP3    H129796   6.253   5.899  18.662 -0.7340 -0.0211 -0.7305
 1867TIP3    H229797   6.271   5.892  18.812  0.7179 -0.4942 -0.9057
 1868TIP3   OH229798   1.730   6.000  17.583 -0.4645  0.1892 -0.3040
 1868TIP3    H129799   1.718   6.080  17.634  0.4223 -0.3395  0.7710
 1868TIP3    H229800   1.648   5.952  17.594 -0.1549 -0.0743  0.9191
 1869TIP3   OH229801   5.858   5.355  18.657  0.4021  0.6206 -0.2133
 1869TIP3    H129802   5.883   5.415  18.727 -0.0176  1.6391 -0.9064
 1869TIP3    H229803   5.813   5.410  18.593  1.8288 -0.0387 -1.8606
 1870TIP3   OH229804   2.068   6.750  18.777  0.8322  0.1694  0.3932
 1870TIP3    H129805   2.008   6.684  18.744  1.6839 -0.3702 -0.1132
 1870TIP3    H229806   2.075   6.731  18.871 -0.4842  0.8123  0.6343
 1871TIP3   OH229807   0.668   3.540  16.525 -0.5523 -0.1581 -0.3913
 1871TIP3    H129808   0.653   3.631  16.499 -0.1914  0.0797  0.2259
 1871TIP3    H229809   0.581   3.505  16.541 -0.8413 -0.4523 -2.3471
 1872TIP3   OH229810   3.927   6.580  17.547 -0.3401  0.0388  0.1718
 1872TIP3    H129811   3.832   6.565  17.554  0.0481 -2.0776  3.9048
 1872TIP3    H229812   3.935   6.666  17.506 -3.7551 -0.4794 -1.9922
 1873TIP3   OH229813   4.059   1.676  18.881 -0.2636  0.5339  0.1019
 1873TIP3    H129814   4.065   1.769  18.902 -1.1010  0.8278 -0.8997
 1873TIP3    H229815   4.052   1.633  18.966 -1.6370  1.5323  0.5339
 1874TIP3   OH229816   7.255   0.104  19.370 -0.4892 -0.5674 -0.4635
 1874TIP3    H129817   7.220   0.192  19.383  1.6611  0.4700 -1.1023
 1874TIP3    H229818   7.329   0.099  19.431  0.8431 -1.0247 -2.0393
 1875TIP3   OH229819   7.648   0.223  18.619  0.2536  0.4075  0.6459
 1875TIP3    H129820   7.707   0.252  18.549  0.2440  1.6480  1.1273
 1875TIP3    H229821   7.690   0.144  18.655 -0.3231 -0.9577 -1.4822
 1876TIP3   OH229822   0.796   6.978  17.771  0.0859  0.2179 -1.0380
 1876TIP3    H129823   0.822   6.905  17.715  0.3351  0.1056 -0.7801
 1876TIP3    H229824   0.742   7.034  17.715 -0.7429 -0.5497 -1.0354
 1877TIP3   OH229825   0.695   1.812  17.938 -0.5797 -0.3475 -0.4847
 1877TIP3    H129826   0.649   1.810  18.022  0.8262 -0.5041  0.3169
 1877TIP3    H229827   0.629   1.841  17.875 -1.4149  0.7592  0.8439
 1878TIP3   OH229828   6.232   7.357  16.416  0.3817 -0.0852  0.2306
 1878TIP3    H129829   6.146   7.361  16.376  1.2200 -0.1489 -1.6759
 1878TIP3    H229830   6.273   7.279  16.378  1.1635 -0.2589  1.3674
 1879TIP3   OH229831   2.244   5.745  17.343  0.0889 -1.0712 -0.3779
 1879TIP3    H129832   2.152   5.764  17.359  0.1332 -1.5547  0.4531
 1879TIP3    H229833   2.291   5.813  17.391  0.1799 -1.2285 -0.2444
 1880TIP3   OH229834   6.646   5.007  16.181  0.1039 -0.5021 -0.0476
 1880TIP3    H129835   6.692   5.066  16.241  1.0416 -2.0876  0.8577
 1880TIP3    H229836   6.708   4.993  16.110  0.1400 -0.8972  0.0621
 1881TIP3   OH229837   4.816   6.906  18.561 -0.3448  0.0053  0.5169
 1881TIP3    H129838   4.823   6.811  18.558 -1.5301 -0.0982  0.2654
 1881TIP3    H229839   4.762   6.923  18.638 -2.0923  0.3037 -0.7138
 1882TIP3   OH229840   4.078   0.036  18.975 -0.3361 -0.3470 -0.4050
 1882TIP3    H129841   4.080   0.109  19.037 -1.1074 -0.9110  0.3067
 1882TIP3    H229842   3.986   0.030  18.949 -0.0374 -0.1634 -1.5783
 1883TIP3   OH229843   1.931   5.029  17.293  0.2394  0.4001 -0.1828
 1883TIP3    H129844   1.904   5.006  17.204  2.3665 -1.2134 -0.4817
 1883TIP3    H229845   1.936   4.945  17.339  0.9153  1.0394  0.9449
 1884TIP3   OH229846   2.385   2.385  16.937  0.0471  0.2600 -0.2244
 1884TIP3    H129847   2.458   2.437  16.969  0.0702  0.4438 -0.5694
 1884TIP3    H229848   2.310   2.443  16.942  0.4887  1.2027 -2.9003
 1885TIP3   OH229849   4.243   0.868  17.663  0.1161 -0.1929  0.8839
 1885TIP3    H129850   4.252   0.867  17.567  2.6406  1.6862  0.9910
 1885TIP3    H229851   4.275   0.955  17.688 -1.1631 -0.3850  3.4057
 1886TIP3   OH229852   2.454   6.891  18.518 -0.0070 -0.1774  0.0723
 1886TIP3    H129853   2.403   6.885  18.599 -2.3763  2.4465 -1.0426
 1886TIP3    H229854   2.413   6.827  18.460  0.1561 -0.4048  0.2058
 1887TIP3   OH229855   6.356   4.445  17.027  0.0460  0.7178  0.2033
 1887TIP3    H129856   6.261   4.434  17.016  0.1490 -0.0556  0.0368
 1887TIP3    H229857   6.394   4.381  16.967  0.6657  0.5289  0.7912
 1888TIP3   OH229858   0.665   0.722  19.271 -0.3064  0.1827 -0.0244
 1888TIP3    H129859   0.609   0.662  19.321  0.9049 -0.1940  0.9433
 1888TIP3    H229860   0.611   0.800  19.258 -1.0599 -0.1586  0.9070
 1889TIP3   OH229861   6.476   3.836  19.112  0.4946  0.2367 -0.3814
 1889TIP3    H129862   6.385   3.843  19.083 -0.5698  0.6059  2.6319
 1889TIP3    H229863   6.503   3.926  19.131  1.0203  0.0031  0.0085
 1890TIP3   OH229864   2.351   5.642  18.068 -0.0242  0.1536 -0.5758
 1890TIP3    H129865   2.364   5.602  18.154  0.8017  0.9560 -0.3206
 1890TIP3    H229866   2.321   5.569  18.013  4.4105 -1.6865 -0.9447
 1891TIP3   OH229867   1.731   7.093  18.908  0.2112 -0.0740  0.2088
 1891TIP3    H129868   1.770   7.156  18.848  0.1994  1.1105  1.3994
 1891TIP3    H229869   1.688   7.029  18.851  0.5771  0.7530 -1.0347
 1892TIP3   OH229870   6.021   2.922  18.876  0.4925 -0.4760 -0.1149
 1892TIP3    H129871   6.109   2.954  18.898  0.6086 -1.4464  0.9000
 1892TIP3    H229872   6.028   2.827  18.881 -0.6279 -0.5688 -0.0061
 1893TIP3   OH229873   0.044   5.195  18.091 -0.3619  0.3333  0.8994
 1893TIP3    H129874   0.012   5.120  18.042 -0.1405 -0.1328  1.4578
 1893TIP3    H229875   0.129   5.167  18.126 -0.8223  0.3953  2.1317
 1894TIP3   OH229876   2.573   2.285  19.333  0.7741  0.4632  0.1723
 1894TIP3    H129877   2.477   2.279  19.331  0.8365 -1.3096  0.6811
 1894TIP3    H229878   2.592   2.347  19.403 -0.0012  1.2440 -0.2914
 1895TIP3   OH229879   4.051   0.166  16.484 -0.5249  0.1255  0.2258
 1895TIP3    H129880   4.021   0.103  16.419 -0.5012 -1.0341  1.2963
 1895TIP3    H229881   4.131   0.127  16.519  0.9172  1.9608 -0.8196
 1896TIP3   OH229882   6.675   3.822  19.522  0.0091  0.3065 -0.8940
 1896TIP3    H129883   6.747   3.883  19.536  0.2470  0.3878 -2.3114
 1896TIP3    H229884   6.596   3.869  19.550  0.4881  0.1913  0.7292
 1897TIP3   OH229885   2.252   5.952  18.004 -0.2039 -0.0204  0.2187
 1897TIP3    H129886   2.170   5.973  18.050 -0.1992 -0.8663  0.6352
 1897TIP3    H229887   2.254   5.856  18.001  1.8846 -0.1317  2.2949
 1898TIP3   OH229888   0.555   3.164  18.616  0.3358 -0.2071 -0.8289
 1898TIP3    H129889   0.486   3.153  18.551  0.1375  0.4284 -0.7300
 1898TIP3    H229890   0.554   3.082  18.666  0.6522 -0.8042 -1.7662
 1899TIP3   OH229891   4.769   4.117  18.657  0.4809 -0.5584  0.1107
 1899TIP3    H129892   4.822   4.169  18.597  0.9629 -1.4288 -0.2242
 1899TIP3    H229893   4.702   4.077  18.601 -1.4961  1.6566  0.7085
 1900TIP3   OH229894   4.643   6.458  19.606  0.3517 -0.0590  0.2828
 1900TIP3    H129895   4.726   6.473  19.559 -0.2677  0.0457 -0.7958
 1900TIP3    H229896   4.577   6.499  19.551 -0.2184  1.5684  2.0639
 1901TIP3   OH229897   4.301   3.041  16.737 -0.2556 -0.1760 -0.1844
 1901TIP3    H129898   4.216   3.079  16.718  0.0502  1.1953  0.9963
 1901TIP3    H229899   4.303   3.033  16.833  0.1740 -2.0936 -0.3122
 1902TIP3   OH229900   2.051   4.695  18.735 -0.2061 -0.1522  0.1952
 1902TIP3    H129901   2.041   4.694  18.640  1.1517 -1.0591  0.0342
 1902TIP3    H229902   2.076   4.605  18.757 -1.1589 -0.1203  1.5014
 1903TIP3   OH229903   2.691   4.257  17.795 -0.1354 -0.1612  0.1958
 1903TIP3    H129904   2.760   4.321  17.814  0.4152 -0.6436 -0.1310
 1903TIP3    H229905   2.611   4.298  17.827 -0.1907  1.7390 -2.0848
 1904TIP3   OH229906   2.591   5.793  18.545  0.2221 -0.0664  0.5340
 1904TIP3    H129907   2.521   5.854  18.521  0.1512 -0.3635 -0.0295
 1904TIP3    H229908   2.666   5.820  18.494  0.6736  0.5529  1.4995
 1905TIP3   OH229909   5.033   5.849  17.871 -0.5734 -0.8446  0.5890
 1905TIP3    H129910   4.960   5.821  17.816 -1.8531 -0.6867  2.1309
 1905TIP3    H229911   4.998   5.923  17.921  0.8129 -0.4368  0.9897
 1906TIP3   OH229912   1.470   6.162  18.555  0.0797  0.3737 -0.4713
 1906TIP3    H129913   1.533   6.220  18.514  0.8982  1.2336  1.8491
 1906TIP3    H229914   1.384   6.198  18.531  0.5583  1.8533 -0.0549
 1907TIP3   OH229915   5.279   3.009  16.408 -0.0531 -0.1409  0.3986
 1907TIP3    H129916   5.223   2.956  16.465 -0.6648  0.2947  0.2205
 1907TIP3    H229917   5.341   2.947  16.371  0.4465 -0.4097  1.6389
 1908TIP3   OH229918   6.025   2.894  19.535  0.0804 -0.0607 -0.0275
 1908TIP3    H129919   6.016   2.988  19.549  1.8580 -0.2340  3.3409
 1908TIP3    H229920   6.112   2.873  19.567 -1.3419 -3.2590  2.3068
 1909TIP3   OH229921   5.110   5.938  17.151  0.6025  0.6284  0.0003
 1909TIP3    H129922   5.083   5.847  17.147  1.9954  0.2305 -2.6087
 1909TIP3    H229923   5.179   5.940  17.217 -0.9541  0.3112  1.7121
 1910TIP3   OH229924   4.649   1.708  18.682  0.3883 -0.5236 -0.0766
 1910TIP3    H129925   4.634   1.647  18.754 -1.6057 -4.0439 -3.0835
 1910TIP3    H229926   4.743   1.703  18.665  0.9992  0.8608  2.5263
 1911TIP3   OH229927   7.301   5.928  19.327  0.1918  0.0698  0.6163
 1911TIP3    H129928   7.380   5.981  19.333  0.1474  0.0999  0.9469
 1911TIP3    H229929   7.237   5.984  19.283 -0.1256  0.6221  1.7289
 1912TIP3   OH229930   2.445   4.640  17.652  0.4720 -0.1755 -0.3819
 1912TIP3    H129931   2.520   4.692  17.681  0.6611 -0.8390  0.3590
 1912TIP3    H229932   2.484   4.560  17.617  0.0878 -1.1153  1.2325
 1913TIP3   OH229933   7.614   6.327  17.819 -0.3780  0.1491 -0.0440
 1913TIP3    H129934   7.625   6.236  17.789  0.1265 -0.1368  0.9462
 1913TIP3    H229935   7.686   6.375  17.777 -1.0184  0.2348 -1.0754
 1914TIP3   OH229936   0.061   2.795  18.879  0.0409  0.3465 -1.0547
 1914TIP3    H129937   0.105   2.710  18.873 -1.5528 -0.5849 -0.0733
 1914TIP3    H229938   0.036   2.816  18.789  0.1136 -0.4055 -1.2513
 1915TIP3   OH229939   0.224   6.755  17.689  0.2616  0.1243 -0.0911
 1915TIP3    H129940   0.249   6.711  17.770 -0.6194 -0.1738  0.0227
 1915TIP3    H229941   0.307   6.768  17.643  0.5804 -1.3855  0.0022
 1916TIP3   OH229942   0.851   3.142  18.085 -0.2782  0.1225 -0.0184
 1916TIP3    H129943   0.794   3.200  18.135  1.4635  1.2877  0.7369
 1916TIP3    H229944   0.927   3.129  18.141  0.2783 -1.2791 -1.0243
 1917TIP3   OH229945   1.814   1.289  16.959 -0.0969  0.2157 -0.1147
 1917TIP3    H129946   1.865   1.363  16.928 -0.6182  0.9090  0.6270
 1917TIP3    H229947   1.727   1.325  16.978  0.2971  0.0008  2.5775
 1918TIP3   OH229948   1.157   0.317  19.144  0.1096 -0.0288  0.1680
 1918TIP3    H129949   1.156   0.409  19.118 -0.4111  0.1687  0.8282
 1918TIP3    H229950   1.163   0.320  19.240  1.2265 -0.7061  0.1350
 1919TIP3   OH229951   2.127   2.343  18.262 -0.3479  0.1051  0.4339
 1919TIP3    H129952   2.107   2.272  18.201  0.3071  0.5468 -0.3210
 1919TIP3    H229953   2.103   2.309  18.348 -1.8863 -0.3079 -0.1270
 1920TIP3   OH229954   1.164   6.279  19.123  0.5590  0.2898  0.1226
 1920TIP3    H129955   1.134   6.225  19.050  0.9037 -1.1875  1.0164
 1920TIP3    H229956   1.086   6.290  19.178  0.6848 -0.0937  0.3894
 1921TIP3   OH229957   0.350   1.198  17.661 -0.0276 -0.3091  0.7383
 1921TIP3    H129958   0.353   1.274  17.602  0.1572 -0.2250  0.8561
 1921TIP3    H229959   0.260   1.199  17.695 -0.2866 -0.6545  0.0732
 1922TIP3   OH229960   3.713   0.574  18.810  0.2172  0.3141  0.0283
 1922TIP3    H129961   3.757   0.633  18.872  0.5157 -1.1844  1.3190
 1922TIP3    H229962   3.744   0.602  18.724  2.6775  0.2061  0.7986
 1923TIP3   OH229963   7.101   2.181  18.855 -0.0034  0.1427 -0.3039
 1923TIP3    H129964   7.142   2.105  18.896 -0.6012 -0.5917 -1.0078
 1923TIP3    H229965   7.067   2.147  18.772 -0.9589  0.9980 -0.2838
 1924TIP3   OH229966   0.476   1.840  18.118 -0.3307  0.1065  0.1719
 1924TIP3    H129967   0.459   1.921  18.166  1.4322  0.5789  0.0875
 1924TIP3    H229968   0.391   1.813  18.084 -0.6119  3.5104 -2.2745
 1925TIP3   OH229969   6.994   0.211  16.836  0.6343 -0.0116  0.3836
 1925TIP3    H129970   6.947   0.180  16.758  1.2143 -0.5249  0.2328
 1925TIP3    H229971   7.056   0.141  16.856  0.7858  0.3079  1.0589
 1926TIP3   OH229972   3.658   5.250  18.439 -0.1557 -0.5191 -0.1429
 1926TIP3    H129973   3.739   5.234  18.487 -0.0991  2.4999  1.0177
 1926TIP3    H229974   3.595   5.188  18.476  0.4504  0.2552  2.4069
 1927TIP3   OH229975   6.043   0.258  18.741  0.7294  0.2329 -0.5037
 1927TIP3    H129976   6.078   0.175  18.771  1.0415  0.4005 -0.3969
 1927TIP3    H229977   5.948   0.246  18.741  0.7069  0.3047  0.7756
 1928TIP3   OH229978   2.244   6.806  19.845  0.2356  0.0117 -0.1061
 1928TIP3    H129979   2.247   6.834  19.936 -0.1711  0.3089 -0.1801
 1928TIP3    H229980   2.249   6.711  19.849 -0.5738 -0.0240  0.2766
 1929TIP3   OH229981   6.295   3.421  17.759  0.2944 -0.0113  0.3871
 1929TIP3    H129982   6.382   3.390  17.786 -0.0696 -1.3813  0.0606
 1929TIP3    H229983   6.311   3.462  17.674  0.4234 -1.7118 -0.4694
 1930TIP3   OH229984   5.129   4.412  17.515  0.0737 -0.0739  0.4172
 1930TIP3    H129985   5.177   4.416  17.432 -0.5103  1.0519  0.1196
 1930TIP3    H229986   5.077   4.332  17.508 -0.2389  0.1953 -0.4540
 1931TIP3   OH229987   2.449   3.097  18.395 -0.2939  0.3208 -0.2552
 1931TIP3    H129988   2.484   3.185  18.378 -1.8436  0.6050 -2.3278
 1931TIP3    H229989   2.356   3.104  18.373 -0.5020 -1.7954 -0.2378
 1932TIP3   OH229990   2.525   0.666  16.862  0.2161 -0.0958 -0.0445
 1932TIP3    H129991   2.598   0.700  16.810  0.1543 -0.8603 -0.6436
 1932TIP3    H229992   2.546   0.574  16.876  0.5581  0.2338  1.8770
 1933TIP3   OH229993   3.102   6.266  18.475  0.0633  0.1771 -0.1605
 1933TIP3    H129994   3.133   6.216  18.551  0.1166  1.0771  0.4243
 1933TIP3    H229995   3.180   6.311  18.444  0.3496 -1.2252 -1.5994
 1934TIP3   OH229996   5.983   1.715  18.200  0.2831  0.2572 -0.6258
 1934TIP3    H129997   5.905   1.764  18.171 -0.8583 -0.5269  0.9440
 1934TIP3    H229998   5.958   1.680  18.286  3.0703  1.5879  0.8660
 1935TIP3   OH229999   2.707   3.178  18.920  0.2052  0.3943 -0.0414
 1935TIP3    H130000   2.722   3.083  18.921  1.4323  0.5603 -0.8852
 1935TIP3    H230001   2.717   3.203  18.828 -2.4780  1.0117 -0.2480
 1936TIP3   OH230002   4.099   5.480  17.838  0.4875 -0.1146  0.2052
 1936TIP3    H130003   4.007   5.500  17.851  0.3337  0.5172 -1.5583
 1936TIP3    H230004   4.110   5.479  17.743  2.4945  0.7441  0.3880
 1937TIP3   OH230005   3.260   0.621  17.991 -0.0067  0.5875 -0.0507
 1937TIP3    H130006   3.262   0.643  17.898 -0.7032 -1.1040 -0.5008
 1937TIP3    H230007   3.352   0.627  18.018  0.1200  1.7552 -0.6569
 1938TIP3   OH230008   1.730   6.705  18.980  0.0009  0.4695 -0.3075
 1938TIP3    H130009   1.730   6.755  18.898 -1.0601  1.0374  0.0244
 1938TIP3    H230010   1.818   6.716  19.015  0.1801  1.0000 -0.9090
 1939TIP3   OH230011   3.643   3.516  17.336  0.4310  0.3225  0.1407
 1939TIP3    H130012   3.699   3.590  17.361 -0.2600  1.0673 -0.4914
 1939TIP3    H230013   3.561   3.556  17.307  0.3760 -0.6370 -1.0998
 1940TIP3   OH230014   4.742   7.379  18.086 -0.2452  0.4605  0.0273
 1940TIP3    H130015   4.666   7.390  18.030  0.3134  1.3692 -0.5786
 1940TIP3    H230016   4.706   7.360  18.173 -1.2070  2.4096  0.0932
 1941TIP3   OH230017   3.247   6.829  18.107  0.4008 -0.4869 -0.3337
 1941TIP3    H130018   3.180   6.897  18.116 -0.2030 -1.1872  0.6510
 1941TIP3    H230019   3.218   6.777  18.033  0.0814 -0.5259 -0.1844
 1942TIP3   OH230020   4.227   0.864  18.739  0.3559  0.0535 -0.4671
 1942TIP3    H130021   4.250   0.956  18.752 -0.2951  0.2299 -0.5056
 1942TIP3    H230022   4.162   0.846  18.807  2.8544 -1.3199  1.7044
 1943TIP3   OH230023   3.828   0.160  18.060  0.0558  0.0327  0.2466
 1943TIP3    H130024   3.796   0.246  18.033 -1.1796 -0.8153 -1.1594
 1943TIP3    H230025   3.761   0.128  18.120 -1.5915 -1.4987 -2.2394
 1944TIP3   OH230026   0.581   3.761  19.511 -0.1465 -0.2158  0.0814
 1944TIP3    H130027   0.642   3.692  19.534 -1.4065 -1.5501 -0.4013
 1944TIP3    H230028   0.625   3.842  19.535  1.9719 -1.0924 -0.6347
 1945TIP3   OH230029   1.670   0.789  17.298 -0.7020 -0.4634 -0.3842
 1945TIP3    H130030   1.729   0.803  17.224  0.2173  0.6569  0.5183
 1945TIP3    H230031   1.663   0.875  17.340 -1.7589 -0.9242  0.4230
 1946TIP3   OH230032   0.819   5.746  19.496  0.1274 -0.1841  0.2816
 1946TIP3    H130033   0.877   5.670  19.491 -1.5350 -1.5320  0.2744
 1946TIP3    H230034   0.743   5.714  19.546 -0.8100  1.3487 -0.1089
 1947TIP3   OH230035   2.916   3.841  19.236 -0.1280  0.2662 -0.1363
 1947TIP3    H130036   2.965   3.766  19.204 -0.1649 -0.0429  0.5068
 1947TIP3    H230037   2.827   3.827  19.204 -0.5076 -0.7996  1.2785
 1948TIP3   OH230038   5.094   5.090  19.330  0.1008 -0.6424 -0.2035
 1948TIP3    H130039   4.999   5.091  19.316  0.1635  0.2939 -0.6023
 1948TIP3    H230040   5.121   5.003  19.299 -0.8445 -1.6012  1.5027
 1949TIP3   OH230041   1.515   4.427  17.955  0.4648  0.5339 -0.1684
 1949TIP3    H130042   1.513   4.461  17.866 -0.8284 -0.8165 -0.6944
 1949TIP3    H230043   1.439   4.368  17.961 -0.3482  1.6543  2.2587
 1950TIP3   OH230044   1.859   1.063  18.958 -0.4598  0.2673 -0.0005
 1950TIP3    H130045   1.856   1.123  19.033  2.0217  0.4803 -0.0113
 1950TIP3    H230046   1.846   1.120  18.882  0.0870  0.5333  0.0998
 1951TIP3   OH230047   6.390   4.521  17.639  0.4014 -0.5031 -0.3150
 1951TIP3    H130048   6.380   4.551  17.548  1.8503  1.0356 -0.0235
 1951TIP3    H230049   6.358   4.594  17.692 -0.7074 -1.5040  0.4559
 1952TIP3   OH230050   4.509   5.536  18.160  0.4231 -0.2215  0.3171
 1952TIP3    H130051   4.593   5.519  18.119 -0.3126  0.3283 -1.5261
 1952TIP3    H230052   4.461   5.589  18.096 -1.4375 -0.7688  1.1757
 1953TIP3   OH230053   6.743   7.125  16.525  0.0088 -0.1501  0.1161
 1953TIP3    H130054   6.671   7.182  16.498  0.3324  2.0015  3.3236
 1953TIP3    H230055   6.699   7.048  16.563 -0.5414 -0.0258 -0.2547
 1954TIP3   OH230056   3.887   0.933  18.126  0.0988  0.0057 -0.3648
 1954TIP3    H130057   3.859   0.915  18.215  0.3281  0.3429 -0.2223
 1954TIP3    H230058   3.931   1.018  18.132 -0.3136  0.2601 -0.8824
 1955TIP3   OH230059   1.815   5.111  18.440 -0.1503 -0.0324 -0.0334
 1955TIP3    H130060   1.768   5.031  18.466 -2.3958  0.7567 -1.3939
 1955TIP3    H230061   1.756   5.155  18.378  0.7222  2.9839  1.0824
 1956TIP3   OH230062   0.626   2.908  17.803  0.7041 -0.4622 -0.0220
 1956TIP3    H130063   0.565   2.920  17.876  0.7928 -0.4875  0.0551
 1956TIP3    H230064   0.666   2.994  17.791  0.7127 -0.4661 -0.0205
 1957TIP3   OH230065   1.648   3.580  19.417  0.1091 -0.4681  0.2295
 1957TIP3    H130066   1.630   3.498  19.370  1.1767 -0.2224 -0.6576
 1957TIP3    H230067   1.562   3.620  19.428 -0.3126 -1.1909 -0.3258
 1958TIP3   OH230068   0.179   0.406  19.587 -0.6769 -0.1545  0.1947
 1958TIP3    H130069   0.195   0.496  19.560  1.6182  0.1130  2.1093
 1958TIP3    H230070   0.215   0.353  19.515 -2.8172  0.3505 -1.3490
 1959TIP3   OH230071   6.284   2.219  19.186 -0.4359 -0.2467 -0.0689
 1959TIP3    H130072   6.358   2.238  19.128  0.6890  0.6152  1.5734
 1959TIP3    H230073   6.290   2.125  19.203  0.5789 -0.1147  0.3969
 1960TIP3   OH230074   6.241   3.612  18.417  0.0082 -0.0886 -0.1955
 1960TIP3    H130075   6.304   3.679  18.443  0.9952 -0.6952 -0.9847
 1960TIP3    H230076   6.256   3.540  18.479  1.1814 -0.8467 -1.3116
 1961TIP3   OH230077   3.503   0.536  17.591 -0.3457  0.2992 -0.0838
 1961TIP3    H130078   3.474   0.608  17.647 -1.7093  0.4530 -0.9331
 1961TIP3    H230079   3.427   0.478  17.585 -0.1637  0.1606 -1.5456
 1962TIP3   OH230080   3.380   4.789  18.675 -0.4051  0.3734 -0.1381
 1962TIP3    H130081   3.433   4.711  18.655 -0.5832  0.3696 -0.6096
 1962TIP3    H230082   3.445   4.859  18.684  0.1229 -0.3682  3.5788
 1963TIP3   OH230083   5.458   4.377  19.229  0.3028 -0.3688 -0.1762
 1963TIP3    H130084   5.409   4.317  19.173  1.8765 -0.8244 -1.1196
 1963TIP3    H230085   5.396   4.448  19.248 -1.1216 -1.5460 -0.2245
 1964TIP3   OH230086   4.351   5.412  18.765  0.4559 -0.0383 -0.6675
 1964TIP3    H130087   4.296   5.466  18.708  1.4808  1.7375 -0.0383
 1964TIP3    H230088   4.326   5.439  18.854 -0.2118 -1.8522 -0.2562
 1965TIP3   OH230089   6.570   5.593  19.317  0.5446  0.0201 -0.1471
 1965TIP3    H130090   6.509   5.569  19.248 -0.1067  0.5469  0.2368
 1965TIP3    H230091   6.563   5.688  19.324  0.3989 -0.0515  0.8319
 1966TIP3   OH230092   5.167   3.764  19.194 -0.3484  0.1779 -0.6433
 1966TIP3    H130093   5.103   3.693  19.197  1.0047 -1.0706 -0.5744
 1966TIP3    H230094   5.251   3.723  19.214  0.3401  1.9922  0.4629
 1967TIP3   OH230095   1.186   2.698  17.180 -0.1498  0.0164  0.2260
 1967TIP3    H130096   1.198   2.718  17.088 -0.0270  1.0218  0.4563
 1967TIP3    H230097   1.106   2.744  17.205 -0.3988 -0.5633  0.5385
 1968TIP3   OH230098   5.518   1.880  17.874  0.2317  0.0782  0.4247
 1968TIP3    H130099   5.515   1.925  17.790 -2.7115  1.1461  1.0011
 1968TIP3    H230100   5.530   1.950  17.938 -2.2888 -0.0926  1.1763
 1969TIP3   OH230101   7.307   3.486  17.568 -0.2411 -0.2471 -0.3879
 1969TIP3    H130102   7.223   3.531  17.563 -0.7510 -1.0693  0.3608
 1969TIP3    H230103   7.330   3.467  17.477 -1.0934 -0.4087 -0.5767
 1970TIP3   OH230104   5.950   6.869  18.239  0.0345 -0.1696 -0.7869
 1970TIP3    H130105   5.916   6.955  18.263  1.3731  0.0639  0.4235
 1970TIP3    H230106   5.953   6.821  18.322  0.3380 -0.9933 -1.2659
 1971TIP3   OH230107   1.942   5.925  18.166  0.0909 -0.3211 -0.4357
 1971TIP3    H130108   1.988   5.881  18.095  1.8400 -1.1184  1.1348
 1971TIP3    H230109   1.895   5.855  18.211 -0.3433  0.0568 -0.2928
 1972TIP3   OH230110   7.511   7.091  17.511 -0.7144 -0.1876  0.3400
 1972TIP3    H130111   7.503   7.147  17.588  0.7194 -2.3873  2.2338
 1972TIP3    H230112   7.605   7.094  17.489 -1.1889  0.9047 -1.7932
 1973TIP3   OH230113   4.756   3.738  19.607  0.0297 -0.4357  0.0699
 1973TIP3    H130114   4.777   3.655  19.566 -0.3692 -1.1474  1.2436
 1973TIP3    H230115   4.758   3.720  19.701 -3.8729 -0.1668  0.3824
 1974TIP3   OH230116   0.661   0.238  18.382  0.0095 -0.4887  0.3961
 1974TIP3    H130117   0.597   0.259  18.450  1.5068 -1.2702  2.1093
 1974TIP3    H230118   0.714   0.317  18.374 -0.5712 -0.1617 -0.3786
 1975TIP3   OH230119   0.774   7.052  18.177 -0.1275 -0.1962  0.2251
 1975TIP3    H130120   0.741   7.090  18.258 -0.5417 -0.9635  0.4284
 1975TIP3    H230121   0.785   6.959  18.197 -1.0799 -0.5588 -0.8663
 1976TIP3   OH230122   6.716   1.465  17.732  0.3704  0.1503  0.1112
 1976TIP3    H130123   6.685   1.440  17.819  0.5082  0.2897  0.1998
 1976TIP3    H230124   6.802   1.503  17.747  0.3687  0.2299 -0.0794
 1977TIP3   OH230125   0.473   6.393  17.389  0.0819 -0.0134 -0.4073
 1977TIP3    H130126   0.540   6.355  17.446 -0.1812  1.8018  1.2266
 1977TIP3    H230127   0.390   6.358  17.423  0.0364 -0.4481 -0.9500
 1978TIP3   OH230128   1.225   1.374  18.626  0.6975  0.4622 -0.1882
 1978TIP3    H130129   1.271   1.358  18.708  2.0218 -0.6674 -1.0969
 1978TIP3    H230130   1.159   1.440  18.647 -1.1884 -2.0518  2.5522
 1979TIP3   OH230131   4.951   0.132  17.256 -0.1602 -0.4155 -0.2567
 1979TIP3    H130132   4.917   0.044  17.271  0.2196 -0.4023  0.7638
 1979TIP3    H230133   4.936   0.178  17.339  2.0544 -0.3282  0.1446
 1980TIP3   OH230134   0.406   3.919  18.696  0.2542 -0.5470 -0.6102
 1980TIP3    H130135   0.357   4.001  18.694  1.3733  0.1402 -2.4651
 1980TIP3    H230136   0.349   3.856  18.653  0.4226 -0.0712 -1.5655
 1981TIP3   OH230137   1.212   1.497  18.392 -0.5057  0.1539  0.2687
 1981TIP3    H130138   1.231   1.430  18.457 -0.7828  0.5916  0.8073
 1981TIP3    H230139   1.239   1.579  18.433  0.0119  0.3654 -0.4556
 1982TIP3   OH230140   3.657   7.382  17.243  0.1514 -0.6006 -0.2921
 1982TIP3    H130141   3.623   7.374  17.333 -3.2779 -0.4309 -1.4508
 1982TIP3    H230142   3.740   7.429  17.253 -1.2285  1.5197  2.6163
 1983TIP3   OH230143   7.352   2.425  18.445  0.0055 -0.0645 -0.2998
 1983TIP3    H130144   7.433   2.376  18.459  0.0100 -0.0153 -0.1483
 1983TIP3    H230145   7.294   2.363  18.400 -0.9295 -1.1525  2.1959
 1984TIP3   OH230146   3.273   4.197  18.444  0.4061 -0.1587 -0.6508
 1984TIP3    H130147   3.256   4.276  18.494 -2.2130 -1.3449  0.5035
 1984TIP3    H230148   3.233   4.213  18.358  2.7665  0.9348 -1.6358
 1985TIP3   OH230149   1.839   0.848  17.070 -0.3022  0.5404  0.2641
 1985TIP3    H130150   1.924   0.803  17.064  0.7275  2.5023 -0.9854
 1985TIP3    H230151   1.780   0.797  17.015  1.0989  1.1586 -1.9630
 1986TIP3   OH230152   7.261   4.793  17.717  0.7323 -0.0652 -0.0884
 1986TIP3    H130153   7.194   4.763  17.656 -1.3336 -0.7135  2.3133
 1986TIP3    H230154   7.280   4.716  17.771  1.2790  0.8693  1.1074
 1987TIP3   OH230155   2.462   1.422  17.677 -0.1631  0.4321  0.4455
 1987TIP3    H130156   2.556   1.426  17.697 -0.2037  0.6773  0.5953
 1987TIP3    H230157   2.459   1.403  17.583  0.0480  1.2495  0.2594
 1988TIP3   OH230158   4.504   2.894  19.093  0.4358 -0.0004  1.0905
 1988TIP3    H130159   4.535   2.890  19.002  0.7672 -1.6126  1.2395
 1988TIP3    H230160   4.424   2.841  19.093  0.6637 -0.3573  1.8118
 1989TIP3   OH230161   3.276   7.275  18.241 -0.3706 -0.3623  0.0674
 1989TIP3    H130162   3.271   7.314  18.328  0.6531 -3.3754  1.6044
 1989TIP3    H230163   3.197   7.307  18.196 -0.1518  2.4846  1.4606
 1990TIP3   OH230164   1.794   6.037  18.528 -0.2276  0.5634  0.1864
 1990TIP3    H130165   1.767   6.099  18.460  1.4732  1.4492  0.2563
 1990TIP3    H230166   1.717   6.026  18.583 -1.2304  0.8859 -1.1044
 1991TIP3   OH230167   1.117   5.711  17.615 -0.3737 -0.7387 -0.3090
 1991TIP3    H130168   1.157   5.652  17.551 -0.2868  0.7123 -1.6607
 1991TIP3    H230169   1.023   5.704  17.599 -0.5559 -2.2710  1.1754
 1992TIP3   OH230170   2.675   2.541  18.394  0.1165 -0.5730  0.1163
 1992TIP3    H130171   2.606   2.475  18.391 -0.1351 -0.2826 -0.7457
 1992TIP3    H230172   2.670   2.578  18.482 -1.0947 -0.2777 -0.0555
 1993TIP3   OH230173   5.027   7.582  16.717  0.0520 -0.7087 -0.3054
 1993TIP3    H130174   4.959   7.517  16.698 -1.4205  0.7940 -0.4458
 1993TIP3    H230175   5.109   7.539  16.693 -0.8215 -2.6084 -0.1001
 1994TIP3   OH230176   3.767   1.056  17.856 -0.3709 -0.3261 -0.4232
 1994TIP3    H130177   3.792   1.030  17.945 -0.2753  1.3194  0.0650
 1994TIP3    H230178   3.672   1.043  17.853 -0.3284 -0.7040 -0.1833
 1995TIP3   OH230179   4.150   0.087  17.780 -0.6246 -0.1313 -0.4453
 1995TIP3    H130180   4.118   0.059  17.695  0.9732  0.4008 -1.2457
 1995TIP3    H230181   4.183   0.175  17.766  0.5235 -0.3821  0.4979
 1996TIP3   OH230182   3.447   6.084  18.909  0.0145 -0.1521  0.3616
 1996TIP3    H130183   3.533   6.047  18.928  0.4834 -0.5182 -2.0958
 1996TIP3    H230184   3.390   6.008  18.897 -0.4327  0.0751  0.9664
 1997TIP3   OH230185   0.380   7.236  16.919  0.0725  0.4493  0.2280
 1997TIP3    H130186   0.390   7.216  16.826 -0.2758  0.0885  0.2685
 1997TIP3    H230187   0.443   7.179  16.963 -0.7472 -0.4028  0.3251
 1998TIP3   OH230188   2.713   7.587  18.680  0.0676 -0.0600 -0.0606
 1998TIP3    H130189   2.710   7.671  18.727  0.3598  0.4449 -0.9170
 1998TIP3    H230190   2.700   7.521  18.748 -1.4280  0.7232  0.4642
 1999TIP3   OH230191   4.769   5.603  19.419  0.5550 -0.0533 -0.1460
 1999TIP3    H130192   4.716   5.556  19.484  0.9753  0.5753  0.6782
 1999TIP3    H230193   4.858   5.571  19.433  1.1051  1.9096  1.3886
 2000TIP3   OH230194   7.423   6.528  17.363  0.3632 -0.2822 -0.0818
 2000TIP3    H130195   7.512   6.499  17.384  0.2301  0.3261  1.4899
 2000TIP3    H230196   7.366   6.475  17.420 -0.2256 -0.1938 -0.5794
 2001TIP3   OH230197   7.347   6.984  19.680 -0.0737  0.7431  0.4996
 2001TIP3    H130198   7.272   7.035  19.649  0.9538  0.7115 -2.3467
 2001TIP3    H230199   7.321   6.893  19.668  0.9183  0.7203 -2.1860
 2002TIP3   OH230200   0.213   6.757  18.261 -0.2896  0.5306  0.5115
 2002TIP3    H130201   0.154   6.828  18.237 -0.5600  0.8284  1.9553
 2002TIP3    H230202   0.280   6.757  18.192 -1.0876  1.2227 -0.2874
 2003TIP3   OH230203   5.818   0.365  18.282  0.2497 -0.0803 -0.1959
 2003TIP3    H130204   5.810   0.281  18.236 -1.0484 -0.1379  0.1089
 2003TIP3    H230205   5.729   0.398  18.287  0.2922 -0.1456  2.4286
 2004TIP3   OH230206   3.257   5.682  17.622 -0.0035  0.6776  0.2779
 2004TIP3    H130207   3.330   5.705  17.679  0.6178  1.2969 -0.7268
 2004TIP3    H230208   3.250   5.756  17.561  0.3006 -0.5923 -1.3524
 2005TIP3   OH230209   6.937   3.931  18.161 -0.2886  0.0101  0.1035
 2005TIP3    H130210   6.994   3.930  18.238  0.1687 -1.0281 -0.2308
 2005TIP3    H230211   6.889   3.849  18.165  1.0513 -0.9447 -1.6469
 2006TIP3   OH230212   3.028   4.200  18.292  0.0611  0.0819  1.0839
 2006TIP3    H130213   3.025   4.107  18.316 -1.7451 -0.6177 -1.3961
 2006TIP3    H230214   2.936   4.227  18.294  0.0496  0.6143 -2.2125
 2007TIP3   OH230215   3.003   6.593  19.236  0.2050  0.2832  0.1396
 2007TIP3    H130216   3.082   6.642  19.212  1.3939 -1.0251  1.1559
 2007TIP3    H230217   3.032   6.502  19.240 -1.3714 -0.2307  0.5635
 2008TIP3   OH230218   0.701   1.106  18.348  1.0532  0.2589 -0.0204
 2008TIP3    H130219   0.635   1.175  18.344  0.8568  0.1982  1.5229
 2008TIP3    H230220   0.784   1.151  18.333  0.8953  0.7755  0.6227
 2009TIP3   OH230221   7.236   7.504  18.602 -0.6224 -0.1583  0.2439
 2009TIP3    H130222   7.293   7.564  18.651  1.0591  1.1252 -2.9771
 2009TIP3    H230223   7.258   7.418  18.638  1.9736  0.4962  0.4923
 2010TIP3   OH230224   0.895   3.587  17.496  0.9643 -0.1334  0.0300
 2010TIP3    H130225   0.838   3.514  17.520 -0.3971  0.4939 -1.0867
 2010TIP3    H230226   0.966   3.548  17.446  0.6524 -0.7632  0.0778
 2011TIP3   OH230227   4.023   0.082  18.534 -0.2110 -0.1875 -0.2144
 2011TIP3    H130228   3.947   0.140  18.544 -1.2525 -1.8008  2.5824
 2011TIP3    H230229   4.089   0.135  18.490 -1.8366  2.3673  0.2270
 2012TIP3   OH230230   1.955   0.019  17.770 -0.1028 -0.2003  0.5648
 2012TIP3    H130231   1.988  -0.068  17.792  1.2006 -0.1132 -0.8985
 2012TIP3    H230232   2.032   0.068  17.741 -0.8862  1.3135  0.9131
 2013TIP3   OH230233   5.714   7.018  17.506 -0.1856  0.8562  0.1335
 2013TIP3    H130234   5.761   6.956  17.450 -0.0408 -0.8912  2.0680
 2013TIP3    H230235   5.767   7.098  17.503  0.3258  0.5016 -1.3985
 2014TIP3   OH230236   1.792   1.733  17.699 -0.5055  0.2280  0.1380
 2014TIP3    H130237   1.801   1.776  17.784 -0.3413 -0.7104  0.6154
 2014TIP3    H230238   1.785   1.640  17.721  1.4923 -0.2305 -0.9510
 2015TIP3   OH230239   1.502   2.331  18.621 -0.0570 -0.0612  0.4519
 2015TIP3    H130240   1.588   2.373  18.617 -0.0488  0.2218  2.6057
 2015TIP3    H230241   1.440   2.402  18.635 -0.4649 -0.4166  0.4908
 2016TIP3   OH230242   4.973   4.242  18.525  0.3130  0.2458 -0.2492
 2016TIP3    H130243   4.975   4.228  18.430  1.4846  1.0808 -0.3650
 2016TIP3    H230244   5.059   4.215  18.555  0.3099  0.9710  0.4383
 2017TIP3   OH230245   6.005   2.623  17.503 -0.2285  0.0363 -0.3838
 2017TIP3    H130246   6.082   2.576  17.469 -0.5565 -1.2793  0.5807
 2017TIP3    H230247   5.953   2.643  17.426  0.1137 -0.8815 -0.8747
 2018TIP3   OH230248   5.072   3.444  16.520  0.5612 -0.2592  0.4196
 2018TIP3    H130249   5.001   3.483  16.571  0.3538 -0.2466  0.1218
 2018TIP3    H230250   5.141   3.510  16.521  0.7085 -0.4098  1.0033
 2019TIP3   OH230251   0.145   5.386  17.876  0.2262 -0.1502  0.5030
 2019TIP3    H130252   0.078   5.328  17.911  1.1973 -0.7546  1.4206
 2019TIP3    H230253   0.187   5.424  17.954  0.6480  0.5583 -0.0605
 2020TIP3   OH230254   2.087   7.647  18.722  0.5103 -0.1858 -0.6332
 2020TIP3    H130255   2.027   7.579  18.753  1.0031 -0.0125  0.7646
 2020TIP3    H230256   2.174   7.615  18.745  0.7506  0.8693 -0.0143
 2021TIP3   OH230257   1.046   3.416  19.567 -0.3924 -0.4482  0.4361
 2021TIP3    H130258   0.957   3.405  19.533 -0.2068  0.3734 -0.3844
 2021TIP3    H230259   1.043   3.500  19.614  0.2694  0.3371 -0.8425
 2022TIP3   OH230260   3.354   2.348  18.472  0.3863  0.1964  0.4824
 2022TIP3    H130261   3.339   2.272  18.528  1.4578 -0.5322 -0.1750
 2022TIP3    H230262   3.446   2.341  18.446  0.3326  1.3803 -0.0964
 2023TIP3   OH230263   3.696   5.770  17.833 -0.0657  0.1052 -0.0002
 2023TIP3    H130264   3.639   5.824  17.888 -0.9460 -0.4930 -0.2983
 2023TIP3    H230265   3.721   5.697  17.890  0.1233  0.1888  0.0240
 2024TIP3   OH230266   1.352   5.216  19.454 -0.1308  0.1053 -0.4974
 2024TIP3    H130267   1.356   5.165  19.535  1.0652 -0.7475 -1.0762
 2024TIP3    H230268   1.321   5.154  19.388 -0.3855  0.6094 -0.8642
 2025TIP3   OH230269   0.152   5.290  17.104 -0.0393  0.1364  0.0068
 2025TIP3    H130270   0.160   5.363  17.043 -3.3640  0.0933 -0.7077
 2025TIP3    H230271   0.074   5.310  17.156 -0.6584 -2.4803  0.2712
 2026TIP3   OH230272   3.620   3.464  16.779 -0.0565  0.4307 -0.0155
 2026TIP3    H130273   3.605   3.375  16.814  0.4752 -0.7837 -2.6386
 2026TIP3    H230274   3.612   3.454  16.684 -1.2680  3.4911 -0.3535
 2027TIP3   OH230275   7.007   3.355  19.490 -0.2273  0.4738  0.3863
 2027TIP3    H130276   6.992   3.264  19.514 -0.2757 -0.3188 -2.3235
 2027TIP3    H230277   6.982   3.405  19.568  1.1978 -1.8442  2.5093
 2028TIP3   OH230278   5.778   5.692  17.399  0.0743 -0.5498 -0.1526
 2028TIP3    H130279   5.751   5.652  17.317 -2.1349 -0.3860  0.4362
 2028TIP3    H230280   5.829   5.769  17.373  0.6783 -1.3098 -1.3148
 2029TIP3   OH230281   6.202   1.461  18.396  0.2297  0.0493 -0.7692
 2029TIP3    H130282   6.158   1.378  18.413  0.4381  0.2148  0.6711
 2029TIP3    H230283   6.152   1.525  18.446  0.8803  0.5725 -0.7784
 2030TIP3   OH230284   2.166   2.943  17.016  0.3027  0.7256 -0.3097
 2030TIP3    H130285   2.124   2.860  17.040  1.2211  0.2924 -0.1557
 2030TIP3    H230286   2.246   2.917  16.970  0.5389  1.5267 -0.3652
 2031TIP3   OH230287   1.103   6.509  18.862  0.3394 -0.5121 -0.1844
 2031TIP3    H130288   1.181   6.504  18.806  0.0533  1.3762 -0.8241
 2031TIP3    H230289   1.040   6.449  18.822  0.9224 -0.8801 -0.5622
 2032TIP3   OH230290   4.231   7.507  19.071 -0.6668 -0.0837  0.3932
 2032TIP3    H130291   4.173   7.570  19.031 -0.5787  0.2184  0.7366
 2032TIP3    H230292   4.297   7.488  19.004 -0.3024  0.7007  0.5159
 2033TIP3   OH230293   2.918   7.541  17.967  0.2893 -0.7197  0.0747
 2033TIP3    H130294   2.933   7.536  17.873 -2.7476  0.5764 -0.6176
 2033TIP3    H230295   2.827   7.570  17.975  1.3633  2.6607  3.3734
 2034TIP3   OH230296   4.103   0.506  17.586 -0.3054  0.0629  0.0534
 2034TIP3    H130297   4.022   0.535  17.544 -0.1677 -1.0296 -0.9968
 2034TIP3    H230298   4.155   0.586  17.594 -0.2500  0.2862 -2.0874
 2035TIP3   OH230299   4.422   0.132  19.458  0.1335 -0.0425 -0.1490
 2035TIP3    H130300   4.393   0.058  19.403  1.0299 -0.2542 -0.3548
 2035TIP3    H230301   4.353   0.197  19.449 -0.5201 -0.7291 -0.2236
 2036TIP3   OH230302   2.833   0.540  19.377 -0.5739 -0.2802  0.2226
 2036TIP3    H130303   2.771   0.596  19.330  0.0563  0.5265  0.3263
 2036TIP3    H230304   2.893   0.601  19.420  3.1256 -0.8360 -3.4434
 2037TIP3   OH230305   1.559   1.401  18.590 -0.2482  0.2128  1.0999
 2037TIP3    H130306   1.540   1.324  18.643 -1.1513  0.2331  0.8144
 2037TIP3    H230307   1.481   1.414  18.537  0.0732  1.0604  0.8161
 2038TIP3   OH230308   7.406   4.463  17.181 -0.5664  0.3092  0.3154
 2038TIP3    H130309   7.454   4.518  17.118 -1.3011  1.0905  0.4294
 2038TIP3    H230310   7.383   4.384  17.131  0.2520  0.2099  0.0721
 2039TIP3   OH230311   5.324   0.814  17.766  0.3057  0.4373 -0.1511
 2039TIP3    H130312   5.356   0.730  17.734  0.0623  0.4647 -0.4680
 2039TIP3    H230313   5.230   0.802  17.776  0.3516  0.4850  0.3851
 2040TIP3   OH230314   6.637   2.008  17.937 -0.3390 -0.4840  0.4899
 2040TIP3    H130315   6.564   2.030  17.995 -0.5999 -1.2540  0.4714
 2040TIP3    H230316   6.612   1.924  17.898  1.4187 -1.8127  2.0117
 2041TIP3   OH230317   1.124   3.123  18.230 -0.3657  0.1425 -0.2590
 2041TIP3    H130318   1.105   3.209  18.265  1.3759 -0.0572  1.3100
 2041TIP3    H230319   1.196   3.090  18.283 -0.1712 -1.7910 -1.5985
 2042TIP3   OH230320   0.597   6.655  17.763  0.2941  0.4823 -0.2128
 2042TIP3    H130321   0.566   6.726  17.707 -0.3740 -0.2900 -0.8435
 2042TIP3    H230322   0.692   6.656  17.753  0.4605  2.2843  1.0191
 2043TIP3   OH230323   5.988   4.223  18.496 -0.5413  0.2552  0.0898
 2043TIP3    H130324   6.079   4.252  18.493 -0.2390 -0.7159 -1.2629
 2043TIP3    H230325   5.984   4.164  18.572 -0.0620  0.3777  0.2136
 2044TIP3   OH230326   6.785   2.320  18.157  0.2164  0.5799  0.0325
 2044TIP3    H130327   6.756   2.408  18.133 -2.6950 -0.8164 -2.1947
 2044TIP3    H230328   6.850   2.297  18.089 -0.1660  0.4633 -0.2959
 2045TIP3   OH230329   3.726   1.983  17.706 -0.0055  0.0805  0.3310
 2045TIP3    H130330   3.678   2.031  17.773  0.1216  1.0327 -0.2372
 2045TIP3    H230331   3.659   1.959  17.641  0.0943  0.4022  0.1070
 2046TIP3   OH230332   1.455   7.106  18.978  0.2714  0.1859 -0.1063
 2046TIP3    H130333   1.456   7.036  19.044  0.8450 -1.5149 -1.8387
 2046TIP3    H230334   1.548   7.121  18.958  0.1088  0.7946 -0.4276
 2047TIP3   OH230335   0.553   6.026  17.745 -0.4116  0.4765 -0.2033
 2047TIP3    H130336   0.529   5.934  17.756  0.5108  0.4788  2.4739
 2047TIP3    H230337   0.485   6.075  17.793  0.0516  1.0692 -0.1362
 2048TIP3   OH230338   4.148   6.801  17.085 -0.2081  0.8846 -0.1830
 2048TIP3    H130339   4.068   6.749  17.083  0.0968  0.4084 -0.3056
 2048TIP3    H230340   4.163   6.825  16.994  0.8566 -0.7189 -0.4692
 2049TIP3   OH230341   7.457   5.760  18.199 -0.2205 -0.1136  0.7235
 2049TIP3    H130342   7.366   5.768  18.171  0.2342 -0.1443 -0.9025
 2049TIP3    H230343   7.459   5.795  18.288 -0.9479  4.5114 -0.8181
 2050TIP3   OH230344   0.062   0.555  19.309  0.2473  0.0530 -0.0709
 2050TIP3    H130345   0.028   0.480  19.359 -0.7507 -0.9592 -2.1463
 2050TIP3    H230346  -0.014   0.612  19.298  0.4547  0.2618 -0.4394
 2051TIP3   OH230347   5.899   6.749  17.001  0.0122 -0.2954  0.1323
 2051TIP3    H130348   5.849   6.673  16.970 -1.5290  0.5172  0.4829
 2051TIP3    H230349   5.846   6.824  16.974  1.9869  0.7258 -1.0824
 2052TIP3   OH230350   0.802   5.081  18.695  0.5920  0.1100 -0.1977
 2052TIP3    H130351   0.816   5.117  18.607  1.7621  1.4632  0.4986
 2052TIP3    H230352   0.779   4.989  18.680  0.4129  0.4091 -1.9262
 2053TIP3   OH230353   3.008   3.946  16.884  0.1839  0.5000 -0.2266
 2053TIP3    H130354   2.944   3.895  16.835 -0.0169  1.0241 -0.5218
 2053TIP3    H230355   2.974   4.036  16.882 -0.2040  0.4219  1.5109
 2054TIP3   OH230356   4.463   1.423  18.620 -0.4601 -0.1400 -0.5159
 2054TIP3    H130357   4.495   1.344  18.664  0.6200  0.0010 -1.0175
 2054TIP3    H230358   4.392   1.454  18.676  0.3912 -0.3825  0.7525
 2055TIP3   OH230359   5.478   0.954  17.580 -0.3363 -0.3965  0.4506
 2055TIP3    H130360   5.407   0.914  17.630  0.1204  0.2904  1.7107
 2055TIP3    H230361   5.553   0.897  17.597 -0.7487 -1.7065 -1.6988
 2056TIP3   OH230362   0.031   4.061  17.704 -0.3660  0.3254 -0.1261
 2056TIP3    H130363   0.039   3.988  17.642 -0.6618 -0.8480  1.1847
 2056TIP3    H230364   0.112   4.059  17.754 -0.6673  0.4729  0.3715
 2057TIP3   OH230365   1.482   1.852  17.657  0.6881  0.4377 -0.2079
 2057TIP3    H130366   1.460   1.760  17.672  1.3200  0.5206  1.4711
 2057TIP3    H230367   1.540   1.850  17.580  0.6440 -0.5471 -0.2326
 2058TIP3   OH230368   1.305   4.451  17.704 -0.1349  0.0219  0.1835
 2058TIP3    H130369   1.226   4.448  17.650  0.1583 -1.3962 -0.2045
 2058TIP3    H230370   1.298   4.533  17.753 -1.5056  0.2415 -0.3502
 2059TIP3   OH230371   0.216   2.954  17.363  0.3339  0.2248 -0.1269
 2059TIP3    H130372   0.297   2.980  17.407  1.1190 -0.5999 -1.0083
 2059TIP3    H230373   0.183   3.034  17.323 -0.3065  0.9457  1.7703
 2060TIP3   OH230374   6.067   7.137  16.131  0.1796  0.5990  0.0936
 2060TIP3    H130375   6.032   7.226  16.130  1.7179  1.2768  1.2839
 2060TIP3    H230376   6.006   7.088  16.186  0.2991  1.3926  0.9563
 2061TIP3   OH230377   4.653   5.799  17.082  0.2542 -0.9443 -0.1911
 2061TIP3    H130378   4.647   5.729  17.017  1.4251 -2.5725  1.3751
 2061TIP3    H230379   4.595   5.772  17.153 -0.0706  0.1997  0.0042
 2062TIP3   OH230380   0.565   2.428  17.486 -0.0968  0.0334 -0.2184
 2062TIP3    H130381   0.508   2.441  17.562  0.6148  1.4995  0.0948
 2062TIP3    H230382   0.559   2.510  17.437  0.0185 -0.6280 -1.3850
 2063TIP3   OH230383   2.956   0.707  17.390 -0.2832 -0.8681 -0.9238
 2063TIP3    H130384   2.873   0.661  17.399  0.1917 -1.2798  2.3006
 2063TIP3    H230385   2.938   0.795  17.422  0.1402 -0.4255 -1.8666
 2064TIP3   OH230386   4.936   1.142  17.075 -0.1746  0.0818  0.1702
 2064TIP3    H130387   4.956   1.234  17.096  0.8389 -0.4414  1.6675
 2064TIP3    H230388   4.849   1.145  17.035 -0.1195  1.7052  0.0926
 2065TIP3   OH230389   5.932   6.808  16.458  0.2940 -0.3418  0.3708
 2065TIP3    H130390   5.930   6.716  16.430 -0.6228 -0.4665  0.8081
 2065TIP3    H230391   5.950   6.804  16.552 -1.7199 -0.1934  0.7953
 2066TIP3   OH230392   1.186   1.831  18.184 -0.2102  0.6805 -0.1874
 2066TIP3    H130393   1.143   1.772  18.245 -0.4857 -1.1020 -1.9943
 2066TIP3    H230394   1.175   1.918  18.222 -0.4661 -0.3176  2.1917
 2067TIP3   OH230395   6.881   1.661  18.150 -0.2693  0.2973  0.1621
 2067TIP3    H130396   6.828   1.639  18.226 -0.6273  0.8677  0.0820
 2067TIP3    H230397   6.862   1.754  18.133  0.0290  0.2549 -0.4414
 2068TIP3   OH230398   3.844   1.188  16.763 -0.0022 -0.1799  0.0032
 2068TIP3    H130399   3.800   1.104  16.780 -1.2198 -0.4179 -3.4112
 2068TIP3    H230400   3.808   1.248  16.828 -1.3752 -1.6594  0.6750
 2069TIP3   OH230401   3.472   5.512  17.464  0.3949 -0.3194 -0.6803
 2069TIP3    H130402   3.428   5.578  17.411  0.1968  1.3669  1.4642
 2069TIP3    H230403   3.542   5.479  17.407  0.3071  1.5113 -1.9366
 2070TIP3   OH230404   5.203   1.274  19.412  0.1179  0.7187  0.5724
 2070TIP3    H130405   5.248   1.276  19.496  0.2860  1.8973  0.4668
 2070TIP3    H230406   5.215   1.362  19.376 -0.7749  0.5218 -0.2488
 2071TIP3   OH230407   1.164   7.035  17.462  0.3381  0.3713  0.5730
 2071TIP3    H130408   1.212   7.113  17.489 -0.8180  0.6586  1.8699
 2071TIP3    H230409   1.159   7.042  17.366  1.4200  1.1664  0.5602
 2072TIP3   OH230410   0.249   4.023  19.069 -0.3928 -0.3811 -0.4945
 2072TIP3    H130411   0.240   3.928  19.076  0.4879 -0.5909 -1.7601
 2072TIP3    H230412   0.187   4.048  19.001  0.6438 -0.3224 -1.4456
 2073TIP3   OH230413   3.289   7.100  16.752  0.1576  0.0612  0.5744
 2073TIP3    H130414   3.214   7.050  16.722  0.0094  1.1612 -1.0198
 2073TIP3    H230415   3.254   7.157  16.821 -0.4350  0.4297 -0.0246
 2074TIP3   OH230416   0.734   6.043  18.140 -0.1520 -0.6665 -0.1210
 2074TIP3    H130417   0.740   6.025  18.046 -1.3140 -2.3491  0.0850
 2074TIP3    H230418   0.664   6.108  18.148 -0.2244 -0.7113 -0.3877
 2075TIP3   OH230419   7.145   0.968  19.274 -0.8151  0.5890 -0.1162
 2075TIP3    H130420   7.234   0.946  19.248 -0.1599 -0.2133  2.5538
 2075TIP3    H230421   7.144   1.064  19.278  0.8719  0.6000  2.5156
 2076TIP3   OH230422   2.805   0.232  16.560  0.1827  0.6403  0.3346
 2076TIP3    H130423   2.716   0.252  16.590  1.1312  1.3276  2.9229
 2076TIP3    H230424   2.837   0.166  16.621  1.5287  0.5094 -0.4761
 2077TIP3   OH230425   5.565   3.332  17.841 -0.1216  0.4464 -0.3493
 2077TIP3    H130426   5.554   3.425  17.859  1.1514  0.9895 -2.1235
 2077TIP3    H230427   5.475   3.298  17.833 -0.6196  1.8942 -1.3787
 2078TIP3   OH230428   6.217   6.530  18.049  0.4684 -0.3315 -0.0122
 2078TIP3    H130429   6.191   6.482  17.970 -0.1086 -0.7145  0.4114
 2078TIP3    H230430   6.143   6.587  18.068  0.8280  0.1612 -0.0492
 2079TIP3   OH230431   1.326   5.489  18.569 -0.4795  0.0265 -0.4076
 2079TIP3    H130432   1.247   5.540  18.552 -0.4507  0.2882  0.1971
 2079TIP3    H230433   1.397   5.541  18.532 -0.0854  1.8984  2.5822
 2080TIP3   OH230434   7.517   7.553  18.431 -0.4289  0.0217  0.0740
 2080TIP3    H130435   7.608   7.539  18.460  0.0264  0.1939 -1.1928
 2080TIP3    H230436   7.465   7.547  18.511  0.7476  0.3211  0.8933
 2081TIP3   OH230437   5.498   5.216  18.818 -0.4338  0.3463  0.2711
 2081TIP3    H130438   5.461   5.138  18.776 -1.4444  0.7251  0.4305
 2081TIP3    H230439   5.592   5.197  18.824 -0.6553 -0.8551  0.3055
 2082TIP3   OH230440   5.829   4.554  17.945 -0.0731  0.3465  0.2206
 2082TIP3    H130441   5.830   4.458  17.951 -1.0059  0.2042 -1.2513
 2082TIP3    H230442   5.913   4.576  17.904  0.3467  0.2109  0.9896
 2083TIP3   OH230443   1.243   4.311  18.208 -0.2978 -0.0034 -0.7522
 2083TIP3    H130444   1.156   4.346  18.192 -0.4933 -0.7288 -1.2755
 2083TIP3    H230445   1.269   4.271  18.126 -0.0267 -0.9795 -0.2023
 2084TIP3   OH230446   4.435   6.804  18.177 -0.1022  0.5586 -0.3286
 2084TIP3    H130447   4.394   6.871  18.232 -2.3936 -0.0547 -1.1354
 2084TIP3    H230448   4.365   6.740  18.162  1.5973 -1.3020 -0.7418
 2085TIP3   OH230449   1.075   4.391  17.553  0.0286 -0.0991  0.7039
 2085TIP3    H130450   0.999   4.448  17.555  0.7798  0.9422  0.5513
 2085TIP3    H230451   1.091   4.374  17.460  2.0472  2.6213  0.4302
 2086TIP3   OH230452   5.842   3.532  17.909  0.2074 -0.5736 -0.2434
 2086TIP3    H130453   5.781   3.605  17.917  1.2979  0.8283 -3.0853
 2086TIP3    H230454   5.871   3.514  17.998 -1.9508  0.8052  0.8076
 2087TIP3   OH230455   4.534   7.107  17.172 -0.0937  0.8475  0.2747
 2087TIP3    H130456   4.441   7.125  17.186 -0.1499  0.2281  0.7414
 2087TIP3    H230457   4.568   7.085  17.259  0.1405 -0.4314 -0.1120
 2088TIP3   OH230458   7.109   2.156  17.747  0.3691  0.3935 -0.0670
 2088TIP3    H130459   7.151   2.231  17.704  1.1996 -0.7775 -1.4000
 2088TIP3    H230460   7.109   2.087  17.680  2.0074 -1.6588  1.8740
 2089TIP3   OH230461   1.366   3.155  17.757  0.3699  0.1620  0.2272
 2089TIP3    H130462   1.400   3.242  17.780  1.1030  0.2604 -1.1313
 2089TIP3    H230463   1.274   3.170  17.736  0.4443  0.5771  0.1897
 2090TIP3   OH230464   5.945   2.227  17.293 -0.1816  0.1078 -0.7737
 2090TIP3    H130465   5.873   2.283  17.265 -1.6905 -2.6445 -2.9902
 2090TIP3    H230466   5.904   2.157  17.344  1.1385 -0.6647 -0.7075
 2091TIP3   OH230467   4.653   1.750  19.068 -0.2443  0.1354 -0.1469
 2091TIP3    H130468   4.657   1.664  19.025  0.9679 -1.0311  2.1194
 2091TIP3    H230469   4.728   1.798  19.033 -2.2809  1.3681 -3.3114
 2092TIP3   OH230470   2.873   2.591  19.239  0.5243 -0.0359  0.1443
 2092TIP3    H130471   2.836   2.568  19.324  2.8145  0.2385  1.2845
 2092TIP3    H230472   2.811   2.556  19.175 -1.7411  0.5735  1.9041
 2093TIP3   OH230473   5.552   6.439  17.710  0.2287  0.7115 -0.1800
 2093TIP3    H130474   5.475   6.466  17.760  0.8547  0.2741  1.0755
 2093TIP3    H230475   5.569   6.350  17.740  1.8839  1.2004  0.4216
 2094TIP3   OH230476   2.812   2.046  19.338  0.8239  0.0566 -0.0715
 2094TIP3    H130477   2.745   2.111  19.316 -0.3401 -1.3396 -0.8571
 2094TIP3    H230478   2.767   1.985  19.396  1.9038 -0.0597  0.6668
 2095TIP3   OH230479   2.909   4.720  18.688  0.4719 -0.3373 -0.1407
 2095TIP3    H130480   2.949   4.806  18.676  0.7571 -0.5735 -0.9773
 2095TIP3    H230481   2.845   4.732  18.758 -0.5683  0.9331 -1.2774
 2096TIP3   OH230482   4.558   2.093  18.393 -0.2889 -0.0041 -0.2254
 2096TIP3    H130483   4.559   2.171  18.336 -0.2539  0.1247 -0.0496
 2096TIP3    H230484   4.622   2.034  18.354 -0.4603 -0.0266 -0.4755
 2097TIP3   OH230485   5.831   1.916  18.792 -0.5165  0.4662 -0.5659
 2097TIP3    H130486   5.740   1.947  18.786  0.3974  3.2583 -1.6432
 2097TIP3    H230487   5.884   1.996  18.792  2.0321 -1.0966 -1.4171
 2098TIP3   OH230488   1.476   5.679  18.449 -0.5157  0.1319  0.8328
 2098TIP3    H130489   1.493   5.764  18.489 -1.1103  0.1909  0.9642
 2098TIP3    H230490   1.435   5.699  18.365  1.1442  0.0236 -0.0422
 2099TIP3   OH230491   5.493   2.091  17.026  0.6648  0.1962 -0.1725
 2099TIP3    H130492   5.424   2.026  17.018 -0.3938  1.3585 -0.9949
 2099TIP3    H230493   5.515   2.093  17.119 -0.1488 -0.4620  0.0432
 2100TIP3   OH230494   6.395   4.286  18.887 -0.3524 -0.5270  0.1457
 2100TIP3    H130495   6.392   4.210  18.829 -0.6781  0.9710 -1.9184
 2100TIP3    H230496   6.313   4.332  18.870  0.4105  0.9673  0.3519
 2101TIP3   OH230497   3.387   0.111  18.113  0.4087 -0.3086 -0.0173
 2101TIP3    H130498   3.406   0.122  18.020 -2.0704 -2.1814 -0.8491
 2101TIP3    H230499   3.344   0.193  18.139  2.0469  0.6543 -0.1645
 2102TIP3   OH230500   4.362   3.350  18.540  0.1024 -0.1808  0.2845
 2102TIP3    H130501   4.417   3.278  18.511  0.0473 -0.6039  1.1977
 2102TIP3    H230502   4.324   3.320  18.623 -0.6095  0.5492  0.2394
 2103TIP3   OH230503   0.697   5.567  19.290  0.2437  0.4288 -0.0732
 2103TIP3    H130504   0.712   5.661  19.281 -1.3651  0.7373  0.0440
 2103TIP3    H230505   0.735   5.529  19.212  1.6568  1.0600  0.2674
 2104TIP3   OH230506   0.748   0.152  18.952 -0.1777  0.1059 -0.1770
 2104TIP3    H130507   0.735   0.057  18.952  2.1822 -0.2714  0.6892
 2104TIP3    H230508   0.815   0.167  18.885  0.8628  0.8992  0.9902
 2105TIP3   OH230509   2.923   6.774  17.990  0.5892 -0.7573  0.0781
 2105TIP3    H130510   2.942   6.794  17.898  1.3483  1.2216  0.6076
 2105TIP3    H230511   2.831   6.798  18.001  0.7969  0.0532  0.0837
 2106TIP3   OH230512   2.742   3.228  18.650  0.2117 -0.6202 -0.0824
 2106TIP3    H130513   2.786   3.156  18.604  1.7297 -0.1598  0.5741
 2106TIP3    H230514   2.805   3.301  18.646 -0.7476  0.2582  0.3953
 2107TIP3   OH230515   7.633   6.278  18.625 -0.0967 -0.1347  0.1130
 2107TIP3    H130516   7.643   6.291  18.531 -1.3281  0.0417 -0.0106
 2107TIP3    H230517   7.605   6.363  18.658 -0.6609 -0.4611  0.4808
 2108TIP3   OH230518   6.166   5.725  16.769  0.0356  0.1924  0.3884
 2108TIP3    H130519   6.245   5.672  16.778 -1.5667 -2.4697 -0.3639
 2108TIP3    H230520   6.179   5.773  16.687  1.5398  1.1157  1.1174
 2109TIP3   OH230521   7.078   4.682  18.816 -0.5673  0.2688 -0.5944
 2109TIP3    H130522   7.168   4.656  18.835  0.3581  1.5458 -2.8303
 2109TIP3    H230523   7.053   4.740  18.888  0.8742  0.9067 -0.5797
 2110TIP3   OH230524   6.766   7.288  17.722 -0.6693  0.4913  0.1653
 2110TIP3    H130525   6.672   7.302  17.720 -1.1999 -2.5747 -0.4888
 2110TIP3    H230526   6.777   7.193  17.727  2.3983  0.7533  0.8467
 2111TIP3   OH230527   0.602   5.646  18.749  0.5303 -0.3534  0.1896
 2111TIP3    H130528   0.614   5.683  18.661  1.4367 -0.2280  0.3552
 2111TIP3    H230529   0.630   5.555  18.740  0.2251 -0.4524  0.2522
 2112TIP3   OH230530   7.346   6.339  19.425 -0.0533  0.0215  0.0937
 2112TIP3    H130531   7.284   6.269  19.446 -0.4591  1.0339  2.6043
 2112TIP3    H230532   7.429   6.309  19.462 -0.0942  0.5870  0.6573
 2113TIP3   OH230533   5.437   3.833  18.153 -0.9135  0.1605  0.6610
 2113TIP3    H130534   5.450   3.852  18.245 -1.4640  1.0982  0.5582
 2113TIP3    H230535   5.524   3.836  18.114 -0.8713  1.5290  0.8350
 2114TIP3   OH230536   2.513   5.016  18.301 -0.2519 -0.4347 -0.3920
 2114TIP3    H130537   2.598   5.041  18.337  0.1090 -0.0365 -1.4892
 2114TIP3    H230538   2.519   4.921  18.288 -1.3799 -1.1490  3.1321
 2115TIP3   OH230539   5.588   1.049  17.088  0.4199 -0.0001 -0.2354
 2115TIP3    H130540   5.535   1.011  17.018  0.7561 -2.1559  0.5814
 2115TIP3    H230541   5.527   1.057  17.162  1.2694 -3.3618  1.0009
 2116TIP3   OH230542   1.605   6.229  17.769  0.3597  0.5542 -0.3916
 2116TIP3    H130543   1.516   6.200  17.788  0.8864 -2.2909 -1.7189
 2116TIP3    H230544   1.602   6.325  17.775 -1.5598  0.4236  4.4515
 2117TIP3   OH230545   2.951   0.538  18.624  0.2018 -0.2993 -0.0327
 2117TIP3    H130546   3.012   0.510  18.693  0.3768 -0.8693 -0.4078
 2117TIP3    H230547   2.918   0.456  18.587  0.8725 -0.0274 -1.2898
 2118TIP3   OH230548   0.481   0.003  16.899  0.0521 -0.1778  0.2517
 2118TIP3    H130549   0.413   0.050  16.946 -0.6896 -0.8668 -0.1181
 2118TIP3    H230550   0.526   0.071  16.848 -0.5896  0.2241  0.2136
 2119TIP3   OH230551   4.635   0.338  17.270 -0.0741 -0.0029 -0.3605
 2119TIP3    H130552   4.635   0.418  17.218  2.1238 -1.2518 -2.4377
 2119TIP3    H230553   4.711   0.347  17.328 -0.4159 -0.1907  0.1319
 2120TIP3   OH230554   2.155   5.077  18.275  0.1782 -0.0739  0.0923
 2120TIP3    H130555   2.124   5.028  18.198  0.9515  0.7894 -0.8069
 2120TIP3    H230556   2.136   5.021  18.349 -1.2953 -0.6134 -0.6554
 2121TIP3   OH230557   7.043   1.923  19.488 -0.3530  0.4772 -0.3371
 2121TIP3    H130558   6.987   1.929  19.566 -0.5297 -0.5593 -0.3802
 2121TIP3    H230559   7.007   1.850  19.438 -0.0707  0.9646 -1.2643
 2122TIP3   OH230560   1.426   6.170  17.461  0.1489  0.4869  0.3014
 2122TIP3    H130561   1.505   6.224  17.468  1.2442 -1.0902  0.6691
 2122TIP3    H230562   1.456   6.081  17.480 -1.4866 -0.3559 -0.8174
 2123TIP3   OH230563   7.221   0.685  18.005 -0.0991  0.2282 -0.0231
 2123TIP3    H130564   7.312   0.682  18.034 -0.0182  1.0537 -0.1720
 2123TIP3    H230565   7.221   0.749  17.934 -0.3141 -1.6206 -1.7714
 2124TIP3   OH230566   0.202   6.528  18.416 -0.1185  0.4663 -0.1605
 2124TIP3    H130567   0.243   6.591  18.357  0.4176 -0.8384 -1.2431
 2124TIP3    H230568   0.120   6.504  18.373 -0.1967  0.2275  0.1154
 2125TIP3   OH230569   7.198   3.337  19.301  0.2302  0.0071  0.7412
 2125TIP3    H130570   7.275   3.366  19.350  0.0371  2.2939 -0.2061
 2125TIP3    H230571   7.124   3.355  19.360  0.1448  1.1057  0.3098
 2126TIP3   OH230572   0.456   1.048  16.807 -0.7355 -0.1859  0.2857
 2126TIP3    H130573   0.519   0.979  16.790 -2.3246 -1.4491 -0.8903
 2126TIP3    H230574   0.465   1.067  16.900  1.9759  0.3876 -0.0080
 2127TIP3   OH230575   3.530   2.943  18.321  0.4718  0.7422 -0.2527
 2127TIP3    H130576   3.481   2.991  18.254 -1.9706 -0.6617  0.3980
 2127TIP3    H230577   3.488   2.967  18.404  1.2732 -0.0655  0.4119
 2128TIP3   OH230578   1.607   3.224  18.503  0.3414 -0.5385  0.3527
 2128TIP3    H130579   1.647   3.278  18.436 -0.3345 -0.9773 -0.4331
 2128TIP3    H230580   1.677   3.205  18.565  0.4245  1.8253  1.0621
 2129TIP3   OH230581   2.782   1.066  16.956 -0.2846 -0.1313 -0.1129
 2129TIP3    H130582   2.876   1.059  16.941 -0.0813  1.1918  0.3874
 2129TIP3    H230583   2.747   1.095  16.872  0.0975  1.6841  0.3047
 2130TIP3   OH230584   6.897   7.155  16.897  0.3305 -0.1019 -0.0121
 2130TIP3    H130585   6.988   7.181  16.911 -0.1577  1.0064  1.3387
 2130TIP3    H230586   6.900   7.060  16.889  1.4697 -0.2522  1.6272
 2131TIP3   OH230587   5.976   6.045  17.336 -0.4072  0.2597  0.1962
 2131TIP3    H130588   5.929   6.068  17.416 -1.3420 -1.1488  0.1004
 2131TIP3    H230589   5.908   6.009  17.279  0.6598 -1.1574 -0.2270
 2132TIP3   OH230590   5.217   0.490  18.432  0.3187 -0.7125  0.5236
 2132TIP3    H130591   5.149   0.536  18.383  0.1117 -0.8837  0.6478
 2132TIP3    H230592   5.292   0.550  18.432 -1.1814  1.4841  4.0999
 2133TIP3   OH230593   2.179   0.042  18.103 -0.5313 -0.4256  0.0995
 2133TIP3    H130594   2.216   0.121  18.143  0.4453 -1.2783  0.9451
 2133TIP3    H230595   2.223  -0.031  18.148 -1.7389 -1.4660 -0.3264
 2134TIP3   OH230596   4.342   2.893  18.737 -0.1730  0.5139 -0.3243
 2134TIP3    H130597   4.280   2.871  18.667 -3.4694  0.4500  2.3763
 2134TIP3    H230598   4.383   2.809  18.758 -3.0538 -0.6652  1.1842
 2135TIP3   OH230599   6.422   5.505  19.718 -0.1438  0.6942  0.4264
 2135TIP3    H130600   6.498   5.545  19.677  0.0668  0.3599  0.4911
 2135TIP3    H230601   6.450   5.483  19.806  0.0170 -0.3625  0.1290
 2136TIP3   OH230602   0.022   0.042  17.612 -0.3515  0.3017 -0.4351
 2136TIP3    H130603   0.036  -0.041  17.568 -0.9603  0.0036 -0.0702
 2136TIP3    H230604   0.107   0.087  17.606  1.0256 -1.6674  2.1948
 2137TIP3   OH230605   1.446   5.552  19.356 -0.1838 -0.5233  1.1577
 2137TIP3    H130606   1.483   5.469  19.328 -0.4406  0.0336 -1.0233
 2137TIP3    H230607   1.351   5.541  19.345 -0.1930  0.1677  0.5082
 2138TIP3   OH230608   0.889   7.209  17.467 -0.1702 -0.5234 -0.0187
 2138TIP3    H130609   0.925   7.160  17.393  2.3216 -0.4546  1.0400
 2138TIP3    H230610   0.937   7.291  17.467 -0.7834 -0.1356  1.1240
 2139TIP3   OH230611   0.659   3.601  18.003  0.5847 -0.5198 -0.8744
 2139TIP3    H130612   0.674   3.683  18.051 -0.2091 -1.1896  0.5680
 2139TIP3    H230613   0.570   3.609  17.969  0.6903 -0.5884 -1.1729
 2140TIP3   OH230614   0.451   6.395  17.803  0.4901 -0.2198  0.2654
 2140TIP3    H130615   0.513   6.374  17.873  0.6898 -0.4068  0.0303
 2140TIP3    H230616   0.491   6.468  17.756  1.2154 -1.2704 -0.7759
 2141TIP3   OH230617   6.293   6.370  18.301 -0.5578 -0.1691 -0.2517
 2141TIP3    H130618   6.244   6.410  18.228 -0.3127 -1.9500 -1.4673
 2141TIP3    H230619   6.232   6.306  18.337 -0.6210  0.6056  1.0722
 2142TIP3   OH230620   7.341   2.083  16.886  0.0882  0.1925  0.3326
 2142TIP3    H130621   7.416   2.065  16.943  1.2449  0.7563 -0.9425
 2142TIP3    H230622   7.336   2.007  16.828 -1.3594 -0.5870  1.4389
 2143TIP3   OH230623   6.789   2.584  19.141 -0.6077 -1.3674  0.0773
 2143TIP3    H130624   6.834   2.610  19.060 -1.7277 -0.7365 -0.3684
 2143TIP3    H230625   6.828   2.639  19.209  1.3146 -2.8482  0.2652
 2144TIP3   OH230626   1.050   5.560  19.939  0.0680  0.0192 -0.0548
 2144TIP3    H130627   1.098   5.543  20.020  1.0359  0.0888 -0.5974
 2144TIP3    H230628   1.096   5.633  19.898  0.4016 -0.8595 -1.3036
 2145TIP3   OH230629   4.118   5.762  18.365  0.7517 -0.5853 -0.5117
 2145TIP3    H130630   4.050   5.764  18.433  0.5192  0.1356 -0.7648
 2145TIP3    H230631   4.142   5.853  18.352  1.3893 -0.7912 -0.8138
 2146TIP3   OH230632   6.640   7.468  16.501 -0.4542 -0.6808 -0.0505
 2146TIP3    H130633   6.602   7.554  16.520  1.1918  0.1511 -0.3436
 2146TIP3    H230634   6.571   7.422  16.453 -1.6711  0.1576  0.8256
 2147TIP3   OH230635   2.644   4.913  19.106 -0.3281 -0.5741  0.0690
 2147TIP3    H130636   2.628   4.917  19.200 -0.8897 -0.4103 -0.0300
 2147TIP3    H230637   2.660   5.004  19.081 -0.7479 -0.5383 -0.0860
 2148TIP3   OH230638   3.488   1.882  17.891 -0.5059 -0.1779 -0.1585
 2148TIP3    H130639   3.438   1.894  17.972  0.1292 -1.9924  0.5643
 2148TIP3    H230640   3.479   1.965  17.845  0.5386  1.6222  2.5914
 2149TIP3   OH230641   3.314   3.299  17.231  0.1391  0.9763  0.0619
 2149TIP3    H130642   3.281   3.266  17.148 -1.2397  0.0806  0.9229
 2149TIP3    H230643   3.408   3.282  17.228 -0.2409 -1.2552 -0.3503
 2150TIP3   OH230644   5.116   2.333  18.750 -0.0353  0.0189 -0.2128
 2150TIP3    H130645   5.155   2.419  18.765  2.2537 -0.8890 -0.5896
 2150TIP3    H230646   5.133   2.315  18.658 -0.0980 -1.0265 -0.0282
 2151TIP3   OH230647   1.674   0.695  17.593  0.3518  0.3132 -0.4538
 2151TIP3    H130648   1.628   0.673  17.674  0.3062 -1.8839 -1.0066
 2151TIP3    H230649   1.605   0.718  17.531  0.2213 -0.0555 -0.4468
 2152TIP3   OH230650   7.634   4.602  17.529  0.4588  0.3876  0.3250
 2152TIP3    H130651   7.567   4.655  17.485 -0.3349  0.4947  1.6233
 2152TIP3    H230652   7.623   4.621  17.622  1.2860 -0.7706  0.6819
 2153TIP3   OH230653   2.477   2.249  17.345 -0.2812 -0.3981  0.2946
 2153TIP3    H130654   2.509   2.205  17.267  1.0935 -1.2060  1.2893
 2153TIP3    H230655   2.554   2.262  17.400 -1.2166  0.1453  1.5398
 2154TIP3   OH230656   7.197   5.370  16.733 -0.4634 -0.2517  0.1147
 2154TIP3    H130657   7.123   5.414  16.691  0.0616  1.6211  1.0597
 2154TIP3    H230658   7.224   5.430  16.802  1.0683 -1.5428  0.6783
 2155TIP3   OH230659   3.461   5.253  17.948  0.0394 -0.2920  0.4928
 2155TIP3    H130660   3.389   5.315  17.957 -0.5536 -0.9074  0.0891
 2155TIP3    H230661   3.490   5.236  18.038 -1.0747 -0.9082  0.7486
 2156TIP3   OH230662   1.697   3.113  17.028 -0.2115 -0.0900  0.0028
 2156TIP3    H130663   1.782   3.127  16.986  0.0126  0.4905  0.6321
 2156TIP3    H230664   1.716   3.056  17.103 -0.4457 -0.3165 -0.1095
 2157TIP3   OH230665   2.574   3.167  17.654  0.3358 -0.0620 -0.4886
 2157TIP3    H130666   2.482   3.166  17.629  0.6051  0.0002 -1.5045
 2157TIP3    H230667   2.605   3.254  17.630  0.2852  0.5260  1.3558
 2158TIP3   OH230668   6.992   0.334  18.446 -0.1686  0.3522  0.2477
 2158TIP3    H130669   6.944   0.253  18.465  0.0040  0.2066  0.0604
 2158TIP3    H230670   7.008   0.330  18.351  1.1146 -0.0877  0.4720
 2159TIP3   OH230671   0.634   4.815  18.883 -0.3122 -0.1070 -0.6873
 2159TIP3    H130672   0.642   4.729  18.842  0.9944 -0.6051  0.5166
 2159TIP3    H230673   0.554   4.852  18.846 -0.3476 -1.4008 -2.0111
 2160TIP3   OH230674   5.939   3.579  18.455  0.1816  0.1706  0.1746
 2160TIP3    H130675   5.934   3.522  18.532  0.1273 -0.5016 -0.3264
 2160TIP3    H230676   6.032   3.586  18.436  0.1229 -0.8901 -0.5969
 2161TIP3   OH230677   5.976   0.331  16.820 -0.4412  0.4194  0.5081
 2161TIP3    H130678   5.898   0.379  16.793  0.1345  0.6198 -0.8767
 2161TIP3    H230679   6.045   0.397  16.822 -0.4784  0.4995  2.8993
 2162TIP3   OH230680   5.880   5.163  19.023  0.1391 -0.5086  0.2213
 2162TIP3    H130681   5.814   5.123  18.966  0.1068 -0.8263  0.4795
 2162TIP3    H230682   5.892   5.251  18.987  0.1168 -0.7022 -0.2773
 2163TIP3   OH230683   5.222   4.366  17.214  0.0812  0.7420  0.7515
 2163TIP3    H130684   5.287   4.430  17.240  0.3361  1.8709 -2.2174
 2163TIP3    H230685   5.267   4.281  17.222  0.3607  1.0456  2.9230
 2164TIP3   OH230686   4.351   7.558  17.755  0.1524  0.2241 -0.4560
 2164TIP3    H130687   4.372   7.594  17.669  0.4807 -1.3043 -1.0423
 2164TIP3    H230688   4.270   7.603  17.780  0.5774  1.3899 -1.1157
 2165TIP3   OH230689   5.891   3.003  18.018  0.1668 -0.6606  0.5601
 2165TIP3    H130690   5.822   3.069  18.025 -1.2927 -1.6876 -2.4476
 2165TIP3    H230691   5.949   3.022  18.091 -0.9720  2.9812  0.7300
 2166TIP3   OH230692   4.768   2.005  18.618 -0.3929 -0.2842  0.1626
 2166TIP3    H130693   4.717   1.927  18.639 -0.7757  0.3038  1.4873
 2166TIP3    H230694   4.754   2.064  18.692  0.6896  0.6492 -0.3496
 2167TIP3   OH230695   0.546   6.017  17.284  0.1588 -0.6229 -0.1752
 2167TIP3    H130696   0.635   6.040  17.313 -0.6325  0.1723  1.8186
 2167TIP3    H230697   0.541   5.922  17.296  0.1595 -0.4382  1.6293
 2168TIP3   OH230698   3.915   6.345  19.003 -0.4377 -0.3340 -0.3755
 2168TIP3    H130699   3.964   6.404  19.060  0.8714 -0.8960 -0.8973
 2168TIP3    H230700   3.824   6.375  19.011  0.1107  1.4156 -0.2292
 2169TIP3   OH230701   5.807   6.552  17.794  0.1040 -0.3424  0.0562
 2169TIP3    H130702   5.827   6.488  17.725  1.1577 -0.3596  0.3749
 2169TIP3    H230703   5.720   6.526  17.825 -0.4128 -0.3209 -1.2697
 2170TIP3   OH230704   4.068   4.884  18.137  0.1263  0.2538  0.3632
 2170TIP3    H130705   4.100   4.970  18.111 -0.2719  0.3046  0.0112
 2170TIP3    H230706   3.986   4.902  18.183  0.6651  0.1384  1.3923
 2171TIP3   OH230707   7.019   3.156  17.574 -0.1080  0.2737 -0.1447
 2171TIP3    H130708   7.047   3.210  17.648  4.0166 -2.2850  0.4678
 2171TIP3    H230709   7.044   3.067  17.598 -1.1623 -1.0894 -3.4969
 2172TIP3   OH230710   3.029   6.973  18.178  0.2894 -0.4859 -0.2088
 2172TIP3    H130711   2.979   6.965  18.097 -0.6014  0.6418  0.1969
 2172TIP3    H230712   3.052   7.066  18.183  1.7401 -0.8316  0.0327
 2173TIP3   OH230713   6.623   7.289  19.603 -0.1115  0.4765 -0.3618
 2173TIP3    H130714   6.665   7.242  19.675  1.2180  0.4627 -1.1321
 2173TIP3    H230715   6.684   7.283  19.530 -2.2296 -1.1225 -2.1244
 2174TIP3   OH230716   2.299   1.126  18.750  0.2270 -0.8749  0.0676
 2174TIP3    H130717   2.234   1.185  18.789 -2.9160 -2.7356 -1.9282
 2174TIP3    H230718   2.303   1.052  18.811  1.5703 -0.2000  0.8458
 2175TIP3   OH230719   1.386   6.549  19.488 -0.2787 -0.0154 -0.3345
 2175TIP3    H130720   1.454   6.561  19.422  0.2642  0.3434  0.2734
 2175TIP3    H230721   1.419   6.596  19.565 -0.8429 -0.5148  0.2260
 2176TIP3   OH230722   6.436   7.161  17.165  0.2391  0.2700  0.0700
 2176TIP3    H130723   6.503   7.202  17.111 -0.0165 -0.9044 -1.2072
 2176TIP3    H230724   6.480   7.086  17.205 -0.8175 -2.1841 -2.9279
 2177TIP3   OH230725   4.058   1.215  18.304  0.7870 -0.1036  0.0686
 2177TIP3    H130726   4.130   1.237  18.245  1.5669  0.0796  1.0560
 2177TIP3    H230727   4.064   1.120  18.315 -0.1490 -0.3171 -1.1236
 2178TIP3   OH230728   1.482   5.937  19.561 -0.0304  0.1672 -0.3570
 2178TIP3    H130729   1.523   5.978  19.485  1.5905 -0.2678  0.2403
 2178TIP3    H230730   1.519   5.849  19.564 -1.4673 -0.4589 -0.1014
 2179TIP3   OH230731   4.538   4.183  17.863 -0.3864  0.0997  0.2328
 2179TIP3    H130732   4.448   4.161  17.887 -0.8556  0.0572 -1.3932
 2179TIP3    H230733   4.573   4.103  17.823 -0.0241  0.4609 -0.1907
 2180TIP3   OH230734   1.477   6.795  16.866 -0.2239  0.4895 -0.3305
 2180TIP3    H130735   1.425   6.727  16.910 -1.1551  1.2426 -0.2229
 2180TIP3    H230736   1.468   6.872  16.924  1.1874  0.5814 -0.2126
 2181TIP3   OH230737   1.397   3.605  16.760  0.4335 -0.4539 -0.4442
 2181TIP3    H130738   1.430   3.682  16.806  0.5519 -0.1419 -1.0318
 2181TIP3    H230739   1.306   3.625  16.742 -0.0509 -1.2433  1.0251
 2182TIP3   OH230740   4.460   1.461  18.359 -0.1523  0.2044  0.2618
 2182TIP3    H130741   4.542   1.506  18.339  0.6163 -1.1727  0.2235
 2182TIP3    H230742   4.465   1.441  18.452  0.5436 -1.7623 -0.1667
 2183TIP3   OH230743   1.897   5.465  18.789 -0.0247 -0.2040 -0.0040
 2183TIP3    H130744   1.913   5.542  18.735  0.2322 -0.0227  0.3260
 2183TIP3    H230745   1.803   5.449  18.781 -0.2645  0.7721  0.7524
 2184TIP3   OH230746   6.232   4.694  18.329 -0.7244 -0.4847 -0.3574
 2184TIP3    H130747   6.289   4.617  18.331 -0.6744 -0.5138 -2.0120
 2184TIP3    H230748   6.169   4.676  18.260 -1.0046  0.7651 -0.4522
 2185TIP3   OH230749   6.118   5.357  17.312  0.7754 -0.1347  0.0120
 2185TIP3    H130750   6.040   5.375  17.364  0.4280  1.0961 -0.8713
 2185TIP3    H230751   6.108   5.266  17.284 -0.9269  0.2990 -0.9652
 2186TIP3   OH230752   5.190   4.187  18.310  0.1262 -0.0262  0.0433
 2186TIP3    H130753   5.184   4.116  18.373  0.3417 -1.2434 -1.2703
 2186TIP3    H230754   5.284   4.207  18.305  0.3299 -1.2135 -1.2477
 2187TIP3   OH230755   2.326   1.194  17.808 -0.2309  0.2430 -0.2563
 2187TIP3    H130756   2.372   1.113  17.786 -0.5039 -0.2101  0.8046
 2187TIP3    H230757   2.360   1.258  17.745  1.5092 -0.1931  0.1827
 2188TIP3   OH230758   3.912   6.294  18.158  0.3245  0.1095 -0.3524
 2188TIP3    H130759   3.947   6.377  18.125 -1.1343  0.7432 -0.4074
 2188TIP3    H230760   3.817   6.307  18.157  0.1471 -0.8393  1.5523
 2189TIP3   OH230761   4.893   2.971  19.414  0.6483 -0.0818 -0.0124
 2189TIP3    H130762   4.838   3.045  19.442  1.5596  0.0176  1.6633
 2189TIP3    H230763   4.864   2.952  19.325 -1.2822  0.7176  0.3853
 2190TIP3   OH230764   4.180   6.811  17.565 -0.3519  0.0850 -0.4651
 2190TIP3    H130765   4.142   6.882  17.513 -0.8091  0.3730  0.2396
 2190TIP3    H230766   4.211   6.854  17.645 -2.3714 -0.7271  0.8579
 2191TIP3   OH230767   4.411   3.492  17.436  0.3120 -0.4175  0.3206
 2191TIP3    H130768   4.351   3.555  17.396  1.8419 -0.1618 -1.7537
 2191TIP3    H230769   4.371   3.471  17.521 -1.7253  1.1013 -0.1826
 2192TIP3   OH230770   7.276   7.511  18.965  0.6291 -0.2766 -0.0797
 2192TIP3    H130771   7.256   7.423  18.997 -0.5068  0.4677  1.4036
 2192TIP3    H230772   7.204   7.532  18.906 -1.1293  0.9458  2.3175
 2193TIP3   OH230773   0.284   2.751  16.654  0.7009  0.4711 -0.3605
 2193TIP3    H130774   0.199   2.793  16.640  1.1139  0.9518 -1.5665
 2193TIP3    H230775   0.288   2.682  16.588  0.4470 -0.8528  0.9643
 2194TIP3   OH230776   1.976   1.957  19.208  1.2147 -0.5014  0.1003
 2194TIP3    H130777   2.037   1.960  19.134  1.2910 -0.0392  0.1792
 2194TIP3    H230778   1.998   2.034  19.260  2.0069 -1.4870  1.2851
 2195TIP3   OH230779   1.190   2.121  17.315 -0.5898 -0.2632  0.0039
 2195TIP3    H130780   1.241   2.111  17.234 -0.9639  0.2777 -0.3055
 2195TIP3    H230781   1.254   2.108  17.385 -0.0294  0.3814 -0.3774
 2196TIP3   OH230782   5.728   4.597  18.891  0.0900 -0.2569 -0.3991
 2196TIP3    H130783   5.695   4.546  18.965 -0.7927  2.1245  0.9275
 2196TIP3    H230784   5.821   4.574  18.885  0.1922 -0.4413  1.4992
 2197TIP3   OH230785   6.688   0.859  17.376 -0.0688  0.0900 -0.1715
 2197TIP3    H130786   6.669   0.917  17.449 -0.0475 -0.4201  0.2459
 2197TIP3    H230787   6.652   0.774  17.402 -1.4845  0.2571 -1.4279
 2198TIP3   OH230788   2.049   7.641  19.196  0.1979  0.4742 -0.5065
 2198TIP3    H130789   2.074   7.717  19.144  1.6143  0.5436  0.2362
 2198TIP3    H230790   2.046   7.568  19.134 -1.4820  1.1471 -1.2861
 2199TIP3   OH230791   1.164   7.415  17.951  0.6751 -0.3188 -0.4335
 2199TIP3    H130792   1.073   7.429  17.975  0.7138 -0.0098 -0.4661
 2199TIP3    H230793   1.166   7.425  17.855  0.5829 -1.2076 -0.5336
 2200TIP3   OH230794   7.230   0.410  19.031 -0.5319 -0.0907  0.0065
 2200TIP3    H130795   7.151   0.389  19.081  0.5940 -1.5820  1.2546
 2200TIP3    H230796   7.269   0.324  19.011 -1.5368  0.2634 -4.6298
 2201TIP3   OH230797   4.099   1.357  17.960  0.1567  0.5095 -0.5041
 2201TIP3    H130798   4.084   1.319  17.873 -0.9877  1.0680 -0.5721
 2201TIP3    H230799   4.011   1.375  17.993  0.6287  1.7044  0.1404
 2202TIP3   OH230800   5.393   0.151  19.475 -0.1932  0.0028  0.2790
 2202TIP3    H130801   5.352   0.198  19.402 -0.6688 -0.4339  0.2574
 2202TIP3    H230802   5.402   0.061  19.444 -1.4730 -0.4587  1.1530
 2203TIP3   OH230803   4.183   0.339  18.607 -0.0225 -0.1036 -0.5056
 2203TIP3    H130804   4.260   0.298  18.646  0.2203 -1.4687 -2.3100
 2203TIP3    H230805   4.205   0.432  18.601  0.6626 -0.1688  0.8279
 2204TIP3   OH230806   0.882   4.173  17.908 -0.9161 -0.2485 -0.1135
 2204TIP3    H130807   0.918   4.107  17.849 -2.5204 -1.5257  0.2439
 2204TIP3    H230808   0.887   4.255  17.859  0.7058 -0.6812 -0.7524
 2205TIP3   OH230809   2.724   7.352  16.638 -0.1278 -0.2244  0.3976
 2205TIP3    H130810   2.740   7.419  16.703  1.1056  0.2286 -0.3558
 2205TIP3    H230811   2.806   7.303  16.633 -0.6195 -1.0372  0.0676
 2206TIP3   OH230812   3.681   3.034  18.954  0.1058  0.7133  0.4105
 2206TIP3    H130813   3.668   3.104  18.890  0.5917 -0.0523 -0.5707
 2206TIP3    H230814   3.771   3.046  18.985  0.5014  0.0438 -0.4131
 2207TIP3   OH230815   4.615   6.630  18.279 -0.2475 -0.0628 -0.4844
 2207TIP3    H130816   4.603   6.652  18.372 -1.6476  0.3621 -0.7345
 2207TIP3    H230817   4.555   6.689  18.233 -2.7068 -3.0313 -1.3694
 2208TIP3   OH230818   1.293   0.133  18.256 -0.0822  0.0571 -0.4101
 2208TIP3    H130819   1.255   0.065  18.200  0.1778  0.8394 -1.5682
 2208TIP3    H230820   1.386   0.109  18.262  0.6003  1.6375 -2.9730
 2209TIP3   OH230821   3.248   2.227  17.669  0.5301  0.3203 -0.1412
 2209TIP3    H130822   3.311   2.292  17.638  1.3259  0.2125  1.1707
 2209TIP3    H230823   3.202   2.199  17.590  3.1276 -0.6667 -1.4324
 2210TIP3   OH230824   2.648   2.735  19.120  0.5214 -0.3117 -0.2682
 2210TIP3    H130825   2.725   2.746  19.176  0.3643  0.1100 -0.1356
 2210TIP3    H230826   2.577   2.716  19.181  0.0505  1.5676 -0.1845
 2211TIP3   OH230827   1.903   3.113  17.711  0.0167 -0.2599  0.0994
 2211TIP3    H130828   1.956   3.170  17.766 -0.6212 -0.7150  1.2365
 2211TIP3    H230829   1.875   3.168  17.638  1.3333  0.2068 -0.0659
 2212TIP3   OH230830   3.116   2.431  17.846 -0.0390 -0.0600  0.3230
 2212TIP3    H130831   3.123   2.424  17.941  2.3125  0.9155  0.2880
 2212TIP3    H230832   3.179   2.368  17.812 -0.4378  0.0123 -0.5886
 2213TIP3   OH230833   0.385   1.427  17.857  0.4174 -0.8422 -0.6995
 2213TIP3    H130834   0.427   1.342  17.869 -0.2926 -0.8893  1.9858
 2213TIP3    H230835   0.295   1.407  17.831  0.1760 -0.9352  0.1916
 2214TIP3   OH230836   3.586   5.502  18.764  0.1250  0.1564 -0.0499
 2214TIP3    H130837   3.653   5.500  18.696  0.7647  1.8007  0.4839
 2214TIP3    H230838   3.634   5.512  18.846 -0.7627  2.2031  0.2756
 2215TIP3   OH230839   2.099   1.395  17.552 -0.2135  0.0080 -0.4368
 2215TIP3    H130840   2.094   1.482  17.591 -0.1183 -0.0949 -0.1908
 2215TIP3    H230841   2.191   1.385  17.528  0.0347 -0.4952  0.6481
 2216TIP3   OH230842   3.982   1.045  17.184  0.1766  0.6456 -0.1800
 2216TIP3    H130843   3.905   1.102  17.179 -0.8973 -0.8128 -0.9233
 2216TIP3    H230844   4.048   1.089  17.130 -0.6431  1.1651 -0.7722
 2217TIP3   OH230845   1.424   7.157  19.634 -0.0151  0.1154 -0.4077
 2217TIP3    H130846   1.473   7.119  19.562  0.8404 -0.0310  0.2437
 2217TIP3    H230847   1.403   7.083  19.691 -0.7450  0.2209 -0.5275
 2218TIP3   OH230848   5.278   3.290  17.696  0.9067 -0.1183  0.2933
 2218TIP3    H130849   5.295   3.346  17.620  0.0068 -0.3512 -0.0998
 2218TIP3    H230850   5.306   3.203  17.668 -0.0498 -0.3324 -0.0311
 2219TIP3   OH230851   6.289   6.656  16.483 -0.2387  0.4049 -0.1491
 2219TIP3    H130852   6.315   6.599  16.556 -0.3700  0.4841 -0.0419
 2219TIP3    H230853   6.203   6.624  16.457  0.9030 -1.4228 -2.0453
 2220TIP3   OH230854   4.636   5.557  18.740 -0.1185 -0.4452 -0.6115
 2220TIP3    H130855   4.567   5.492  18.755  0.7609 -1.1858  0.4286
 2220TIP3    H230856   4.643   5.604  18.824 -0.8301  1.1173 -1.3819
 2221TIP3   OH230857   0.078   3.848  18.278 -0.4962 -0.4676 -0.0616
 2221TIP3    H130858  -0.001   3.821  18.231 -0.1723 -1.2106 -0.1833
 2221TIP3    H230859   0.056   3.935  18.312 -0.7197  0.0965 -1.5865
 2222TIP3   OH230860   3.920   5.836  16.981 -0.8069 -0.2035 -0.2704
 2222TIP3    H130861   3.842   5.872  16.940 -0.6848 -0.8445 -1.1022
 2222TIP3    H230862   3.925   5.879  17.067 -0.5592  1.8567 -1.2743
 2223TIP3   OH230863   1.105   2.568  18.187  0.0795 -1.1488 -0.0043
 2223TIP3    H130864   1.149   2.580  18.271  0.3821  1.7268 -0.4680
 2223TIP3    H230865   1.017   2.602  18.201  0.3164 -0.0922 -0.9677
 2224TIP3   OH230866   0.765   6.784  17.973 -0.5443 -0.3839  0.2126
 2224TIP3    H130867   0.811   6.716  17.924  0.0777  0.5088 -0.4892
 2224TIP3    H230868   0.786   6.865  17.926 -0.3655  0.4418  1.6530
 2225TIP3   OH230869   3.507   1.730  17.640 -0.1209 -0.0847  0.0832
 2225TIP3    H130870   3.447   1.789  17.594  2.6323  2.2226 -0.8863
 2225TIP3    H230871   3.516   1.770  17.727  0.2351 -0.2019  0.1010
 2226TIP3   OH230872   4.228   0.772  17.908 -0.4257  0.0028 -0.2441
 2226TIP3    H130873   4.135   0.772  17.928 -0.9203 -2.7120 -2.0494
 2226TIP3    H230874   4.232   0.794  17.815  0.4900 -1.9481 -0.7240
 2227TIP3   OH230875   3.852   4.383  18.872  0.3427 -0.2126 -0.2602
 2227TIP3    H130876   3.890   4.301  18.903 -1.8105 -1.2600 -0.2248
 2227TIP3    H230877   3.856   4.441  18.947 -0.7153 -1.2545  0.6336
 2228TIP3   OH230878   5.801   7.549  17.517  0.1644  0.4163 -0.4137
 2228TIP3    H130879   5.766   7.638  17.508  2.0747  1.1003 -1.7127
 2228TIP3    H230880   5.827   7.524  17.428  0.7145 -1.0040  0.1120
 2229TIP3   OH230881   0.120   3.576  17.425  0.2903 -0.1836 -0.4338
 2229TIP3    H130882   0.173   3.523  17.484  0.2201 -1.6077 -1.6072
 2229TIP3    H230883   0.031   3.569  17.460  0.4367 -0.0423 -0.0327
 2230TIP3   OH230884   4.477   0.133  17.236 -0.6591  0.2744  0.3988
 2230TIP3    H130885   4.409   0.151  17.172  2.2129 -0.9398 -3.3757
 2230TIP3    H230886   4.528   0.214  17.241 -0.4392  0.1283  0.5762
 2231TIP3   OH230887   6.713   1.409  18.293  0.0914  0.4196 -0.2086
 2231TIP3    H130888   6.747   1.373  18.375 -2.5074 -1.5790  0.0989
 2231TIP3    H230889   6.688   1.499  18.315  1.6276  0.7010  0.5049
 2232TIP3   OH230890   3.077   4.566  17.404 -0.2103 -0.6549  0.3630
 2232TIP3    H130891   3.120   4.623  17.468  0.2858  0.0549 -0.5676
 2232TIP3    H230892   3.085   4.613  17.321  1.9478 -2.8755 -0.8522
 2233TIP3   OH230893   2.318   4.973  17.093  0.5162 -0.0207 -0.0886
 2233TIP3    H130894   2.256   4.919  17.044 -0.9207  2.1349 -0.7824
 2233TIP3    H230895   2.264   5.030  17.147  2.0015 -0.0776  1.5697
 2234TIP3   OH230896   7.507   3.892  19.298 -0.0776  0.1404  0.1743
 2234TIP3    H130897   7.586   3.849  19.331 -0.5130  0.3045  1.4660
 2234TIP3    H230898   7.539   3.967  19.249  0.6156 -0.5545 -0.4778
 2235TIP3   OH230899   6.157   5.087  18.848  0.0164 -0.5187 -0.6322
 2235TIP3    H130900   6.083   5.060  18.793 -0.5921 -1.3688  0.5559
 2235TIP3    H230901   6.171   5.179  18.826 -1.3485 -0.3646 -0.9460
 2236TIP3   OH230902   7.373   2.615  17.110 -0.3625  0.3120  0.0482
 2236TIP3    H130903   7.354   2.705  17.082  2.2423  0.1643 -2.6939
 2236TIP3    H230904   7.326   2.560  17.047  0.0337 -0.2069  0.1996
 2237TIP3   OH230905   1.368   2.484  19.456 -0.1232  0.2320  0.7991
 2237TIP3    H130906   1.329   2.420  19.396 -0.3571  1.7855 -0.7806
 2237TIP3    H230907   1.295   2.514  19.510 -0.0199 -0.7729  1.5200
 2238TIP3   OH230908   4.839   0.829  19.474 -0.4156 -0.1687  0.0124
 2238TIP3    H130909   4.898   0.754  19.477  1.5334  1.2432 -0.8259
 2238TIP3    H230910   4.897   0.905  19.465 -2.3240  1.4073  0.3427
 2239TIP3   OH230911   6.037   6.097  17.816 -0.4638 -0.2803 -0.3245
 2239TIP3    H130912   5.983   6.132  17.745 -2.6096  0.9938  1.8164
 2239TIP3    H230913   5.976   6.081  17.887  1.8234  0.2101  1.8825
 2240TIP3   OH230914   5.952   0.052  17.903  0.5471  0.0626  0.1310
 2240TIP3    H130915   6.024   0.045  17.966  1.1591  0.0818 -0.5464
 2240TIP3    H230916   5.964   0.139  17.863  0.6724 -0.2799 -0.5959
 2241TIP3   OH230917   4.063   5.472  18.751 -0.2258  0.4957 -0.5314
 2241TIP3    H130918   4.097   5.436  18.669  0.0390 -0.5910  0.0348
 2241TIP3    H230919   4.068   5.567  18.739  1.3516  0.3694 -1.1469
 2242TIP3   OH230920   2.450   1.873  17.264 -0.2917 -0.0656 -0.6552
 2242TIP3    H130921   2.496   1.791  17.245 -0.9317 -0.7072  0.4732
 2242TIP3    H230922   2.425   1.906  17.177  1.0175 -0.4364 -1.2011
 2243TIP3   OH230923   4.415   5.322  18.318  0.4010  0.4025  0.0749
 2243TIP3    H130924   4.437   5.386  18.250 -0.5579  1.1297  0.4360
 2243TIP3    H230925   4.373   5.250  18.271  0.8017  0.3693 -0.2393
 2244TIP3   OH230926   2.815   0.908  17.162  0.7006 -0.1428 -0.1616
 2244TIP3    H130927   2.750   0.960  17.210 -0.3192 -0.6096 -0.9731
 2244TIP3    H230928   2.819   0.950  17.076 -0.0084 -1.2623 -0.7703
 2245TIP3   OH230929   3.267   0.826  16.952  0.2748  0.1184  0.6232
 2245TIP3    H130930   3.343   0.832  16.895  0.1824 -0.4913  0.4202
 2245TIP3    H230931   3.297   0.774  17.027 -0.9084 -3.6695 -1.2627
 2246TIP3   OH230932   5.162   5.558  17.498 -0.0865  0.0906  0.7494
 2246TIP3    H130933   5.254   5.536  17.480 -0.2139  0.0231  0.1582
 2246TIP3    H230934   5.164   5.600  17.583  0.6227  0.9232  0.3407
 2247TIP3   OH230935   2.659   3.026  17.362  0.7144  0.3867 -0.9194
 2247TIP3    H130936   2.681   3.115  17.391 -0.8727  0.8428 -1.0041
 2247TIP3    H230937   2.618   2.985  17.439  0.8425 -0.0467 -1.0794
 2248TIP3   OH230938   0.934   6.871  17.504  0.0442 -0.9937 -0.5005
 2248TIP3    H130939   0.896   6.894  17.419  0.8143 -2.3259 -1.2434
 2248TIP3    H230940   1.018   6.918  17.506  0.2341 -1.3224 -0.6830
 2249TIP3   OH230941   3.484   4.524  18.573 -0.5737  0.5412 -0.0619
 2249TIP3    H130942   3.579   4.526  18.587 -0.9290  1.0842  2.7702
 2249TIP3    H230943   3.452   4.455  18.631 -2.1435  2.1459  1.0849
 2250TIP3   OH230944   3.992   5.031  18.948  0.0354  0.4301  0.0313
 2250TIP3    H130945   3.947   4.960  18.903 -2.1505  1.7329 -0.0211
 2250TIP3    H230946   3.965   5.022  19.040  1.3552  0.0519  0.4013
 2251TIP3   OH230947   0.279   6.684  17.957 -0.4368 -0.0858 -0.1521
 2251TIP3    H130948   0.369   6.716  17.966 -0.0757 -0.8290 -0.9959
 2251TIP3    H230949   0.225   6.763  17.959  0.1074  0.3019  1.6283
 2252TIP3   OH230950   1.459   6.739  17.995 -0.5616 -0.0404  0.0018
 2252TIP3    H130951   1.444   6.802  17.925  1.0520  1.1477  0.6802
 2252TIP3    H230952   1.462   6.791  18.075  0.9902 -0.9034  0.5654
 2253TIP3   OH230953   1.357   0.321  18.632  0.1859 -0.3057 -0.3432
 2253TIP3    H130954   1.438   0.368  18.651  0.4244 -0.2536 -1.4386
 2253TIP3    H230955   1.313   0.374  18.564 -2.2297  1.2883  2.2254
 2254TIP3   OH230956   2.194   7.076  18.148  0.0438  0.0587 -0.6928
 2254TIP3    H130957   2.103   7.104  18.156  0.4640  1.1090  0.7664
 2254TIP3    H230958   2.206   7.061  18.054 -1.3303  0.9205 -1.0359
 2255TIP3   OH230959   4.507   4.530  19.447  0.5273  0.2963  0.2856
 2255TIP3    H130960   4.455   4.607  19.423 -2.0548 -1.7688 -1.3605
 2255TIP3    H230961   4.490   4.517  19.540 -2.1468 -0.3323 -0.2043
 2256TIP3   OH230962   7.390   5.511  17.912 -0.4697  0.3179  0.2800
 2256TIP3    H130963   7.343   5.595  17.912 -1.3656 -0.1054  2.2997
 2256TIP3    H230964   7.473   5.530  17.956 -0.8337  0.0933  1.0826
 2257TIP3   OH230965   2.085   5.135  17.793 -0.4244  0.0723 -0.3148
 2257TIP3    H130966   2.032   5.056  17.803 -2.0287  0.8059 -2.3677
 2257TIP3    H230967   2.140   5.118  17.716  0.8304  0.1658  0.5210
 2258TIP3   OH230968   4.551   5.009  18.735  0.3838 -0.3557 -0.4047
 2258TIP3    H130969   4.552   5.086  18.678 -0.8596  0.0260  0.0614
 2258TIP3    H230970   4.460   4.977  18.730  0.7156 -1.3968 -0.0651
 2259TIP3   OH230971   5.727   1.363  18.005  0.0696  0.2006  0.0954
 2259TIP3    H130972   5.778   1.389  18.081  1.0894 -0.3815 -0.3631
 2259TIP3    H230973   5.644   1.331  18.041  0.0987  0.9726  0.8704
 2260TIP3   OH230974   3.326   6.654  17.214 -0.0703 -0.5129  0.0833
 2260TIP3    H130975   3.288   6.696  17.137 -0.3271 -1.1896 -0.1662
 2260TIP3    H230976   3.326   6.722  17.281  2.8529  1.0481 -1.2912
 2261TIP3   OH230977   7.181   6.548  16.965  0.0552 -0.1566  0.1417
 2261TIP3    H130978   7.094   6.542  16.927  0.4678 -2.0123 -0.5819
 2261TIP3    H230979   7.201   6.642  16.965 -0.8658  0.0908 -2.1452
 2262TIP3   OH230980   5.021   3.413  17.731 -0.2784  0.1254 -0.1327
 2262TIP3    H130981   5.107   3.371  17.723 -1.1982 -2.4023  1.8681
 2262TIP3    H230982   4.976   3.394  17.649 -0.1595 -1.7163  0.1907
 2263TIP3   OH230983   2.875   4.899  17.857 -0.3146  0.4213 -0.0042
 2263TIP3    H130984   2.814   4.914  17.930 -1.1278  0.3317 -0.6502
 2263TIP3    H230985   2.931   4.828  17.888  0.3569  1.4045  1.1263
 2264TIP3   OH230986   7.537   2.702  17.380 -0.1741  0.0794  0.2342
 2264TIP3    H130987   7.587   2.632  17.423 -0.6652  0.8185  2.0841
 2264TIP3    H230988   7.601   2.748  17.326  0.1991 -1.6395 -0.8782
 2265TIP3   OH230989   3.117   2.780  17.008  0.2358  0.2445 -0.0971
 2265TIP3    H130990   3.176   2.847  16.971  0.2693  0.1607 -0.1977
 2265TIP3    H230991   3.031   2.821  17.007  0.3432  0.4829  0.3408
 2266TIP3   OH230992   1.979   3.814  16.765  0.0432 -0.5186 -0.3886
 2266TIP3    H130993   1.986   3.721  16.785 -1.0732 -0.6067 -0.3514
 2266TIP3    H230994   1.906   3.845  16.818 -0.0446  0.2235 -0.9170
 2267TIP3   OH230995   0.560   6.194  17.546  0.2284  0.1979  0.3856
 2267TIP3    H130996   0.563   6.140  17.625 -0.4846  0.5254  0.6392
 2267TIP3    H230997   0.502   6.146  17.487 -0.8773  0.9510  0.8282
 2268TIP3   OH230998   3.876   3.969  16.807 -0.1972  0.1677 -0.3339
 2268TIP3    H130999   3.822   3.915  16.749  1.2641  0.5908 -2.1943
 2268TIP3    H231000   3.943   3.909  16.840 -0.6828  0.0628  0.4923
 2269TIP3   OH231001   5.426   4.301  18.709 -0.2200 -0.1236 -0.1294
 2269TIP3    H131002   5.512   4.287  18.748  0.2987 -0.3972 -1.3220
 2269TIP3    H231003   5.394   4.213  18.690  0.0867  0.0294 -1.4398
 2270TIP3   OH231004   5.891   7.050  16.332  0.2163  0.1524  0.2679
 2270TIP3    H131005   5.907   6.964  16.371 -1.0531  0.4634  1.5509
 2270TIP3    H231006   5.799   7.068  16.351  0.4268  1.7331 -0.1002
 2271TIP3   OH231007   3.559   3.369  19.420  0.2269  0.3464 -0.5245
 2271TIP3    H131008   3.490   3.396  19.359 -0.7686 -0.3793  0.2486
 2271TIP3    H231009   3.545   3.275  19.432  1.8204  0.0314 -0.9111
 2272TIP3   OH231010   5.814   1.306  19.262 -0.1075  0.3304  0.1399
 2272TIP3    H131011   5.840   1.242  19.196  0.9008  0.8532 -0.0014
 2272TIP3    H231012   5.830   1.262  19.346 -0.0315  0.1734  0.0436
 2273TIP3   OH231013   2.535   4.868  16.962  0.3937  0.7220  0.3096
 2273TIP3    H131014   2.470   4.921  17.008 -0.3032  0.5033 -0.4011
 2273TIP3    H231015   2.599   4.931  16.928 -0.3174  1.1075 -0.3529
 2274TIP3   OH231016   1.467   1.837  18.493  0.5864  0.2631 -0.0473
 2274TIP3    H131017   1.461   1.932  18.502  1.3288  0.3617 -0.5460
 2274TIP3    H231018   1.452   1.803  18.582 -0.8577  0.7767 -0.0714
 2275TIP3   OH231019   0.958   6.665  17.149 -0.1148 -0.5926  0.0486
 2275TIP3    H131020   0.890   6.642  17.212  1.3081  0.9092  2.2649
 2275TIP3    H231021   0.963   6.589  17.091 -2.1443 -1.6489  1.1419
 2276TIP3   OH231022   5.653   1.544  18.981 -0.3137 -0.2829  0.5486
 2276TIP3    H131023   5.643   1.448  18.986 -0.1429 -0.4653 -1.6351
 2276TIP3    H231024   5.565   1.578  18.992 -0.8169 -0.8847 -1.3070
 2277TIP3   OH231025   6.884   3.615  17.596 -0.2663 -0.1230  0.3830
 2277TIP3    H131026   6.863   3.705  17.619 -0.2276 -0.0125 -0.0082
 2277TIP3    H231027   6.932   3.582  17.672 -0.4936  0.1076  0.6292
 2278TIP3   OH231028   3.839   2.397  18.272  0.1782 -0.3313 -0.2783
 2278TIP3    H131029   3.829   2.369  18.181 -1.4378  1.2625 -0.6481
 2278TIP3    H231030   3.872   2.487  18.266  2.3088 -0.9651  0.8045
 2279TIP3   OH231031   2.317   6.830  18.113  0.6122  0.4005  0.2310
 2279TIP3    H131032   2.293   6.921  18.126  0.6466  0.2972  1.0895
 2279TIP3    H231033   2.250   6.780  18.159  1.4417  0.0528  1.0958
 2280TIP3   OH231034   7.509   1.352  18.397  0.0833  0.5369 -0.1437
 2280TIP3    H131035   7.466   1.399  18.325  0.2462  1.4506  0.3457
 2280TIP3    H231036   7.595   1.392  18.403  0.2181  0.1801  0.2981
 2281TIP3   OH231037   3.868   6.837  17.454 -0.0573  0.5729  0.2848
 2281TIP3    H131038   3.812   6.854  17.378 -0.2109  0.5059  0.3834
 2281TIP3    H231039   3.921   6.916  17.463  1.3916 -0.1953 -1.1250
 2282TIP3   OH231040   2.215   0.096  19.628  0.1925  0.2355 -0.2450
 2282TIP3    H131041   2.161   0.125  19.701  1.6622 -1.3449  1.5488
 2282TIP3    H231042   2.230   0.003  19.644  0.0308 -0.3523 -2.9406
 2283TIP3   OH231043   0.825   6.798  18.246 -0.6083 -0.1748 -1.0017
 2283TIP3    H131044   0.809   6.783  18.153 -0.6724 -0.8316 -0.8929
 2283TIP3    H231045   0.757   6.746  18.290 -0.4815  0.0079 -0.5859
 2284TIP3   OH231046   0.124   2.100  18.545  0.0942 -0.4177  0.1144
 2284TIP3    H131047   0.212   2.131  18.525  0.5869 -0.9938  1.2935
 2284TIP3    H231048   0.126   2.081  18.639 -1.3548 -0.2253  0.2120
 2285TIP3   OH231049   3.095   6.706  18.821  0.2497 -0.6105 -0.4199
 2285TIP3    H131050   3.043   6.635  18.858  1.2867 -0.8916  0.5715
 2285TIP3    H231051   3.031   6.765  18.782 -0.7275 -1.4324 -0.1067
 2286TIP3   OH231052   3.935   4.716  17.734 -0.5050 -0.2003  0.2652
 2286TIP3    H131053   3.929   4.624  17.756 -0.3595 -0.1135  0.6760
 2286TIP3    H231054   3.968   4.717  17.644 -0.5887 -0.5454  0.2290
 2287TIP3   OH231055   3.397   4.114  18.145  0.1475  0.1039  0.5324
 2287TIP3    H131056   3.413   4.034  18.197 -1.0373 -0.1438  0.5433
 2287TIP3    H231057   3.480   4.162  18.150  0.5065 -0.5679  1.5096
 2288TIP3   OH231058   6.490   0.813  16.766 -0.3775  0.6329  0.3647
 2288TIP3    H131059   6.491   0.908  16.769  0.2201  0.8098 -2.4121
 2288TIP3    H231060   6.464   0.792  16.676 -0.2555 -1.8158  0.8193
 2289TIP3   OH231061   2.935   4.532  18.194 -0.4463 -0.0601  0.6114
 2289TIP3    H131062   2.841   4.530  18.180 -0.3995  0.6028  0.1322
 2289TIP3    H231063   2.946   4.568  18.282 -0.6027  2.9050 -0.4619
 2290TIP3   OH231064   4.598   2.867  18.590 -0.2740  0.2479 -0.3730
 2290TIP3    H131065   4.540   2.943  18.595 -1.1651 -0.4606  0.8380
 2290TIP3    H231066   4.685   2.903  18.573 -0.7064  1.5194  0.0296
 2291TIP3   OH231067   1.118   1.247  17.592 -0.1332  0.4260 -0.4757
 2291TIP3    H131068   1.049   1.201  17.640  1.1827 -0.8012  0.3284
 2291TIP3    H231069   1.179   1.277  17.660  0.8063  0.2880 -1.2265
 2292TIP3   OH231070   0.720   7.395  17.965 -0.4672  0.4500 -0.0748
 2292TIP3    H131071   0.815   7.406  17.953 -0.2693 -1.0831 -0.0658
 2292TIP3    H231072   0.690   7.481  17.996  0.9918  0.8208  0.4107
 2293TIP3   OH231073   4.780   5.613  18.987  0.0663  0.1610 -0.1328
 2293TIP3    H131074   4.841   5.567  18.929 -1.0276  1.3675 -2.3543
 2293TIP3    H231075   4.774   5.701  18.951 -0.9891  0.8724  1.6204
 2294TIP3   OH231076   3.829   7.680  16.292 -0.2897 -0.3515 -0.6705
 2294TIP3    H131077   3.793   7.708  16.376  2.2615  0.2362  0.3151
 2294TIP3    H231078   3.828   7.760  16.239 -1.4485 -0.6147 -1.0956
 2295TIP3   OH231079   6.915   5.749  16.546  0.2315 -0.5650  0.0503
 2295TIP3    H131080   6.870   5.829  16.519 -1.0321 -1.5656 -0.8982
 2295TIP3    H231081   6.988   5.780  16.599 -0.3869  1.2055 -0.0656
 2296TIP3   OH231082   2.225   6.222  17.806 -0.0603  0.0655  0.1171
 2296TIP3    H131083   2.178   6.139  17.812  1.0320 -0.5104  1.1415
 2296TIP3    H231084   2.192   6.275  17.878 -1.2430  0.8113 -0.9356
 2297TIP3   OH231085   1.369   1.685  19.531 -0.4206 -0.1813 -0.1263
 2297TIP3    H131086   1.353   1.595  19.560 -2.6447  0.0040 -0.6459
 2297TIP3    H231087   1.297   1.736  19.568 -0.2143  1.0523 -1.3542
 2298TIP3   OH231088   7.038   4.089  16.899  0.1748  0.3198  0.2055
 2298TIP3    H131089   7.082   4.008  16.872  1.4569  0.9650  0.2494
 2298TIP3    H231090   6.946   4.076  16.875  0.3497 -1.1445  0.2291
 2299TIP3   OH231091   6.579   7.432  17.410  0.0021 -0.4040 -0.3517
 2299TIP3    H131092   6.595   7.373  17.484  0.1956 -0.8979 -0.7758
 2299TIP3    H231093   6.666   7.448  17.374  0.0257  0.6713  0.1463
 2300TIP3   OH231094   2.081   4.204  19.073 -0.0907  0.1510  0.1795
 2300TIP3    H131095   2.036   4.288  19.085 -2.4207 -1.2121  1.6578
 2300TIP3    H231096   2.011   4.139  19.071  1.6564 -1.8132 -0.7282
 2301TIP3   OH231097   0.411   1.861  18.549 -0.1008  0.2959  0.2171
 2301TIP3    H131098   0.348   1.806  18.502  1.1398  0.3232 -1.6007
 2301TIP3    H231099   0.458   1.908  18.480  1.2567  1.0042  1.5555
 2302TIP3   OH231100   2.139   0.865  17.741  0.1967  0.4542  0.2193
 2302TIP3    H131101   2.180   0.856  17.655  2.1325 -1.6578  1.2668
 2302TIP3    H231102   2.045   0.867  17.723  0.4094 -2.5625 -1.8274
 2303TIP3   OH231103   1.072   3.179  19.379 -0.6203 -0.1627  0.2321
 2303TIP3    H131104   1.039   3.238  19.447 -4.3676 -1.2134 -0.4598
 2303TIP3    H231105   1.047   3.092  19.410 -1.0026 -0.7909 -1.7540
 2304TIP3   OH231106   2.390   6.474  19.583  0.2515 -0.2133 -0.0973
 2304TIP3    H131107   2.332   6.398  19.586 -2.2118  1.5262 -0.2920
 2304TIP3    H231108   2.470   6.446  19.627 -1.0178 -2.5187  0.9040
 2305TIP3   OH231109   0.897   5.285  18.857  0.1300 -0.9600  0.1997
 2305TIP3    H131110   0.924   5.220  18.922  0.2911 -2.2009 -1.0859
 2305TIP3    H231111   0.852   5.235  18.790 -1.4809  0.5175  0.1127
 2306TIP3   OH231112   0.507   7.252  18.077  0.3300 -0.0182  0.2929
 2306TIP3    H131113   0.483   7.193  18.005  0.6823 -0.4573  0.5305
 2306TIP3    H231114   0.584   7.298  18.045  0.7227 -0.4979  0.5347
 2307TIP3   OH231115   5.426   0.620  18.052  0.1073 -0.3610 -0.1609
 2307TIP3    H131116   5.453   0.565  18.126 -2.1977 -0.0325  1.0292
 2307TIP3    H231117   5.330   0.622  18.058  0.0107  2.2533 -1.2633
 2308TIP3   OH231118   5.112   5.392  18.287  0.0706  0.0967  0.0815
 2308TIP3    H131119   5.046   5.442  18.238  0.2960  0.2473 -0.0718
 2308TIP3    H231120   5.064   5.317  18.322 -0.9359  1.7890  2.6162
 2309TIP3   OH231121   6.162   5.684  17.145 -0.0761 -0.2572  0.4298
 2309TIP3    H131122   6.067   5.670  17.147  0.0586 -1.2601  2.1915
 2309TIP3    H231123   6.196   5.613  17.090 -0.3356  0.1239 -0.2329
 2310TIP3   OH231124   4.292   1.530  18.826 -0.7541  0.4569 -0.1228
 2310TIP3    H131125   4.339   1.569  18.900  1.1312  1.1626 -1.6048
 2310TIP3    H231126   4.211   1.582  18.819 -1.3217 -0.0706  1.8029
 2311TIP3   OH231127   6.797   1.991  19.049 -0.1718  0.1991  0.1315
 2311TIP3    H131128   6.848   2.060  19.091  0.4330  0.7678 -1.4606
 2311TIP3    H231129   6.861   1.925  19.024  0.0331  1.3234 -2.6839
 2312TIP3   OH231130   0.257   1.979  17.526  0.0845  0.0569  0.0510
 2312TIP3    H131131   0.269   2.038  17.451  0.4648  0.6873  0.5934
 2312TIP3    H231132   0.334   1.922  17.523  2.0243  2.3198  1.9212
 2313TIP3   OH231133   2.438   2.202  19.014 -0.1966  0.0883 -0.3787
 2313TIP3    H131134   2.377   2.247  19.072 -1.4202 -0.8430 -0.9174
 2313TIP3    H231135   2.426   2.109  19.033  2.1024 -0.0922  0.5271
 2314TIP3   OH231136   2.109   4.657  19.401  0.0641 -0.2399  0.5932
 2314TIP3    H131137   2.124   4.676  19.309  1.0038  1.0721  0.9879
 2314TIP3    H231138   2.141   4.568  19.413  0.4058 -0.2340 -0.2300
 2315TIP3   OH231139   1.013   1.060  18.748  0.4165 -0.0451 -0.5365
 2315TIP3    H131140   0.943   0.996  18.753  0.2860  0.1389  0.0924
 2315TIP3    H231141   0.981   1.126  18.687 -0.1443  0.2543  0.0674
 2316TIP3   OH231142   0.082   6.936  19.482  0.1032 -0.2028 -0.3221
 2316TIP3    H131143   0.056   6.866  19.542 -1.0587  0.5856  0.1250
 2316TIP3    H231144   0.022   7.008  19.502  0.9744  0.7584 -1.0974
 2317TIP3   OH231145   6.995   5.353  19.374 -0.0410  0.1550  0.3563
 2317TIP3    H131146   7.063   5.421  19.371 -1.1504  1.3125  0.7659
 2317TIP3    H231147   7.002   5.308  19.290  0.7477  0.7408  0.0975
 2318TIP3   OH231148   5.312   4.871  18.920 -0.9545  0.0271 -0.4875
 2318TIP3    H131149   5.361   4.888  19.000 -0.9464  0.9131 -0.6735
 2318TIP3    H231150   5.349   4.931  18.855  0.1442 -1.7987 -1.6210
 2319TIP3   OH231151   2.674   0.508  18.496  0.1288 -0.2984 -0.2955
 2319TIP3    H131152   2.710   0.445  18.558  2.4737  0.5142 -0.7454
 2319TIP3    H231153   2.677   0.464  18.412 -0.0425 -0.2668 -0.3195
 2320TIP3   OH231154   7.535   7.111  18.456  0.3034 -0.1116 -0.1177
 2320TIP3    H131155   7.628   7.120  18.437  0.2438  1.4255  0.2206
 2320TIP3    H231156   7.519   7.017  18.453  1.6355 -0.3288 -1.2392
 2321TIP3   OH231157   2.130   4.423  18.806 -0.3044 -0.2417  0.2000
 2321TIP3    H131158   2.182   4.368  18.865 -1.3248 -1.3499  0.1094
 2321TIP3    H231159   2.123   4.372  18.726 -2.1898 -0.5014  0.4915
 2322TIP3   OH231160   4.013   4.033  17.487 -0.5441  0.0092  0.0729
 2322TIP3    H131161   3.944   4.030  17.420 -1.0908 -0.7900  0.6595
 2322TIP3    H231162   4.073   4.102  17.456 -1.0817  0.0434 -0.9431
 2323TIP3   OH231163   4.634   0.860  17.265 -0.5585  0.1127  0.1420
 2323TIP3    H131164   4.658   0.817  17.347  2.7432  1.8097  0.2489
 2323TIP3    H231165   4.698   0.826  17.201 -3.0875 -1.2208 -1.8638
 2324TIP3   OH231166   4.186   0.912  19.185 -0.1707 -0.0392 -0.2658
 2324TIP3    H131167   4.233   0.849  19.241 -1.1983  0.4336  1.2046
 2324TIP3    H231168   4.210   0.998  19.220 -1.1164  0.2532 -0.3082
 2325TIP3   OH231169   0.934   4.209  18.183 -0.8168  0.0579  1.1761
 2325TIP3    H131170   0.949   4.303  18.177 -0.7663  0.0442  1.0859
 2325TIP3    H231171   0.910   4.182  18.094 -0.2201 -0.1217  1.0674
 2326TIP3   OH231172   6.740   5.254  17.686  0.3669 -0.8062  0.0456
 2326TIP3    H131173   6.671   5.295  17.634  0.6291  0.2961  0.5248
 2326TIP3    H231174   6.714   5.269  17.777  1.3553 -0.1133  0.2338
 2327TIP3   OH231175   1.334   1.744  16.899 -0.6652  0.1320  0.4187
 2327TIP3    H131176   1.333   1.800  16.977  0.7751 -0.2880  0.7518
 2327TIP3    H231177   1.354   1.657  16.932  1.2288  0.1725 -0.5403
 2328TIP3   OH231178   6.968   7.585  17.015  0.6325  0.0664 -0.3727
 2328TIP3    H131179   7.036   7.596  16.949 -0.7726 -1.1076 -2.1300
 2328TIP3    H231180   6.958   7.490  17.025 -0.5590  0.2046  0.0028
 2329TIP3   OH231181   6.005   5.245  17.976 -0.4970 -0.0000  0.2607
 2329TIP3    H131182   6.015   5.189  18.053 -0.6689 -0.3723  0.0160
 2329TIP3    H231183   6.089   5.240  17.931  0.2416  1.6255  1.3311
 2330TIP3   OH231184   3.623   0.565  17.362  0.7367 -0.2483  0.1795
 2330TIP3    H131185   3.579   0.564  17.447  1.5480 -1.3318  0.6090
 2330TIP3    H231186   3.597   0.483  17.321 -0.2112  0.5764 -0.9441
 2331TIP3   OH231187   1.608   3.312  19.366  0.3183  0.1169  0.7276
 2331TIP3    H131188   1.521   3.334  19.399  0.1873  0.5202  0.1315
 2331TIP3    H231189   1.602   3.220  19.340 -0.1671  0.3492 -0.0235
 2332TIP3   OH231190   2.946   3.034  17.910  0.7198 -0.4997 -1.0013
 2332TIP3    H131191   2.918   3.004  17.996 -0.3101  1.2529 -0.6892
 2332TIP3    H231192   2.870   3.020  17.854  1.1798 -1.0399 -1.5152
 2333TIP3   OH231193   4.470   1.303  19.012 -0.9135 -0.0362 -0.7206
 2333TIP3    H131194   4.380   1.281  18.989 -1.7561  2.3607 -0.0329
 2333TIP3    H231195   4.463   1.348  19.097  1.0885 -0.8781 -0.0354
 2334TIP3   OH231196   1.671   4.695  19.270  0.2395  0.4020 -0.4878
 2334TIP3    H131197   1.709   4.666  19.187  0.9855  0.6638 -0.2443
 2334TIP3    H231198   1.746   4.721  19.323 -0.2111  0.0493  0.3466
 2335TIP3   OH231199   6.651   4.348  18.964  0.0770  0.1815  0.3401
 2335TIP3    H131200   6.643   4.410  19.036 -0.6967  1.7314 -1.0100
 2335TIP3    H231201   6.561   4.338  18.931  0.5195  0.1678 -0.9115
 2336TIP3   OH231202   0.797   7.285  19.158  0.6857  0.0266  1.3322
 2336TIP3    H131203   0.876   7.316  19.201  0.7990 -0.8164  1.7710
 2336TIP3    H231204   0.825   7.260  19.070 -0.0984  4.5458 -0.4409
 2337TIP3   OH231205   6.492   0.150  17.574  0.2907 -0.6229  0.6982
 2337TIP3    H131206   6.555   0.115  17.637 -0.0958 -1.2955  0.7207
 2337TIP3    H231207   6.529   0.126  17.489  0.6647  0.0279  0.6749
 2338TIP3   OH231208   4.212   4.638  18.101 -0.1781  0.4431 -0.4510
 2338TIP3    H131209   4.197   4.728  18.072  1.2226  0.9233  0.2239
 2338TIP3    H231210   4.209   4.642  18.197 -0.7970 -0.3717 -0.4217
 2339TIP3   OH231211   4.518   6.393  16.851  0.0905 -0.5665 -0.1429
 2339TIP3    H131212   4.506   6.487  16.839 -0.0410 -0.6740 -0.9236
 2339TIP3    H231213   4.566   6.365  16.773  1.9333 -0.8179  1.0224
 2340TIP3   OH231214   2.519   6.096  18.287  0.4675  0.0485  0.8494
 2340TIP3    H131215   2.478   6.176  18.322 -1.9593 -0.7570  0.0516
 2340TIP3    H231216   2.503   6.101  18.192 -1.1035 -2.0469  0.9339
 2341TIP3   OH231217   4.714   6.376  19.216 -0.5782 -0.0376  0.4013
 2341TIP3    H131218   4.754   6.319  19.150  1.0682  1.0651  0.3889
 2341TIP3    H231219   4.647   6.322  19.258  0.0189 -1.5280 -0.5176
 2342TIP3   OH231220   6.086   2.594  18.392 -0.4654 -0.0033 -0.1197
 2342TIP3    H131221   6.146   2.658  18.430  0.1352  0.4361 -1.7117
 2342TIP3    H231222   6.127   2.509  18.408 -0.4559  0.1339  0.5950
 2343TIP3   OH231223   5.302   3.361  18.028  0.2574  0.0357 -0.1779
 2343TIP3    H131224   5.263   3.431  18.080  0.1350  0.3708 -0.7104
 2343TIP3    H231225   5.357   3.407  17.965  1.0616 -0.4069  0.1949
 2344TIP3   OH231226   4.778   4.859  18.803 -0.0643  0.0350  0.2373
 2344TIP3    H131227   4.833   4.885  18.729 -1.7691 -1.4702 -1.6766
 2344TIP3    H231228   4.700   4.915  18.795  0.0792  0.4331  1.4287
 2345TIP3   OH231229   6.019   1.791  16.714 -0.6750  0.2744  0.1739
 2345TIP3    H131230   5.983   1.760  16.797 -0.9170  1.4569  0.5302
 2345TIP3    H231231   6.044   1.711  16.668  0.6286 -0.3861  1.8975
 2346TIP3   OH231232   0.280   7.328  18.936 -0.5174 -0.3330 -0.1193
 2346TIP3    H131233   0.364   7.306  18.977 -0.7500  1.1818  1.2914
 2346TIP3    H231234   0.281   7.283  18.852  1.0717 -1.5448  0.4989
 2347TIP3   OH231235   2.468   7.575  18.518  0.5044  0.5280 -0.0150
 2347TIP3    H131236   2.557   7.600  18.540  0.2693  2.3317 -0.9189
 2347TIP3    H231237   2.413   7.637  18.566 -0.2415 -0.1794  0.0626
 2348TIP3   OH231238   6.495   0.670  17.421 -0.0315  0.1362 -0.0151
 2348TIP3    H131239   6.459   0.744  17.373 -0.4671 -0.0507  0.0120
 2348TIP3    H231240   6.470   0.593  17.369  3.0735  0.1247 -1.7794
 2349TIP3   OH231241   0.056   1.245  17.420 -0.0051  0.6208 -0.2102
 2349TIP3    H131242   0.144   1.275  17.397  0.1826 -0.2108 -0.6297
 2349TIP3    H231243   0.062   1.150  17.419 -0.8476  0.5555  0.0129
 2350TIP3   OH231244   5.043   4.981  19.011  0.3849  0.0131 -0.0724
 2350TIP3    H131245   5.120   4.924  19.005  0.8239  0.7004 -1.5162
 2350TIP3    H231246   4.980   4.931  19.062  1.6685 -0.6997  0.8770
 2351TIP3   OH231247   1.405   4.626  19.324 -0.3336  0.2669  0.2869
 2351TIP3    H131248   1.489   4.641  19.369  0.1399 -0.3735 -0.3508
 2351TIP3    H231249   1.427   4.630  19.231 -1.1677  0.8558  0.1099
 2352TIP3   OH231250   4.629   3.428  18.331 -0.1149 -0.2498  0.1226
 2352TIP3    H131251   4.535   3.430  18.311 -0.6529 -1.4692  2.2255
 2352TIP3    H231252   4.656   3.520  18.327 -0.5113 -0.1543 -3.9206
 2353TIP3   OH231253   7.396   5.129  17.883 -0.5264 -0.0031 -0.2085
 2353TIP3    H131254   7.375   5.222  17.883 -1.3869 -0.1781  0.8542
 2353TIP3    H231255   7.315   5.085  17.858  0.4627 -0.4115 -3.1252
 2354TIP3   OH231256   1.936   6.450  19.557 -0.2859 -0.3527 -0.4976
 2354TIP3    H131257   1.900   6.485  19.476  0.1057 -2.2829 -1.5697
 2354TIP3    H231258   1.860   6.424  19.609 -0.5332  0.7971 -0.2593
 2355TIP3   OH231259   0.211   0.631  17.937  0.1744  0.3055 -0.1751
 2355TIP3    H131260   0.153   0.651  17.863  0.2675  1.0605 -0.0500
 2355TIP3    H231261   0.254   0.714  17.957  0.6324 -0.0430  0.3159
 2356TIP3   OH231262   5.235   3.033  18.443 -0.2228  0.0677  0.3149
 2356TIP3    H131263   5.178   3.100  18.481 -0.7345 -0.3091  0.2261
 2356TIP3    H231264   5.319   3.045  18.487 -0.5240  0.2863  0.8425
 2357TIP3   OH231265   0.517   0.248  17.969  0.4764  0.6668 -0.5895
 2357TIP3    H131266   0.556   0.272  17.885  0.9148  1.2887 -0.2183
 2357TIP3    H231267   0.457   0.320  17.989 -0.6735 -0.1442 -1.0230
 2358TIP3   OH231268   3.305   6.931  19.204  0.1424  0.9781 -0.1796
 2358TIP3    H131269   3.264   6.987  19.138  1.1525 -2.5211 -4.2465
 2358TIP3    H231270   3.392   6.969  19.217  0.7044  0.7175 -2.6155
 2359TIP3   OH231271   0.922   4.542  18.478  0.0603 -0.8782  0.4256
 2359TIP3    H131272   0.920   4.463  18.533  0.9908  0.2710  2.2277
 2359TIP3    H231273   0.966   4.607  18.533  0.5836  0.5000 -1.5400
 2360TIP3   OH231274   6.042   2.654  18.795  0.1331 -0.1428 -0.3902
 2360TIP3    H131275   5.982   2.584  18.769  0.4204  0.0564 -1.6555
 2360TIP3    H231276   6.077   2.625  18.879  0.0494 -1.3923 -0.7645
 2361TIP3   OH231277   3.943   3.709  18.688  0.4381 -0.1587 -0.1307
 2361TIP3    H131278   3.949   3.665  18.603  2.3152 -1.3630  0.5448
 2361TIP3    H231279   4.028   3.752  18.698  0.2507 -0.0630  1.1456
 2362TIP3   OH231280   2.349   5.328  18.425 -0.1933 -0.0283  0.8950
 2362TIP3    H131281   2.368   5.419  18.399  2.9427 -0.9328 -0.4411
 2362TIP3    H231282   2.308   5.336  18.511  1.6028  2.6417  1.6459
 2363TIP3   OH231283   0.464   0.921  17.710  0.0027 -0.0960  0.2085
 2363TIP3    H131284   0.398   0.865  17.669 -0.3392  0.9568 -0.7099
 2363TIP3    H231285   0.417   1.001  17.733  0.6889  0.1822  0.6782
 2364TIP3   OH231286   4.329   6.194  17.747 -0.1132  0.8098 -0.1747
 2364TIP3    H131287   4.413   6.191  17.793 -0.9184  0.6834  1.3467
 2364TIP3    H231288   4.319   6.286  17.721  0.3810  0.8731 -0.1556
 2365TIP3   OH231289   1.417   4.371  19.038  0.1642 -0.7265 -0.1295
 2365TIP3    H131290   1.328   4.382  19.002  0.0030 -0.6905  0.2745
 2365TIP3    H231291   1.452   4.459  19.042  0.1539 -0.7225 -0.1283
 2366TIP3   OH231292   3.776   2.193  18.853  0.8152 -0.1505  0.0938
 2366TIP3    H131293   3.748   2.261  18.793 -0.7812 -1.7404 -1.0905
 2366TIP3    H231294   3.856   2.157  18.815  0.5698 -0.2400 -0.3348
 2367TIP3   OH231295   5.041   2.989  17.621 -0.2548  0.6861  0.4453
 2367TIP3    H131296   4.980   2.928  17.581  0.4510 -0.0986  0.5500
 2367TIP3    H231297   5.021   2.985  17.715  0.6408 -0.3781  0.6122
 2368TIP3   OH231298   2.611   2.945  17.108 -0.3312 -0.1066 -0.1363
 2368TIP3    H131299   2.576   3.018  17.057 -2.3930 -0.7435  0.3010
 2368TIP3    H231300   2.615   2.979  17.198 -0.0609 -0.1240 -0.1394
 2369TIP3   OH231301   0.997   0.327  18.094 -0.2207  0.5416 -0.2302
 2369TIP3    H131302   0.978   0.234  18.084  3.7518 -0.4812 -0.0613
 2369TIP3    H231303   1.017   0.337  18.187 -1.2108  1.7396 -0.1300
 2370TIP3   OH231304   4.894   2.339  18.376  0.5827 -0.2221  0.2342
 2370TIP3    H131305   4.896   2.243  18.380 -1.8976 -0.4189 -1.0147
 2370TIP3    H231306   4.821   2.364  18.432 -1.3361  0.5449 -2.3782
 2371TIP3   OH231307   6.835   3.168  19.038 -0.5006 -0.2616  0.6600
 2371TIP3    H131308   6.805   3.246  18.991  1.2899 -0.7465 -1.4806
 2371TIP3    H231309   6.931   3.178  19.043 -0.3332 -1.8186  1.2680
 2372TIP3   OH231310   1.644   7.656  19.547 -0.1036 -0.6693  0.1394
 2372TIP3    H131311   1.737   7.634  19.544 -0.0666 -0.3957 -2.0226
 2372TIP3    H231312   1.641   7.748  19.523 -0.8549 -0.2777  1.6278
 2373TIP3   OH231313   3.546   2.702  18.018 -0.7008 -0.3037  0.4613
 2373TIP3    H131314   3.459   2.738  18.034 -1.4975 -1.7013 -0.4874
 2373TIP3    H231315   3.566   2.652  18.097 -1.6505 -1.5946 -0.0781
 2374TIP3   OH231316   4.548   5.595  19.636  0.2630  0.2861  0.2364
 2374TIP3    H131317   4.507   5.668  19.590  1.5021  1.8207  1.4529
 2374TIP3    H231318   4.552   5.623  19.727  1.7087 -0.8489  0.5640
 2375TIP3   OH231319   2.026   1.565  18.285 -0.0021 -0.4880 -0.7419
 2375TIP3    H131320   2.118   1.541  18.291 -0.0148 -0.2615  1.1993
 2375TIP3    H231321   1.983   1.514  18.354 -1.2001 -0.0282 -1.1151
 2376TIP3   OH231322   5.060   5.052  17.199 -0.5116  0.4667 -0.1521
 2376TIP3    H131323   5.143   5.051  17.152 -0.5819  2.7334 -0.4393
 2376TIP3    H231324   4.997   5.014  17.138  0.1847 -0.8037 -0.1189
 2377TIP3   OH231325   2.752   5.923  19.685 -0.0025  0.1769 -0.2020
 2377TIP3    H131326   2.833   5.964  19.714 -0.4368  0.0284  1.3763
 2377TIP3    H231327   2.744   5.845  19.741  0.2522 -1.4991 -2.3625
 2378TIP3   OH231328   7.157   2.426  18.018  0.9185  0.4760  0.4145
 2378TIP3    H131329   7.118   2.339  18.026  0.9665  0.5635  1.9169
 2378TIP3    H231330   7.111   2.467  17.945  0.8979 -0.7993 -0.3179
 2379TIP3   OH231331   6.568   4.154  19.427 -0.1276 -0.2510  0.3740
 2379TIP3    H131332   6.653   4.195  19.408 -0.5548  0.0393 -1.0539
 2379TIP3    H231333   6.531   4.134  19.341 -0.6380 -2.2269  0.9938
 2380TIP3   OH231334   2.992   6.382  18.732  0.9541  0.1166 -1.6196
 2380TIP3    H131335   2.944   6.391  18.814  0.6254 -1.5717 -1.5998
 2380TIP3    H231336   3.067   6.327  18.754  1.3432  0.3767 -2.2705
 2381TIP3   OH231337   4.964   0.634  17.256 -0.5359 -0.5864  0.5427
 2381TIP3    H131338   4.924   0.625  17.342  2.0014  1.4375  2.1302
 2381TIP3    H231339   4.895   0.671  17.201 -1.5013  0.7924  2.5269
 2382TIP3   OH231340   1.275   6.067  19.666  0.1697 -0.4564  0.1522
 2382TIP3    H131341   1.321   6.151  19.658 -0.6486  0.0231  0.3952
 2382TIP3    H231342   1.333   6.004  19.622  1.2266  0.0620  0.7585
 2383TIP3   OH231343   3.175   3.698  18.728 -0.8597 -0.0779  0.4195
 2383TIP3    H131344   3.124   3.776  18.706  0.9079  0.8638 -0.6060
 2383TIP3    H231345   3.243   3.695  18.660  0.3526 -1.3382  1.6382
 2384TIP3   OH231346   3.493   2.928  19.137  0.4052 -0.2426  0.1783
 2384TIP3    H131347   3.584   2.942  19.109  0.4708  0.1321  0.5650
 2384TIP3    H231348   3.489   2.835  19.159  1.1661  0.0699  1.8002
 2385TIP3   OH231349   4.185   1.233  17.415 -0.2554 -0.2845  0.3267
 2385TIP3    H131350   4.205   1.140  17.415 -2.5827 -0.8488  0.4904
 2385TIP3    H231351   4.139   1.249  17.332 -3.4796 -0.2722  1.9263
 2386TIP3   OH231352   7.527   3.484  17.759 -0.6836  0.4859  0.0047
 2386TIP3    H131353   7.436   3.461  17.740 -0.6313  0.7820 -0.6497
 2386TIP3    H231354   7.528   3.580  17.757 -0.6093  0.5239  1.2647
 2387TIP3   OH231355   0.863   6.920  18.869 -0.2510  0.6862  0.1588
 2387TIP3    H131356   0.955   6.895  18.877 -0.8578 -1.5693  0.6918
 2387TIP3    H231357   0.865   7.015  18.854  2.2578  0.3893 -2.2258
 2388TIP3   OH231358   1.527   4.666  17.573  0.0291  0.4533 -0.3574
 2388TIP3    H131359   1.448   4.681  17.521 -1.1302 -0.2916  1.0952
 2388TIP3    H231360   1.498   4.676  17.664  1.2198 -1.4686  0.2921
 2389TIP3   OH231361   7.633   6.233  17.373  0.5240  0.2209 -0.2925
 2389TIP3    H131362   7.655   6.323  17.397 -0.7198  0.0315  1.9195
 2389TIP3    H231363   7.577   6.241  17.297 -0.3049  1.4160  0.4111
 2390TIP3   OH231364   0.478   7.117  17.829 -0.3064  0.1887  0.7723
 2390TIP3    H131365   0.394   7.120  17.783 -1.5003  0.3783  2.8538
 2390TIP3    H231366   0.542   7.105  17.759 -2.0413 -0.0051 -0.8904
 2391TIP3   OH231367   4.620   1.023  18.070 -0.2020 -0.1831 -0.5860
 2391TIP3    H131368   4.534   0.982  18.074 -1.2814  2.0213  0.8185
 2391TIP3    H231369   4.611   1.090  18.002 -0.0157  0.8721  0.4000
 2392TIP3   OH231370   1.678   2.759  18.159  0.3173  0.2222 -0.2522
 2392TIP3    H131371   1.702   2.840  18.113  1.3424 -0.1050 -0.3257
 2392TIP3    H231372   1.695   2.689  18.095 -4.2174  0.0837 -1.6467
 2393TIP3   OH231373   5.642   0.083  17.550  0.2974  0.3310  0.1027
 2393TIP3    H131374   5.699   0.159  17.561  2.6513 -1.2492 -0.4499
 2393TIP3    H231375   5.581   0.087  17.624  1.2214  1.9932  0.8284
 2394TIP3   OH231376   4.626   4.134  19.280 -0.3296  0.1092  0.1508
 2394TIP3    H131377   4.676   4.105  19.204 -0.6987  0.8049 -0.3680
 2394TIP3    H231378   4.642   4.066  19.346  1.8203  0.6535  0.2483
 2395TIP3   OH231379   7.058   2.576  17.816  0.3296  0.4810  0.7568
 2395TIP3    H131380   7.059   2.613  17.728 -1.0952  0.4114  0.6824
 2395TIP3    H231381   6.983   2.619  17.859 -0.5081 -1.2685  1.1193
 2396TIP3   OH231382   4.446   6.666  16.765  0.3983  0.0202  0.2919
 2396TIP3    H131383   4.361   6.669  16.721  0.7278  1.6790 -0.2904
 2396TIP3    H231384   4.444   6.737  16.828  1.6233  0.6124 -0.2855
 2397TIP3   OH231385   5.300   5.922  19.284  0.4441 -0.2760  0.0714
 2397TIP3    H131386   5.229   5.974  19.322  0.2416 -2.0573  2.3425
 2397TIP3    H231387   5.380   5.965  19.314  0.3453  0.4538 -0.6568
 2398TIP3   OH231388   2.795   0.798  17.726 -0.4341 -0.4409  0.4565
 2398TIP3    H131389   2.890   0.788  17.728 -0.3940  0.0181  1.2077
 2398TIP3    H231390   2.772   0.826  17.814 -1.1833  0.1659  0.0830
 2399TIP3   OH231391   2.313   7.332  17.866 -0.1806 -0.4219  0.0461
 2399TIP3    H131392   2.279   7.353  17.779 -1.7581  0.5114  0.8457
 2399TIP3    H231393   2.369   7.255  17.852  0.2291  0.1649 -1.8954
 2400TIP3   OH231394   6.177   3.831  18.816 -0.4511 -0.7378 -0.5303
 2400TIP3    H131395   6.178   3.819  18.911 -4.5046 -1.1627 -0.3825
 2400TIP3    H231396   6.154   3.745  18.780  2.0003 -0.8570 -2.0990
 2401TIP3   OH231397   4.165   0.385  17.329  0.2738  0.7032 -0.4013
 2401TIP3    H131398   4.139   0.406  17.419  1.7919  1.6388 -0.1368
 2401TIP3    H231399   4.258   0.408  17.325  0.5401 -0.4580 -1.8781
 2402TIP3   OH231400   5.551   1.849  18.401 -0.0004  0.8383 -0.2722
 2402TIP3    H131401   5.536   1.767  18.353 -1.4625  1.2876 -0.6544
 2402TIP3    H231402   5.646   1.858  18.406  0.1760 -0.5187 -0.8492
 2403TIP3   OH231403   4.203   0.029  18.733  0.1611  0.2511 -0.8207
 2403TIP3    H131404   4.130   0.028  18.672 -0.2684  1.1504 -0.3343
 2403TIP3    H231405   4.163   0.037  18.819  0.8322  1.2024 -0.5791
 2404TIP3   OH231406   4.723   5.251  17.295  0.0947 -0.1691 -0.4232
 2404TIP3    H131407   4.651   5.312  17.308  0.7422  0.2769  1.3457
 2404TIP3    H231408   4.684   5.164  17.304 -0.0800  0.0791  1.6094
 2405TIP3   OH231409   1.537   0.619  17.861 -0.1639 -0.3441  0.4390
 2405TIP3    H131410   1.470   0.676  17.899 -0.3650 -0.1409 -0.2077
 2405TIP3    H231411   1.495   0.533  17.856  0.5833 -0.9075  2.6691
 2406TIP3   OH231412   2.646   1.406  19.200 -0.3022 -0.1276 -0.1023
 2406TIP3    H131413   2.629   1.441  19.288 -0.4644 -1.0359  0.2367
 2406TIP3    H231414   2.575   1.344  19.184  0.4982 -1.0137 -0.2964
 2407TIP3   OH231415   5.104   7.085  19.071  0.0258 -0.7471  0.4010
 2407TIP3    H131416   5.125   6.992  19.070  0.6024 -0.6711 -2.1227
 2407TIP3    H231417   5.187   7.127  19.095 -0.4624 -0.8785  2.4343
 2408TIP3   OH231418   1.260   0.574  17.580 -0.4742  0.2384  0.4356
 2408TIP3    H131419   1.285   0.499  17.634  0.3105  0.6642  0.6875
 2408TIP3    H231420   1.165   0.577  17.586 -0.6779 -1.6287 -0.7923
 2409TIP3   OH231421   5.672   4.093  18.112 -0.1507 -0.5559 -0.0314
 2409TIP3    H131422   5.592   4.103  18.164  0.7761  2.0966  1.0812
 2409TIP3    H231423   5.741   4.078  18.177  0.7301  0.6688 -0.6531
 2410TIP3   OH231424   7.676   2.777  18.324 -0.2254  0.5592  0.3081
 2410TIP3    H131425   7.581   2.788  18.333 -0.2212  1.7652 -0.7636
 2410TIP3    H231426   7.692   2.687  18.352 -1.4785  0.7700  1.8662
 2411TIP3   OH231427   2.813   0.129  17.188  0.0274 -0.6627  0.7239
 2411TIP3    H131428   2.781   0.147  17.099 -1.6785  0.7388  1.5512
 2411TIP3    H231429   2.888   0.071  17.175 -1.6628 -2.5712 -1.4925
 2412TIP3   OH231430   3.860   7.424  19.136  0.3950  0.1008 -0.5612
 2412TIP3    H131431   3.853   7.518  19.154 -1.4103  0.0715 -0.8714
 2412TIP3    H231432   3.897   7.419  19.049 -1.7029  0.6712 -1.5634
 2413TIP3   OH231433   5.051   1.551  19.170 -0.3927 -0.0744 -0.2839
 2413TIP3    H131434   5.058   1.577  19.078 -2.5621  0.6732 -0.2885
 2413TIP3    H231435   5.141   1.531  19.196  0.2016 -0.9173 -2.7232
 2414TIP3   OH231436   3.886   1.763  18.265  0.7843  0.2645  0.1771
 2414TIP3    H131437   3.914   1.676  18.292  2.4498  0.6222 -0.2992
 2414TIP3    H231438   3.889   1.815  18.345 -1.3335 -0.3300  0.7084
 2415TIP3   OH231439   2.236   4.613  17.415  0.2492 -0.0799  0.2557
 2415TIP3    H131440   2.276   4.610  17.502  1.4886 -0.4667 -0.3152
 2415TIP3    H231441   2.266   4.695  17.377 -0.0492 -0.0562  0.0655
 2416TIP3   OH231442   2.047   5.718  17.976  0.4862 -0.4905  0.2994
 2416TIP3    H131443   2.070   5.640  18.027 -1.0612 -0.9659  0.3140
 2416TIP3    H231444   2.086   5.703  17.890  2.9361  0.2151  1.1857
 2417TIP3   OH231445   1.194   5.248  17.989  0.3607 -0.2202 -0.2699
 2417TIP3    H131446   1.192   5.323  18.048 -2.2008  0.7439 -1.4569
 2417TIP3    H231447   1.148   5.179  18.036 -1.3065  0.4168 -0.9056
 2418TIP3   OH231448   2.603   5.296  18.185  0.3317  0.4538 -0.5710
 2418TIP3    H131449   2.653   5.344  18.119  1.2019 -1.1520 -1.1282
 2418TIP3    H231450   2.581   5.361  18.251  0.0487  1.9662 -2.0907
 2419TIP3   OH231451   1.910   0.456  18.128  0.3120 -0.0582 -0.0162
 2419TIP3    H131452   1.928   0.362  18.124  3.6050  0.4706 -2.0691
 2419TIP3    H231453   1.945   0.484  18.212  0.8253 -0.4384 -0.1001
 2420TIP3   OH231454   2.453   0.347  18.654  0.6164  0.0015 -0.0541
 2420TIP3    H131455   2.419   0.389  18.575 -0.8118 -0.2467  0.3946
 2420TIP3    H231456   2.530   0.398  18.678  0.2184  0.9715 -0.7883
 2421TIP3   OH231457   6.953   5.992  19.289  0.0535  0.0470 -0.2156
 2421TIP3    H131458   6.964   5.947  19.205  0.8846 -1.9879  0.9155
 2421TIP3    H231459   6.861   5.978  19.311  0.3691 -1.4946  0.2730
 2422TIP3   OH231460   5.311   5.962  18.314  0.0198  0.0542  0.2767
 2422TIP3    H131461   5.340   5.873  18.291  0.1346  0.5280 -1.4909
 2422TIP3    H231462   5.215   5.956  18.318 -0.1593  0.3585 -2.2969
 2423TIP3   OH231463   7.306   5.103  19.164 -0.4859 -0.4690 -0.2598
 2423TIP3    H131464   7.237   5.168  19.149 -1.3727 -1.2901  0.0826
 2423TIP3    H231465   7.277   5.056  19.243  0.9467 -0.2361  0.4288
 2424TIP3   OH231466   4.946   7.101  17.961 -0.4754 -0.3196  0.1265
 2424TIP3    H131467   4.890   7.113  17.885  0.7196  0.1504 -0.7012
 2424TIP3    H231468   5.035   7.112  17.928  0.1664 -1.6370  1.2768
 2425TIP3   OH231469   5.447   7.142  17.396 -0.5571 -0.4905 -0.0119
 2425TIP3    H131470   5.524   7.092  17.421  0.7071  0.9810 -0.8578
 2425TIP3    H231471   5.418   7.103  17.314  1.5751  1.2750 -1.7041
 2426TIP3   OH231472   5.161   0.634  17.463  0.0398 -0.0270 -0.1124
 2426TIP3    H131473   5.208   0.637  17.547 -1.2780 -1.8988  0.7578
 2426TIP3    H231474   5.214   0.688  17.404  2.0973 -0.2921  1.3730
 2427TIP3   OH231475   2.573   4.702  18.541 -0.6254 -0.2388 -0.5512
 2427TIP3    H131476   2.659   4.735  18.516  0.8708  0.2171  4.2515
 2427TIP3    H231477   2.584   4.607  18.546 -1.0806 -0.3829 -1.8383
 2428TIP3   OH231478   0.734   5.197  18.452  0.1612  0.1390  0.3882
 2428TIP3    H131479   0.653   5.154  18.479  0.4552 -0.6380  0.0561
 2428TIP3    H231480   0.729   5.200  18.357  1.1833 -1.2766  0.2630
 2429TIP3   OH231481   5.219   5.402  17.241  0.2979  0.0395 -0.4622
 2429TIP3    H131482   5.283   5.442  17.299  0.0583  3.6836 -2.4082
 2429TIP3    H231483   5.252   5.421  17.153 -3.0378  1.5860 -1.5379
 2430TIP3   OH231484   1.193   5.813  19.315  0.0878  0.1440  0.2673
 2430TIP3    H131485   1.284   5.824  19.287  0.1375 -0.5244  0.1654
 2430TIP3    H231486   1.165   5.731  19.275 -0.0371 -0.5008  1.6322
 2431TIP3   OH231487   7.435   6.244  19.129  0.4490 -0.8396  0.1096
 2431TIP3    H131488   7.445   6.182  19.201  0.7613  0.1370  0.9350
 2431TIP3    H231489   7.524   6.267  19.105  0.4206  1.4225  1.7557
 2432TIP3   OH231490   7.207   0.001  16.867 -0.9852 -0.6494 -0.5516
 2432TIP3    H131491   7.225  -0.093  16.871 -0.1912 -0.4563  0.7932
 2432TIP3    H231492   7.284   0.039  16.826 -0.5951 -0.4159  0.3781
 2433TIP3   OH231493   2.395   6.873  19.551  0.0827 -0.6037  0.1592
 2433TIP3    H131494   2.309   6.875  19.510 -0.7748  0.1189  1.8847
 2433TIP3    H231495   2.377   6.848  19.642  1.8516 -1.7405  0.2382
 2434TIP3   OH231496   6.913   7.339  17.168 -0.4195 -0.0468  0.2350
 2434TIP3    H131497   6.965   7.385  17.234 -0.1023 -0.4431  0.2616
 2434TIP3    H231498   6.970   7.270  17.136 -0.4742  0.2976 -0.6471
 2435TIP3   OH231499   1.353   1.072  17.893 -0.2080  0.0757  0.0437
 2435TIP3    H131500   1.433   1.045  17.936  0.0688 -2.2457 -1.7233
 2435TIP3    H231501   1.294   0.997  17.901 -0.4999 -0.0745 -2.5886
 2436TIP3   OH231502   6.876   5.153  18.608  0.2077 -0.6783  0.0418
 2436TIP3    H131503   6.929   5.154  18.528 -1.9822 -2.0289 -1.5264
 2436TIP3    H231504   6.896   5.237  18.651  1.6558 -0.0411 -1.7443
 2437TIP3   OH231505   2.494   3.946  18.422 -0.2342 -0.3163  0.3095
 2437TIP3    H131506   2.565   3.884  18.438  0.7861  0.6564 -0.3513
 2437TIP3    H231507   2.491   3.955  18.327 -0.6240  0.3590  0.3790
 2438TIP3   OH231508   5.603   1.267  18.945 -0.1677  0.6905 -1.0921
 2438TIP3    H131509   5.548   1.237  19.017 -0.0889  0.7928 -0.9890
 2438TIP3    H231510   5.655   1.190  18.921  0.3763  0.8748 -0.5119
 2439TIP3   OH231511   0.541   5.103  17.908 -0.2526 -0.2204  0.8599
 2439TIP3    H131512   0.461   5.094  17.855 -1.4462  3.2790  1.7747
 2439TIP3    H231513   0.593   5.168  17.860  0.0326  0.7431  2.4321
 2440TIP3   OH231514   4.458   3.192  19.063  0.1185  0.3545  0.1133
 2440TIP3    H131515   4.374   3.191  19.019  0.2384  1.0401 -0.1507
 2440TIP3    H231516   4.482   3.100  19.073  0.8863  0.1537 -2.8186
 2441TIP3   OH231517   2.534   0.101  19.501 -0.1134  0.1723 -0.4179
 2441TIP3    H131518   2.458   0.125  19.554 -1.3755 -0.4449 -1.8723
 2441TIP3    H231519   2.586   0.181  19.495 -0.3255  0.4530  1.0657
 2442TIP3   OH231520   3.615   3.020  18.037 -0.2458  0.5832  0.2890
 2442TIP3    H131521   3.709   3.027  18.053 -0.3619 -0.4384  1.5212
 2442TIP3    H231522   3.608   2.967  17.957  0.2083  0.0523  0.6006
 2443TIP3   OH231523   6.213   3.242  18.364 -0.0045  0.4684  0.4556
 2443TIP3    H131524   6.281   3.189  18.324 -0.9887 -0.5256  0.0300
 2443TIP3    H231525   6.202   3.206  18.452  0.8989  1.4751  1.0030
 2444TIP3   OH231526   5.496   1.619  19.454 -0.4013  0.4136  0.0629
 2444TIP3    H131527   5.530   1.641  19.541  1.7280 -0.3750 -0.5182
 2444TIP3    H231528   5.524   1.529  19.439 -2.4725 -0.1775 -0.6812
 2445TIP3   OH231529   0.428   4.725  17.014 -0.4518 -0.3396 -0.3195
 2445TIP3    H131530   0.481   4.672  17.074  0.5008  0.8398 -0.0964
 2445TIP3    H231531   0.427   4.675  16.932  0.7695 -0.5042 -0.2441
 2446TIP3   OH231532   5.900   0.054  17.268  0.1992  0.2393  0.7692
 2446TIP3    H131533   5.949   0.052  17.186 -0.6561 -1.6696  0.2427
 2446TIP3    H231534   5.841   0.129  17.259 -0.4253 -0.3787 -0.7355
 2447TIP3   OH231535   2.560   2.659  18.151 -0.3047  0.2854 -0.1129
 2447TIP3    H131536   2.592   2.625  18.235  0.6991  0.7677 -0.2793
 2447TIP3    H231537   2.506   2.589  18.115  1.1247 -0.8622 -0.1181
 2448TIP3   OH231538   0.291   5.603  17.061 -0.0396 -0.1264  0.4342
 2448TIP3    H131539   0.385   5.586  17.067  0.3388  1.3812 -0.5609
 2448TIP3    H231540   0.281   5.692  17.095 -1.1761 -0.4519  0.9653
 2449TIP3   OH231541   1.592   5.306  19.280 -0.3833  0.3265 -0.5493
 2449TIP3    H131542   1.664   5.269  19.330 -1.2524  0.3754  0.7985
 2449TIP3    H231543   1.537   5.231  19.258 -0.5674  0.4361 -0.4676
 2450TIP3   OH231544   7.295   4.347  19.416 -0.1973 -0.0017  0.3721
 2450TIP3    H131545   7.381   4.308  19.430 -1.2429 -1.9320  1.8998
 2450TIP3    H231546   7.239   4.307  19.483 -2.4062  0.8242 -0.8743
 2451TIP3   OH231547   2.109   5.705  18.341  0.4293 -0.3112 -0.2733
 2451TIP3    H131548   2.067   5.637  18.288 -0.9540  0.5344 -0.3057
 2451TIP3    H231549   2.037   5.757  18.375  1.4592  2.3942 -1.8956
 2452TIP3   OH231550   2.887   0.267  19.314 -0.3445 -0.4925  0.7809
 2452TIP3    H131551   2.928   0.205  19.375 -1.9403 -1.2978  1.1079
 2452TIP3    H231552   2.861   0.341  19.370  0.4729 -0.0609  0.6031
 2453TIP3   OH231553   5.942   3.841  17.603 -0.0741 -0.5404  0.7624
 2453TIP3    H131554   5.965   3.751  17.579  0.8763  0.1819 -1.2552
 2453TIP3    H231555   6.026   3.887  17.609 -0.6140  0.5585  0.1990
 2454TIP3   OH231556   7.376   5.519  18.919 -0.2377 -0.2648  0.2766
 2454TIP3    H131557   7.304   5.578  18.894  0.4339  0.8029  0.7875
 2454TIP3    H231558   7.363   5.504  19.013  1.2612  1.5052  0.8212
 2455TIP3   OH231559   7.272   2.766  17.877  0.5907  0.3279  0.1886
 2455TIP3    H131560   7.269   2.802  17.966  0.7466 -1.2733  0.8706
 2455TIP3    H231561   7.210   2.693  17.879  0.4943  0.3565 -1.0762
 2456TIP3   OH231562   1.127   2.758  16.876  0.4792 -0.2262 -0.3816
 2456TIP3    H131563   1.203   2.707  16.848 -0.2066 -0.6075 -1.6142
 2456TIP3    H231564   1.160   2.847  16.887  1.1789 -0.4636 -0.5164
 2457TIP3   OH231565   2.105   4.030  17.294  0.1781  0.0235  0.0577
 2457TIP3    H131566   2.183   4.045  17.241 -0.3232  0.3870 -0.5847
 2457TIP3    H231567   2.038   4.002  17.232 -1.2759  3.2886 -0.0574
 2458TIP3   OH231568   7.057   0.347  19.468  0.5464 -0.5305 -0.3921
 2458TIP3    H131569   7.045   0.419  19.531  0.4589  0.1084 -1.1298
 2458TIP3    H231570   6.990   0.283  19.493  1.1591 -0.7442  0.7910
 2459TIP3   OH231571   5.556   6.895  18.474  0.7218 -0.5098 -0.3159
 2459TIP3    H131572   5.587   6.960  18.537  1.8645 -0.5214 -0.8425
 2459TIP3    H231573   5.609   6.910  18.396 -2.1382  1.0458 -2.1814
 2460TIP3   OH231574   2.576   1.092  17.123  0.4811  0.0223 -0.4904
 2460TIP3    H131575   2.625   1.042  17.058 -1.2371 -2.0643 -0.3097
 2460TIP3    H231576   2.509   1.031  17.154 -0.6524  1.9329  1.0476
 2461TIP3   OH231577   1.753   1.035  19.377  0.3615 -0.0127  0.0351
 2461TIP3    H131578   1.735   0.960  19.321  3.1988 -1.1599  0.4693
 2461TIP3    H231579   1.755   1.000  19.466 -0.1252  0.9628  0.4481
 2462TIP3   OH231580   7.491   0.678  19.237  0.0394  0.2427  0.4287
 2462TIP3    H131581   7.430   0.634  19.296 -0.7373  1.7574  0.7967
 2462TIP3    H231582   7.470   0.641  19.151 -0.3900 -0.3170  0.7625
 2463TIP3   OH231583   3.338   5.081  17.748  0.1078 -0.6246  0.0649
 2463TIP3    H131584   3.407   5.138  17.781  0.5793 -1.1456 -0.0152
 2463TIP3    H231585   3.258   5.116  17.787  0.6074 -0.9854  1.4685
 2464TIP3   OH231586   1.595   2.965  17.359  0.8045  0.4390  0.2424
 2464TIP3    H131587   1.552   2.927  17.436  0.2378  1.8727  0.6655
 2464TIP3    H231588   1.542   2.934  17.285  0.1855  0.6045  0.6018
 2465TIP3   OH231589   4.353   5.783  19.079  0.5144  0.5728  0.2932
 2465TIP3    H131590   4.412   5.798  19.153  0.6436  0.9539  0.1100
 2465TIP3    H231591   4.409   5.790  19.002  0.6026 -0.8629  0.1858
 2466TIP3   OH231592   0.894   6.683  17.744 -0.5920  0.1719  0.0964
 2466TIP3    H131593   0.888   6.704  17.651 -0.6843 -0.6728 -0.0940
 2466TIP3    H231594   0.988   6.678  17.761 -0.4727  2.9686  0.6807
 2467TIP3   OH231595   2.127   5.344  18.923  0.2967 -0.0874  0.1554
 2467TIP3    H131596   2.038   5.363  18.890 -0.2950 -2.0057  0.5002
 2467TIP3    H231597   2.123   5.366  19.016 -0.2343 -1.3133  0.4484
 2468TIP3   OH231598   4.832   3.993  18.089  0.0361  0.8537 -0.3519
 2468TIP3    H131599   4.899   3.924  18.096 -2.2279 -1.4021  0.8492
 2468TIP3    H231600   4.811   3.996  17.996  1.5486  1.3782 -0.6993
 2469TIP3   OH231601   1.966   5.814  17.619  0.5831  0.5134  0.9045
 2469TIP3    H131602   2.001   5.887  17.568 -0.2887  0.1268 -0.2789
 2469TIP3    H231603   1.871   5.827  17.618  0.4423 -0.4381  0.9897
 2470TIP3   OH231604   7.112   4.184  18.851 -0.5291 -0.1376 -0.0937
 2470TIP3    H131605   7.098   4.218  18.763  0.5967  0.3123 -0.1170
 2470TIP3    H231606   7.117   4.262  18.907 -1.2001 -0.4186  0.3664
 2471TIP3   OH231607   1.148   3.429  18.460  0.2584 -0.0626 -0.6010
 2471TIP3    H131608   1.236   3.435  18.424 -0.1768  0.4602 -1.6442
 2471TIP3    H231609   1.090   3.436  18.384 -0.6783 -1.2073 -0.0265
 2472TIP3   OH231610   2.066   3.517  18.470 -0.2768  0.4053  0.3417
 2472TIP3    H131611   2.080   3.611  18.483 -1.9603  0.4875  1.8986
 2472TIP3    H231612   2.153   3.478  18.478  0.2629  1.7027  0.9868
 2473TIP3   OH231613   3.137   2.822  17.861 -0.6821  0.2826 -0.8840
 2473TIP3    H131614   3.054   2.864  17.881 -0.2812  0.7452 -0.1818
 2473TIP3    H231615   3.177   2.804  17.946  0.5940  1.3815 -1.2284
 2474TIP3   OH231616   6.071   4.641  18.123  0.4230 -0.5186 -0.1617
 2474TIP3    H131617   6.109   4.576  18.064 -0.1532 -0.1998 -0.8868
 2474TIP3    H231618   5.983   4.656  18.089  0.3237  0.1600  0.3886
 2475TIP3   OH231619   5.737   5.373  19.263  0.2349  0.4654  0.5341
 2475TIP3    H131620   5.679   5.449  19.256  1.4253  1.4323  0.7770
 2475TIP3    H231621   5.714   5.319  19.188 -0.5479  1.1209  0.2803
 2476TIP3   OH231622   0.217   4.610  19.556 -0.9169  0.5224 -0.3662
 2476TIP3    H131623   0.127   4.605  19.524 -1.2987  1.8212  0.4300
 2476TIP3    H231624   0.236   4.521  19.586 -1.3968 -0.1206 -1.8937
 2477TIP3   OH231625   2.929   0.114  17.661  0.2242 -0.1830  0.2108
 2477TIP3    H131626   2.872   0.050  17.703 -0.4017  1.0150  1.2789
 2477TIP3    H231627   3.018   0.084  17.682 -0.0162 -1.4019 -0.4363
 2478TIP3   OH231628   0.851   3.906  18.247 -0.0267  0.0836  0.2927
 2478TIP3    H131629   0.908   3.981  18.269  1.0878 -1.3991  2.9195
 2478TIP3    H231630   0.778   3.913  18.308 -0.6590 -0.1984 -0.4202
 2479TIP3   OH231631   1.104   0.989  19.091  0.0015  0.1935  0.0608
 2479TIP3    H131632   1.081   1.082  19.094 -1.0735 -0.0780  1.3869
 2479TIP3    H231633   1.020   0.944  19.106 -0.1192 -1.1025 -3.5103
 2480TIP3   OH231634   1.455   2.819  17.587 -0.3561  0.1058 -0.0902
 2480TIP3    H131635   1.523   2.760  17.620 -0.2781 -1.2126 -2.3968
 2480TIP3    H231636   1.378   2.800  17.640  0.7197  0.8492  1.8420
 2481TIP3   OH231637   3.452   3.018  17.610  0.0092 -0.1849  0.2015
 2481TIP3    H131638   3.497   3.011  17.694  2.6152 -0.3909 -1.1099
 2481TIP3    H231639   3.431   3.111  17.601  1.2171  0.1223  0.3845
 2482TIP3   OH231640   0.725   4.831  18.559 -0.8927  0.5252 -0.6118
 2482TIP3    H131641   0.731   4.804  18.467 -1.3910 -0.0084 -0.4925
 2482TIP3    H231642   0.637   4.806  18.586 -2.0282  3.7344 -0.9264
 2483TIP3   OH231643   4.359   6.760  19.153  0.3111 -0.0432 -0.0892
 2483TIP3    H131644   4.447   6.722  19.148 -0.4608 -1.9590  0.2084
 2483TIP3    H231645   4.328   6.738  19.240 -0.9585 -0.5292 -0.6417
 2484TIP3   OH231646   2.278   3.808  18.918 -0.0621 -0.4861  0.1591
 2484TIP3    H131647   2.255   3.899  18.900 -1.1455 -0.6946  0.4442
 2484TIP3    H231648   2.241   3.759  18.846 -0.7265 -0.8518  0.7390
 2485TIP3   OH231649   1.414   2.644  18.268 -0.4242  0.0006  0.2190
 2485TIP3    H131650   1.370   2.675  18.348 -1.0546  1.9328 -0.8169
 2485TIP3    H231651   1.480   2.710  18.250 -1.9452  0.9739 -2.1945
 2486TIP3   OH231652   3.324   4.148  19.265  0.1272  0.5068  0.2030
 2486TIP3    H131653   3.319   4.071  19.208  0.7201  1.5062 -1.2461
 2486TIP3    H231654   3.253   4.134  19.328  0.6545 -1.5534  0.4264
 2487TIP3   OH231655   0.981   3.806  18.591  0.1592  0.4884  0.0034
 2487TIP3    H131656   0.921   3.876  18.619 -2.7549 -1.1920 -1.6016
 2487TIP3    H231657   0.994   3.753  18.670  0.5639  1.5136  0.6627
 2488TIP3   OH231658   4.876   4.688  17.411 -0.2842 -0.5769 -0.0985
 2488TIP3    H131659   4.967   4.673  17.385 -0.1763 -0.0471 -0.0331
 2488TIP3    H231660   4.827   4.687  17.328  0.2881  2.8321 -0.6213
 2489TIP3   OH231661   1.394   1.593  17.696  0.4491  0.4834  0.5122
 2489TIP3    H131662   1.366   1.573  17.785  1.1292 -0.8561  0.4568
 2489TIP3    H231663   1.329   1.552  17.640  1.4078 -0.9528  0.4002
 2490TIP3   OH231664   3.990   7.485  17.676 -0.1550 -0.0354  0.2244
 2490TIP3    H131665   4.006   7.414  17.614 -0.2763  1.3147 -1.4164
 2490TIP3    H231666   4.007   7.565  17.626 -0.2879  1.1132  1.9369
 2491TIP3   OH231667   1.995   1.521  18.980  0.2186 -0.4119 -0.5112
 2491TIP3    H131668   2.048   1.596  18.953 -0.7780  0.9512  1.1184
 2491TIP3    H231669   1.909   1.537  18.942  0.1770 -1.0869 -0.7121
 2492TIP3   OH231670   6.877   0.109  19.481  0.0418  0.3313  0.3755
 2492TIP3    H131671   6.946   0.047  19.504 -1.0521 -1.1449 -0.2110
 2492TIP3    H231672   6.869   0.103  19.386 -0.2431  1.2154  0.3272
 2493TIP3   OH231673   5.400   0.369  17.840  0.4867  0.0249 -0.5502
 2493TIP3    H131674   5.458   0.296  17.823 -1.3669 -1.1901 -2.2265
 2493TIP3    H231675   5.335   0.335  17.901  1.5832  1.4398  1.5178
 2494TIP3   OH231676   6.137   5.593  17.656  0.7428 -0.0750 -0.2726
 2494TIP3    H131677   6.097   5.677  17.636  0.5515  0.2052  1.2072
 2494TIP3    H231678   6.178   5.566  17.574 -0.5790  0.6756 -1.2168
 2495TIP3   OH231679   4.114   7.513  17.343  0.0963 -0.6110 -0.1541
 2495TIP3    H131680   4.141   7.544  17.256  0.0631 -0.8656 -0.2577
 2495TIP3    H231681   4.020   7.496  17.334  0.3709 -2.0749 -0.5118
 2496TIP3   OH231682   0.542   3.226  19.663 -0.2988  0.1019  0.1449
 2496TIP3    H131683   0.539   3.225  19.567  0.5026  0.2788  0.1155
 2496TIP3    H231684   0.538   3.134  19.688 -1.9993  0.0992  0.0089
 2497TIP3   OH231685   0.980   2.342  19.660  0.2872  0.0702 -0.0127
 2497TIP3    H131686   0.898   2.388  19.642  0.0599 -1.3283 -3.0509
 2497TIP3    H231687   1.049   2.405  19.638  0.0261  0.4438  0.2378
 2498TIP3   OH231688   7.660   5.398  18.875 -0.0722  0.7224  0.0630
 2498TIP3    H131689   7.719   5.424  18.946 -0.0586  2.5586 -0.5672
 2498TIP3    H231690   7.575   5.434  18.900 -0.3023  0.4811 -0.3581
 2499TIP3   OH231691   3.702   7.309  18.775 -0.2428  0.1632  0.5185
 2499TIP3    H131692   3.685   7.225  18.734  0.1715 -0.1226  0.9235
 2499TIP3    H231693   3.615   7.348  18.787 -0.3804  0.1531 -0.4026
 2500TIP3   OH231694   2.765   1.680  18.196 -0.0602 -0.4251 -0.0548
 2500TIP3    H131695   2.717   1.709  18.119  1.5205 -0.2879 -1.0188
 2500TIP3    H231696   2.738   1.740  18.265 -1.7013 -0.7192 -0.3938
 2501TIP3   OH231697   6.328   3.217  19.435  0.1050  0.5777 -0.6347
 2501TIP3    H131698   6.404   3.254  19.390  1.5015 -1.4059 -0.0539
 2501TIP3    H231699   6.345   3.232  19.528  0.4353 -0.9326 -0.4238
 2502TIP3   OH231700   6.649   7.051  18.847 -0.2880  0.3406 -0.4278
 2502TIP3    H131701   6.669   6.984  18.913 -0.1431  1.3047  0.5247
 2502TIP3    H231702   6.591   7.007  18.785 -0.5628 -0.5326  0.4285
 2503TIP3   OH231703   6.313   7.597  16.559  0.1907 -0.1800  0.4571
 2503TIP3    H131704   6.290   7.538  16.487  0.5285  1.4188 -1.0396
 2503TIP3    H231705   6.232   7.645  16.576  0.1605 -0.4362  1.0445
 2504TIP3   OH231706   4.682   3.360  19.037  1.0665 -0.8721 -0.4889
 2504TIP3    H131707   4.613   3.296  19.051  0.5984 -1.0986 -3.3255
 2504TIP3    H231708   4.763   3.313  19.055  0.6269 -1.3731  0.2454
 2505TIP3   OH231709   4.006   4.382  17.129  0.9207 -0.1113 -0.3709
 2505TIP3    H131710   3.934   4.323  17.105 -0.5324  0.8339  1.3883
 2505TIP3    H231711   4.018   4.368  17.223  3.4932 -0.6498 -0.7059
 2506TIP3   OH231712   6.950   5.339  17.557 -0.2036 -0.5565  0.0624
 2506TIP3    H131713   6.887   5.303  17.619 -0.2074 -0.8780 -0.1236
 2506TIP3    H231714   6.914   5.425  17.534 -0.6721 -0.8088 -0.1781
 2507TIP3   OH231715   0.513   2.293  17.243  0.9651 -0.0154  0.0770
 2507TIP3    H131716   0.554   2.302  17.329 -0.7814  1.5898  0.8065
 2507TIP3    H231717   0.547   2.368  17.193 -0.0753  0.6013  0.2752
 2508TIP3   OH231718   0.153   1.479  19.682 -0.1705 -0.3129 -0.1324
 2508TIP3    H131719   0.245   1.489  19.656 -0.1038  0.9499  0.5125
 2508TIP3    H231720   0.158   1.455  19.775 -0.4873  2.3213  0.6409
 2509TIP3   OH231721   3.814   0.519  18.288  0.3596  0.1207 -0.5306
 2509TIP3    H131722   3.891   0.554  18.333 -0.6595 -0.8329  2.0981
 2509TIP3    H231723   3.767   0.597  18.258  1.4688  0.7586 -0.6688
 2510TIP3   OH231724   4.866   1.279  19.383 -0.6756 -0.2799  0.2543
 2510TIP3    H131725   4.850   1.186  19.366 -1.2789 -0.0431 -0.5224
 2510TIP3    H231726   4.961   1.285  19.391 -0.7300 -1.2278  2.0258
 2511TIP3   OH231727   4.034   0.832  18.940  0.6958 -0.4264 -0.2478
 2511TIP3    H131728   4.100   0.836  19.009  0.3982 -0.1461  0.0229
 2511TIP3    H231729   3.996   0.745  18.948  0.4109 -0.2675  0.1808
 2512TIP3   OH231730   1.827   0.652  17.919  0.3092  0.0333 -0.1566
 2512TIP3    H131731   1.736   0.658  17.947  0.6716  0.6167  0.9755
 2512TIP3    H231732   1.868   0.590  17.979  0.8371  0.3708 -0.1530
 2513TIP3   OH231733   3.351   1.541  17.282 -0.4868  0.1508 -0.0343
 2513TIP3    H131734   3.297   1.589  17.344 -0.3180  3.4224 -2.2032
 2513TIP3    H231735   3.337   1.584  17.198  2.6951 -1.1731 -1.4273
 2514TIP3   OH231736   2.001   5.477  18.156 -0.3642  0.1093 -0.5666
 2514TIP3    H131737   1.986   5.407  18.219  0.9929 -0.1849 -0.5494
 2514TIP3    H231738   1.949   5.452  18.080 -0.9891 -0.1883 -0.0552
 2515TIP3   OH231739   1.906   3.905  18.437 -0.0240 -0.0238 -0.0673
 2515TIP3    H131740   1.885   3.847  18.363  0.5152 -0.8129  0.3739
 2515TIP3    H231741   1.949   3.981  18.397  1.0856 -0.8508 -0.5179
 2516TIP3   OH231742   6.877   6.553  17.199 -0.1068 -0.4363 -0.6210
 2516TIP3    H131743   6.952   6.569  17.257  0.1599  0.1988 -1.1310
 2516TIP3    H231744   6.887   6.616  17.129 -0.9639 -0.5501 -0.8595
 2517TIP3   OH231745   3.170   1.821  19.038 -0.7093 -0.4622  0.0593
 2517TIP3    H131746   3.131   1.822  18.951 -1.1818  1.6054  0.2279
 2517TIP3    H231747   3.114   1.879  19.090  0.8186  0.1152  1.1511
 2518TIP3   OH231748   4.501   4.949  18.054  0.7599  0.1181  0.7704
 2518TIP3    H131749   4.500   4.985  17.965 -2.2356 -0.5671  0.4164
 2518TIP3    H231750   4.564   4.876  18.050 -0.6861 -1.1099 -1.3748
 2519TIP3   OH231751   7.337   6.377  17.840 -0.2420 -0.1825 -0.1579
 2519TIP3    H131752   7.431   6.360  17.843 -0.2154 -0.1159 -0.5174
 2519TIP3    H231753   7.315   6.407  17.928  0.0295 -0.4209 -0.0081
 2520TIP3   OH231754   0.816   5.570  19.777 -0.4710  0.7091  0.0549
 2520TIP3    H131755   0.880   5.578  19.847 -0.5915 -0.5650  0.3450
 2520TIP3    H231756   0.799   5.660  19.749  0.7863  1.1285  0.5565
 2521TIP3   OH231757   7.601   5.039  19.364  1.1673 -0.0277 -0.3907
 2521TIP3    H131758   7.624   5.129  19.388 -1.3945  0.8202 -0.8555
 2521TIP3    H231759   7.611   5.036  19.268  0.1774  0.1313 -0.5104
 2522TIP3   OH231760   5.720   1.807  18.112 -0.1158 -0.0411 -0.6099
 2522TIP3    H131761   5.674   1.840  18.190  0.5459 -0.0970 -0.1841
 2522TIP3    H231762   5.765   1.884  18.077  0.1424 -0.1586 -0.5370
 2523TIP3   OH231763   1.074   6.246  18.115  0.3263  0.4913  0.2330
 2523TIP3    H131764   1.007   6.283  18.058  1.1328  0.9657 -0.4254
 2523TIP3    H231765   1.101   6.319  18.171  1.3395  0.6987 -0.5148
 2524TIP3   OH231766   2.753   7.179  16.954  0.2229  0.3103 -0.2482
 2524TIP3    H131767   2.688   7.121  16.914  0.9683  0.5707 -1.9315
 2524TIP3    H231768   2.822   7.186  16.888  0.8611  1.9157  0.5438
 2525TIP3   OH231769   5.022   6.055  19.116 -0.1145  0.0973  0.2280
 2525TIP3    H131770   4.954   6.077  19.052  0.9030  0.1453 -0.8742
 2525TIP3    H231771   5.037   5.961  19.104  1.5211  0.4752 -1.1093
 2526TIP3   OH231772   4.318   6.851  17.311 -0.2673  0.2594  0.4651
 2526TIP3    H131773   4.270   6.846  17.229 -0.8067 -1.2660  0.8461
 2526TIP3    H231774   4.282   6.929  17.354 -1.5035 -0.1224  0.1731
 2527TIP3   OH231775   7.472   3.962  18.559 -0.3723  0.0620  0.2981
 2527TIP3    H131776   7.482   4.012  18.640  1.5979  0.8478 -0.3570
 2527TIP3    H231777   7.378   3.950  18.548 -0.6941  0.4305  2.3902
 2528TIP3   OH231778   2.298   3.618  19.563 -0.2598 -0.1208  0.4236
 2528TIP3    H131779   2.221   3.651  19.517 -1.2703 -0.4812  1.7766
 2528TIP3    H231780   2.370   3.626  19.500 -1.2857  0.7577 -0.6778
 2529TIP3   OH231781   0.438   3.573  18.489 -0.0524 -0.3700 -0.4201
 2529TIP3    H131782   0.517   3.529  18.456  1.2952  1.9377 -0.5398
 2529TIP3    H231783   0.378   3.575  18.415  0.7527 -0.0587 -1.0765
 2530TIP3   OH231784   2.973   5.932  19.198 -0.3355  0.2944 -0.0161
 2530TIP3    H131785   2.878   5.940  19.201 -0.2347  1.6117  0.1618
 2530TIP3    H231786   2.988   5.844  19.162 -1.6029 -0.0336  0.1970
 2531TIP3   OH231787   2.330   2.427  19.194 -0.8007  0.0771 -0.1170
 2531TIP3    H131788   2.297   2.489  19.259 -0.3417 -1.1818  1.3791
 2531TIP3    H231789   2.349   2.481  19.117 -0.8293  1.7117  0.9692
 2532TIP3   OH231790   5.824   1.188  17.149 -0.3919  0.3642  0.2516
 2532TIP3    H131791   5.851   1.231  17.068  2.5943 -0.3797  0.7490
 2532TIP3    H231792   5.740   1.147  17.127 -0.4485  1.5047 -1.9662
 2533TIP3   OH231793   1.586   2.092  18.504 -0.8093 -0.1064  0.2868
 2533TIP3    H131794   1.549   2.175  18.534  1.2709  0.5493  1.1978
 2533TIP3    H231795   1.605   2.105  18.411  1.7855  1.4001  0.9357
 2534TIP3   OH231796   4.069   1.887  18.074  0.3113  0.3248 -0.2059
 2534TIP3    H131797   4.054   1.850  17.987 -0.0515 -0.4035  0.1495
 2534TIP3    H231798   4.015   1.832  18.132  2.7098 -1.0625  0.8610
 2535TIP3   OH231799   0.727   4.290  18.849 -0.7951 -0.3874 -0.4098
 2535TIP3    H131800   0.776   4.245  18.917  0.9447 -1.3551 -2.2193
 2535TIP3    H231801   0.660   4.227  18.821 -0.0584 -0.8789 -1.1132
 2536TIP3   OH231802   7.533   6.543  18.686 -0.5973 -0.8525 -0.1327
 2536TIP3    H131803   7.452   6.517  18.642 -0.8098 -0.3432 -0.0394
 2536TIP3    H231804   7.556   6.627  18.647 -1.1290 -0.0792  1.1770
 2537TIP3   OH231805   0.181   3.956  19.433 -0.4798 -0.8382 -0.1928
 2537TIP3    H131806   0.089   3.936  19.451 -0.7489 -0.8521 -1.4584
 2537TIP3    H231807   0.213   3.879  19.385  0.2990 -0.9902  0.5511
 2538TIP3   OH231808   0.853   6.939  19.181 -0.3881  0.2592  0.2032
 2538TIP3    H131809   0.841   6.996  19.105 -0.4537  0.1379  0.1241
 2538TIP3    H231810   0.810   6.858  19.158  2.5412 -1.0753 -1.0949
 2539TIP3   OH231811   3.577   1.518  18.236 -0.5407  0.0709  0.4776
 2539TIP3    H131812   3.551   1.571  18.311 -2.1517  0.2142 -0.1453
 2539TIP3    H231813   3.671   1.529  18.230 -0.8180  2.9660  0.3040
 2540TIP3   OH231814   4.326   0.149  16.997  0.0614  0.0270 -0.1969
 2540TIP3    H131815   4.409   0.129  16.953  0.1695  1.2474 -0.5677
 2540TIP3    H231816   4.278   0.204  16.935 -0.3758  0.6066  0.6369
 2541TIP3   OH231817   1.664   0.294  19.432 -0.0061  0.2199 -0.2154
 2541TIP3    H131818   1.655   0.245  19.350  1.6314  2.2131 -1.6947
 2541TIP3    H231819   1.589   0.353  19.433  0.8328  1.3538 -1.1941
 2542TIP3   OH231820   5.361   4.046  18.664  0.1879 -0.6243 -0.2685
 2542TIP3    H131821   5.398   4.004  18.586  1.3696  2.3355 -1.4598
 2542TIP3    H231822   5.273   4.072  18.637  0.7276  0.7334 -0.8436
 2543TIP3   OH231823   4.412   3.874  18.590 -0.2931 -0.0399 -0.3803
 2543TIP3    H131824   4.418   3.781  18.568  0.7128  0.3864 -2.0378
 2543TIP3    H231825   4.436   3.920  18.509 -1.4345  1.6800  0.1987
 2544TIP3   OH231826   6.527   5.908  19.040 -0.5772  0.0900 -0.0164
 2544TIP3    H131827   6.593   5.927  18.973 -0.1782 -1.3653 -0.0710
 2544TIP3    H231828   6.455   5.869  18.992 -0.6502 -0.1639  0.2997
 2545TIP3   OH231829   4.578   7.110  19.248  0.0463  0.0760 -0.4598
 2545TIP3    H131830   4.616   7.023  19.232  1.0959  0.8662 -2.6513
 2545TIP3    H231831   4.647   7.171  19.224 -0.5574  1.5474  1.3810
 2546TIP3   OH231832   2.498   7.082  18.911  0.5419 -0.0985  0.6775
 2546TIP3    H131833   2.575   7.057  18.860 -1.4737 -2.7269 -1.3633
 2546TIP3    H231834   2.470   7.001  18.954 -1.2544  0.6981  1.1023
 2547TIP3   OH231835   1.379   6.203  18.124 -0.3743 -0.0264 -0.1753
 2547TIP3    H131836   1.288   6.205  18.096 -0.6839 -1.1110  0.6702
 2547TIP3    H231837   1.381   6.258  18.203 -0.0865  0.7597 -0.7179
 2548TIP3   OH231838   6.376   0.803  18.877 -0.0027  0.2583 -0.5308
 2548TIP3    H131839   6.346   0.893  18.887 -0.0371  0.4173 -1.8606
 2548TIP3    H231840   6.438   0.806  18.803  1.1666 -0.5485  0.3724
 2549TIP3   OH231841   7.131   0.412  16.747 -0.3200 -0.6977 -0.0302
 2549TIP3    H131842   7.065   0.349  16.776 -2.6467  1.3270 -0.6166
 2549TIP3    H231843   7.103   0.495  16.784  2.7879  0.0512  0.9397
 2550TIP3   OH231844   5.727   6.533  18.807 -0.3981  0.4098 -0.0064
 2550TIP3    H131845   5.759   6.445  18.789  2.5357  1.2774  0.4202
 2550TIP3    H231846   5.735   6.579  18.724  0.1323  0.8229  0.2712
 2551TIP3   OH231847   0.512   6.068  16.660  0.0597  0.6312 -0.2521
 2551TIP3    H131848   0.597   6.112  16.672 -0.0458  0.3834  1.8639
 2551TIP3    H231849   0.517   5.990  16.715 -1.0389 -0.1510 -1.2147
 2552TIP3   OH231850   2.662   2.007  17.394  0.1681 -0.1347  0.1655
 2552TIP3    H131851   2.571   1.984  17.374  0.3667 -0.2289 -0.6661
 2552TIP3    H231852   2.710   1.985  17.315  1.2698 -1.9650  1.2820
 2553TIP3   OH231853   3.273   7.528  18.104 -0.4046  0.2477 -0.0578
 2553TIP3    H131854   3.281   7.503  18.196 -1.0654  0.1834 -0.0133
 2553TIP3    H231855   3.320   7.612  18.098  2.5901 -1.3147 -0.3994
 2554TIP3   OH231856   0.677   3.709  18.725  0.5409  0.4329  0.5748
 2554TIP3    H131857   0.611   3.760  18.772  1.6101  0.9673  1.5492
 2554TIP3    H231858   0.667   3.735  18.634 -0.6894  0.3845  0.6884
 2555TIP3   OH231859   6.035   3.039  19.202  0.0356  0.1229  0.2157
 2555TIP3    H131860   6.054   2.959  19.250  1.0286  1.5594  2.3395
 2555TIP3    H231861   6.108   3.047  19.140  0.3228 -0.2243  0.5044
 2556TIP3   OH231862   2.657   2.947  18.290  0.1367 -0.1329 -0.6976
 2556TIP3    H131863   2.623   2.860  18.272  0.5615 -0.3948 -0.2571
 2556TIP3    H231864   2.581   2.996  18.323 -0.0602 -0.3880 -0.7701
 2557TIP3   OH231865   4.834   3.288  19.496 -0.1226  0.0265  0.4004
 2557TIP3    H131866   4.806   3.380  19.492  1.2667  0.5261  1.2158
 2557TIP3    H231867   4.930   3.293  19.492 -0.0627 -1.5017 -1.0416
 2558TIP3   OH231868   3.012   3.473  18.836  0.5240  0.0025  0.2300
 2558TIP3    H131869   2.950   3.481  18.909  0.9000 -2.6797  0.9692
 2558TIP3    H231870   3.039   3.562  18.817 -2.2740  1.1116  1.0002
 2559TIP3   OH231871   1.487   6.889  17.426  0.3794  0.0918  0.6854
 2559TIP3    H131872   1.483   6.980  17.396  1.7898  0.1110  0.5064
 2559TIP3    H231873   1.484   6.837  17.346 -0.0330 -0.0170  0.7670
 2560TIP3   OH231874   6.388   2.567  19.158  0.6182  0.1969  0.4066
 2560TIP3    H131875   6.301   2.532  19.140  1.3090 -2.7316  2.1607
 2560TIP3    H231876   6.374   2.629  19.230 -0.4131  2.6911 -1.7731
 2561TIP3   OH231877   0.816   1.927  18.913  0.3931  0.0777 -0.0678
 2561TIP3    H131878   0.905   1.961  18.921 -0.2992  1.7885  1.1089
 2561TIP3    H231879   0.789   1.950  18.824  1.3735 -1.2148 -0.7342
 2562TIP3   OH231880   3.363   2.471  17.608 -0.5098  0.0475 -0.3494
 2562TIP3    H131881   3.300   2.450  17.540  0.1141  2.8601 -1.9375
 2562TIP3    H231882   3.351   2.564  17.625  0.7345 -0.1331  1.9961
 2563TIP3   OH231883   3.053   1.327  17.633 -0.1450  0.0051  0.5966
 2563TIP3    H131884   3.042   1.308  17.540  0.1104  0.8328  0.3928
 2563TIP3    H231885   3.132   1.380  17.637 -0.2643  0.1356  1.2677
 2564TIP3   OH231886   3.070   5.003  19.124  0.4919 -0.1385  0.5282
 2564TIP3    H131887   3.128   4.990  19.049 -0.9805 -0.1922 -0.6515
 2564TIP3    H231888   3.039   4.916  19.147 -0.3753  0.0365  0.0806
 2565TIP3   OH231889   0.136   3.604  18.762  0.2353  0.6105 -0.0031
 2565TIP3    H131890   0.080   3.654  18.703  0.3322 -0.5463 -1.1055
 2565TIP3    H231891   0.098   3.516  18.762  1.6224 -0.0076 -0.2007
 2566TIP3   OH231892   4.551   3.683  18.958 -0.0989  0.4610 -0.1604
 2566TIP3    H131893   4.571   3.774  18.979 -0.9482  0.4730  0.7300
 2566TIP3    H231894   4.630   3.649  18.917  0.8224  1.1571  0.9549
 2567TIP3   OH231895   6.702   6.023  18.109  0.4485  0.4757  0.4273
 2567TIP3    H131896   6.663   6.098  18.065  0.1982  0.2251  0.2251
 2567TIP3    H231897   6.681   5.948  18.054 -0.6653  0.0172  1.4248
 2568TIP3   OH231898   3.627   7.095  18.306  0.5663 -0.2928 -0.0559
 2568TIP3    H131899   3.596   7.106  18.216 -1.7845 -0.5585  0.6670
 2568TIP3    H231900   3.628   7.000  18.319 -0.2338 -0.2238  0.5523
 2569TIP3   OH231901   4.407   1.405  19.280 -0.3015 -0.0946 -0.2846
 2569TIP3    H131902   4.467   1.389  19.352 -1.2028 -1.5807  0.1741
 2569TIP3    H231903   4.363   1.487  19.303 -0.0842 -0.1918  0.5119
 2570TIP3   OH231904   2.249   0.647  16.803  0.3593 -0.0708  0.0170
 2570TIP3    H131905   2.344   0.657  16.796  0.2093  2.2968  0.4872
 2570TIP3    H231906   2.219   0.645  16.712  0.8739 -1.5077 -0.1490
 2571TIP3   OH231907   2.891   7.306  17.496 -0.5224 -0.3564  0.2801
 2571TIP3    H131908   2.943   7.381  17.466 -2.8069  0.0450 -3.1230
 2571TIP3    H231909   2.802   7.340  17.503 -1.4500 -2.5121 -0.3743
 2572TIP3   OH231910   0.100   3.388  17.796  0.3564  0.3312  0.1777
 2572TIP3    H131911   0.015   3.428  17.776  0.2676 -0.3784 -0.9315
 2572TIP3    H231912   0.122   3.422  17.883 -1.5335 -0.2497  0.9363
 2573TIP3   OH231913   3.470   0.541  18.135 -0.0819  0.2898 -0.1419
 2573TIP3    H131914   3.476   0.447  18.119  0.2664 -0.2496  2.6874
 2573TIP3    H231915   3.464   0.549  18.230 -1.5954  3.0818 -0.3771
 2574TIP3   OH231916   7.338   4.669  18.238  0.7400  0.2793 -0.3400
 2574TIP3    H131917   7.413   4.723  18.213  0.1053  0.8460 -1.0648
 2574TIP3    H231918   7.300   4.714  18.314 -0.2999  1.3737 -1.4658
 2575TIP3   OH231919   0.595   5.308  17.689  0.2001 -0.0711  0.1902
 2575TIP3    H131920   0.665   5.333  17.628 -0.2020 -0.2140 -0.3381
 2575TIP3    H231921   0.542   5.245  17.639  0.3978 -0.9064  1.0111
 2576TIP3   OH231922   3.205   3.271  18.513  0.2300  0.1120 -0.5195
 2576TIP3    H131923   3.296   3.255  18.538  0.7574  1.8086 -1.1921
 2576TIP3    H231924   3.205   3.268  18.418 -0.0161  1.8948 -0.6063
 2577TIP3   OH231925   1.316   4.639  17.383  0.3637 -0.2121 -0.5924
 2577TIP3    H131926   1.288   4.730  17.374 -1.3297 -0.1614  3.3050
 2577TIP3    H231927   1.241   4.587  17.352  0.4356 -0.2632 -0.6834
 2578TIP3   OH231928   0.103   3.327  18.327  0.3384  0.0751 -0.2642
 2578TIP3    H131929   0.012   3.321  18.356 -0.4779  2.1289 -2.1280
 2578TIP3    H231930   0.118   3.244  18.282 -1.1644  0.2959 -1.2678
 2579TIP3   OH231931   6.909   7.364  17.930  0.5030  0.5044  0.0665
 2579TIP3    H131932   6.959   7.441  17.903  0.2273  0.7896  0.3492
 2579TIP3    H231933   6.839   7.356  17.866 -0.1263  1.1559  0.6487
 2580TIP3   OH231934   5.960   7.499  19.540 -0.0941  0.1155 -0.1160
 2580TIP3    H131935   5.954   7.532  19.629 -1.0784 -0.4558  0.0533
 2580TIP3    H231936   5.962   7.577  19.485 -0.5495  0.4695  0.3594
 2581TIP3   OH231937   1.876   0.482  18.584 -0.2034 -0.5776  0.1205
 2581TIP3    H131938   1.926   0.531  18.519 -4.1843  0.7826 -2.3344
 2581TIP3    H231939   1.874   0.539  18.661 -1.0976  1.1841 -1.1339
 2582TIP3   OH231940   5.779   0.634  19.337  0.3130  0.4648 -0.2396
 2582TIP3    H131941   5.807   0.580  19.263 -0.0281 -0.3074  0.1819
 2582TIP3    H231942   5.814   0.721  19.318  0.2625  0.2679 -1.2896
 2583TIP3   OH231943   6.416   4.011  17.018 -0.2832 -0.1530  0.4087
 2583TIP3    H131944   6.445   4.090  16.971  0.5439 -0.0690  1.0345
 2583TIP3    H231945   6.398   4.042  17.107 -0.9555 -0.4872  0.3973
 2584TIP3   OH231946   7.181   1.305  18.668  0.1396 -0.0352 -0.7523
 2584TIP3    H131947   7.205   1.269  18.582  1.6275 -0.9088 -0.0184
 2584TIP3    H231948   7.173   1.228  18.724 -0.0055  0.5765  0.0745
 2585TIP3   OH231949   7.103   0.279  17.878  0.3981  0.0346 -0.0061
 2585TIP3    H131950   7.106   0.293  17.973  1.0736 -0.3722  0.0340
 2585TIP3    H231951   7.066   0.192  17.868 -0.7982  0.5386 -0.1652
 2586TIP3   OH231952   7.543   4.158  18.356 -0.3529 -0.4540 -0.4658
 2586TIP3    H131953   7.478   4.223  18.381 -0.0270 -0.1269 -0.4570
 2586TIP3    H231954   7.512   4.076  18.394 -0.5656 -0.2283 -0.1500
 2587TIP3   OH231955   0.311   5.491  18.074 -0.0750  0.6674 -0.0057
 2587TIP3    H131956   0.347   5.436  18.144 -0.2841 -1.9358 -1.8082
 2587TIP3    H231957   0.388   5.522  18.026 -0.0034  0.7900  0.1877
 2588TIP3   OH231958   0.987   5.512  18.735  0.0231  0.8733  0.0654
 2588TIP3    H131959   0.985   5.455  18.812  0.3347  1.5624  0.5889
 2588TIP3    H231960   0.921   5.475  18.676  0.4734 -0.2604  0.2275
 2589TIP3   OH231961   6.646   3.629  17.822 -0.4416 -0.3671 -0.5311
 2589TIP3    H131962   6.684   3.696  17.766  0.2412 -0.8845 -0.7009
 2589TIP3    H231963   6.707   3.621  17.895  0.7323 -2.4040 -1.6510
 2590TIP3   OH231964   4.917   0.322  19.464 -0.1966 -0.3818  0.3259
 2590TIP3    H131965   4.917   0.270  19.383 -1.1964  0.4445 -0.2253
 2590TIP3    H231966   4.864   0.270  19.526 -0.1637 -0.6030  0.1695
 2591TIP3   OH231967   6.760   1.434  19.269  0.5712 -0.2702  0.2988
 2591TIP3    H131968   6.769   1.379  19.191 -0.3906  0.2675 -0.2183
 2591TIP3    H231969   6.764   1.373  19.342  2.5368 -0.6809 -0.0926
 2592TIP3   OH231970   1.610   4.336  17.365  0.8632  0.6593  0.2705
 2592TIP3    H131971   1.600   4.414  17.311 -1.4178 -1.0665 -2.0583
 2592TIP3    H231972   1.564   4.357  17.446 -0.2427  1.5594 -0.5501
 2593TIP3   OH231973   4.162   6.827  19.372 -0.0119 -0.3430  0.1379
 2593TIP3    H131974   4.113   6.903  19.340  0.8197  0.2873  0.2907
 2593TIP3    H231975   4.245   6.865  19.402  0.0802 -1.2065  1.0047
 2594TIP3   OH231976   0.140   1.931  18.321  0.4303 -0.3180  0.1282
 2594TIP3    H131977   0.159   1.987  18.397  1.1866  0.8839 -0.9024
 2594TIP3    H231978   0.161   1.986  18.245  0.7884 -1.8700 -0.9474
 2595TIP3   OH231979   3.952   1.626  18.608 -0.4520 -0.5711 -0.0740
 2595TIP3    H131980   3.974   1.544  18.564  1.0359 -0.5438  0.5605
 2595TIP3    H231981   3.997   1.621  18.692  0.2343  1.1702 -0.2953
 2596TIP3   OH231982   2.138   0.507  17.176  0.0635 -0.4067 -0.2869
 2596TIP3    H131983   2.153   0.467  17.090  0.6482 -0.7076 -0.0530
 2596TIP3    H231984   2.220   0.492  17.224 -0.3302 -0.4208  0.3920
 2597TIP3   OH231985   0.486   3.339  18.920 -0.0669 -0.4835  0.0924
 2597TIP3    H131986   0.511   3.420  18.876 -1.0065  0.1205  0.6233
 2597TIP3    H231987   0.414   3.304  18.866 -0.2331 -0.5224  0.3410
 2598TIP3   OH231988   7.236   6.044  18.210  0.4978 -0.6706  0.0261
 2598TIP3    H131989   7.218   5.973  18.148  1.0580  0.4053 -1.4156
 2598TIP3    H231990   7.171   6.031  18.279 -0.0629 -1.9964 -0.6940
 2599TIP3   OH231991   7.499   3.334  18.345  0.0573 -0.1780  0.4069
 2599TIP3    H131992   7.426   3.332  18.406  0.8088 -2.5405  1.3530
 2599TIP3    H231993   7.462   3.306  18.262 -0.6945  1.7660  0.0173
 2600TIP3   OH231994   0.173   6.928  18.725  0.5407 -0.6076  0.1038
 2600TIP3    H131995   0.149   7.018  18.704  0.1221 -0.5892  0.6468
 2600TIP3    H231996   0.256   6.914  18.679 -0.4718 -0.6680 -1.8280
 2601TIP3   OH231997   6.303   1.561  17.834 -0.0980  0.2654 -0.2580
 2601TIP3    H131998   6.215   1.590  17.858  1.0577  0.6917  4.4586
 2601TIP3    H231999   6.316   1.480  17.882  2.1446  0.2377 -0.7820
 2602TIP3   OH232000   1.817   5.233  18.184 -0.4197 -0.0688  0.7502
 2602TIP3    H132001   1.823   5.139  18.168  1.0992 -0.1282  1.5370
 2602TIP3    H232002   1.834   5.273  18.099 -1.8639 -0.4960  0.2390
 2603TIP3   OH232003   3.749   1.929  17.195  0.5391 -0.4734 -0.4706
 2603TIP3    H132004   3.843   1.938  17.179  0.5883 -1.3563 -0.7427
 2603TIP3    H232005   3.742   1.872  17.272  0.2727  2.8894  2.2373
 2604TIP3   OH232006   4.008   1.117  17.730  0.0191 -0.1744  0.3776
 2604TIP3    H132007   3.920   1.112  17.769 -0.4335  1.1137 -0.3995
 2604TIP3    H232008   4.019   1.035  17.683 -1.4725  0.3176 -0.9006
 2605TIP3   OH232009   0.829   6.324  19.128  0.0459 -0.2880  0.0004
 2605TIP3    H132010   0.866   6.274  19.201 -0.5005 -0.8987 -0.1353
 2605TIP3    H232011   0.819   6.413  19.163 -0.5380 -0.6538  0.7984
 2606TIP3   OH232012   7.493   4.149  17.849  0.7406  0.4578 -0.2683
 2606TIP3    H132013   7.445   4.206  17.789  1.2596  2.7821  1.3738
 2606TIP3    H232014   7.574   4.128  17.802 -0.2474 -0.5002 -1.6210
 2607TIP3   OH232015   0.685   2.874  18.143 -0.1701  0.1890 -0.2333
 2607TIP3    H132016   0.760   2.931  18.126 -0.4490  0.4332 -0.6547
 2607TIP3    H232017   0.608   2.931  18.135 -0.4629 -0.2799 -0.8801
 2608TIP3   OH232018   2.120   6.758  16.718 -0.1979  0.7902 -0.0023
 2608TIP3    H132019   2.206   6.763  16.675  0.1431  0.3505  0.6136
 2608TIP3    H232020   2.058   6.780  16.649  0.3220 -0.1427 -0.7951
 2609TIP3   OH232021   1.592   4.971  17.415  0.3759  0.1088  0.0971
 2609TIP3    H132022   1.592   4.947  17.323  0.3934  0.0482  0.1127
 2609TIP3    H232023   1.656   4.912  17.455 -0.1130 -0.3102  0.2637
 2610TIP3   OH232024   5.361   6.408  18.676 -0.1737  0.0615 -0.0208
 2610TIP3    H132025   5.350   6.422  18.583  1.2400  0.2547 -0.1732
 2610TIP3    H232026   5.438   6.351  18.683 -1.4268 -1.6130  0.9321
 2611TIP3   OH232027   3.086   5.952  19.721 -0.2090  0.1905 -0.2247
 2611TIP3    H132028   3.098   6.024  19.659  0.2137  1.7816  1.5991
 2611TIP3    H232029   3.121   5.875  19.677  1.1463  1.4941 -1.5103
 2612TIP3   OH232030   5.452   6.290  18.291 -0.2744  0.1492 -0.3362
 2612TIP3    H132031   5.476   6.370  18.339  1.1396  0.3951 -1.3703
 2612TIP3    H232032   5.363   6.308  18.259 -0.9932  0.2374  1.5707
 2613TIP3   OH232033   0.218   6.214  18.200  0.1993  0.4571 -0.1874
 2613TIP3    H132034   0.250   6.297  18.162  1.8102  1.2411  2.5621
 2613TIP3    H232035   0.180   6.239  18.284  0.4730 -1.5636  0.5984
 2614TIP3   OH232036   1.594   4.647  18.108 -0.1371 -0.2728 -0.0623
 2614TIP3    H132037   1.578   4.560  18.072  0.6216  0.6418 -2.8287
 2614TIP3    H232038   1.513   4.668  18.155 -1.0310 -1.7462 -0.8588
 2615TIP3   OH232039   1.663   3.278  17.876  0.3433  0.0757 -0.0642
 2615TIP3    H132040   1.701   3.277  17.964  0.1029  0.1335  0.0405
 2615TIP3    H232041   1.630   3.367  17.866 -0.7329 -0.2663  0.2645
 2616TIP3   OH232042   5.480   6.039  16.395  0.0590 -0.8979 -0.2558
 2616TIP3    H132043   5.400   6.074  16.356 -0.5136 -1.1045  0.6835
 2616TIP3    H232044   5.449   5.984  16.468  1.0572 -0.9122  0.1792
 2617TIP3   OH232045   4.404   3.546  19.136  0.1988 -0.1012 -0.1736
 2617TIP3    H132046   4.429   3.575  19.224  1.1737 -1.4661  0.0444
 2617TIP3    H232047   4.481   3.565  19.082  1.1264 -2.6121  0.0965
 2618TIP3   OH232048   2.711   5.472  17.399 -0.2200 -0.3514 -0.0505
 2618TIP3    H132049   2.776   5.518  17.346  0.6576 -0.9178  0.5047
 2618TIP3    H232050   2.671   5.409  17.339 -1.2218  0.9043 -0.7381
 2619TIP3   OH232051   7.480   0.092  19.543  0.3097 -0.0064  0.0086
 2619TIP3    H132052   7.571   0.111  19.568  0.4370 -0.6473  0.0499
 2619TIP3    H232053   7.436   0.074  19.626  0.2164  0.0209 -0.0357
 2620TIP3   OH232054   5.102   4.843  18.678 -0.5249  0.1431 -0.2783
 2620TIP3    H132055   5.131   4.807  18.762 -0.3746 -0.4520 -0.5811
 2620TIP3    H232056   5.158   4.920  18.665  0.5108 -0.6447 -0.5613
 2621TIP3   OH232057   5.857   0.560  17.587  0.3655  0.3893 -0.6627
 2621TIP3    H132058   5.946   0.580  17.561 -0.1487  0.7362 -2.2694
 2621TIP3    H232059   5.811   0.644  17.585 -0.5656 -0.1166 -2.3418
 2622TIP3   OH232060   5.099   4.600  19.091  0.2501  0.2244  0.6585
 2622TIP3    H132061   5.039   4.610  19.017  0.4530 -2.3014  0.0388
 2622TIP3    H232062   5.042   4.574  19.164  0.3224  0.1932  0.7035
 2623TIP3   OH232063   7.471   1.718  16.850  0.1938  0.7949  0.2528
 2623TIP3    H132064   7.443   1.646  16.906  0.0906  0.9846  0.4481
 2623TIP3    H232065   7.499   1.787  16.911  0.0649  1.0088  0.0732
 2624TIP3   OH232066   2.103   5.807  18.796 -0.1112  0.3535 -0.6399
 2624TIP3    H132067   2.170   5.744  18.769  0.2700  0.0430  0.9247
 2624TIP3    H232068   2.107   5.876  18.730  2.3367  0.7475 -0.1755
 2625TIP3   OH232069   0.103   2.770  17.568  0.0644 -0.1524  0.4077
 2625TIP3    H132070   0.076   2.835  17.503 -1.9259  0.2820  1.5844
 2625TIP3    H232071   0.193   2.749  17.545 -0.6084 -0.2316 -2.6672
 2626TIP3   OH232072   2.515   3.370  18.745 -0.1566  0.1549 -0.7313
 2626TIP3    H132073   2.564   3.452  18.753  0.4173 -0.2523  0.1972
 2626TIP3    H232074   2.578   3.309  18.706  0.2899 -0.5023  0.9083
 2627TIP3   OH232075   1.080   0.397  17.221 -0.3117  0.0897  0.1360
 2627TIP3    H132076   1.128   0.344  17.157 -2.2994 -0.1217 -1.2402
 2627TIP3    H232077   1.073   0.340  17.297 -0.6050 -0.8469 -0.5745
 2628TIP3   OH232078   2.035   6.745  19.042  0.0818 -0.4290  0.1630
 2628TIP3    H132079   2.050   6.673  19.103  0.2704 -0.3308  0.2342
 2628TIP3    H232080   2.027   6.823  19.097 -0.1975 -0.4043  0.0942
 2629TIP3   OH232081   7.174   0.357  17.496  0.1346 -0.6248 -0.3798
 2629TIP3    H132082   7.220   0.369  17.579  3.0564 -0.3642 -1.8743
 2629TIP3    H232083   7.128   0.274  17.505  2.0670 -1.6375  0.8448
 2630TIP3   OH232084   2.617   7.372  17.417 -1.0791  0.7067 -0.8406
 2630TIP3    H132085   2.681   7.350  17.349 -0.2962 -0.5132  0.2588
 2630TIP3    H232086   2.619   7.468  17.422 -0.0686  0.7289 -1.5075
 2631TIP3   OH232087   5.043   5.520  19.375  0.0884  0.4508 -0.1383
 2631TIP3    H132088   5.118   5.578  19.387  0.7723 -0.4499 -0.0385
 2631TIP3    H232089   5.074   5.434  19.400 -1.2005  0.1834  0.6151
 2632TIP3   OH232090   2.013   6.130  18.917  0.2243  0.2074  0.4083
 2632TIP3    H132091   2.040   6.057  18.861 -0.1007 -0.0342  0.5597
 2632TIP3    H232092   1.920   6.115  18.932  0.8272 -1.3371  3.3501
 2633TIP3   OH232093   2.512   6.185  17.279 -0.4288 -0.3716  0.1771
 2633TIP3    H132094   2.438   6.227  17.322 -0.4854  1.4292 -1.5049
 2633TIP3    H232095   2.588   6.215  17.327 -0.6096  0.1741  0.1305
 2634TIP3   OH232096   4.235   7.186  18.003  0.3781 -0.2569  0.1164
 2634TIP3    H132097   4.257   7.230  17.921  0.6427  1.5963  1.1140
 2634TIP3    H232098   4.313   7.136  18.025  0.3639 -0.6361 -0.6700
 2635TIP3   OH232099   1.591   7.368  19.488 -0.0462 -0.1007  0.0252
 2635TIP3    H132100   1.543   7.314  19.551  0.9654 -0.3480  0.6201
 2635TIP3    H232101   1.575   7.458  19.516 -0.8603 -0.1436 -0.3053
 2636TIP3   OH232102   7.054   0.631  18.818 -0.4563  0.8698 -0.6037
 2636TIP3    H132103   7.090   0.543  18.810  1.4164  1.4127  1.1064
 2636TIP3    H232104   7.007   0.631  18.901 -0.1032  1.5853 -0.3949
 2637TIP3   OH232105   2.456   2.573  18.951 -0.5662  0.1886 -0.1273
 2637TIP3    H132106   2.450   2.621  18.869  0.2676  0.2891 -0.1389
 2637TIP3    H232107   2.520   2.623  19.003 -0.6738 -0.1773  0.3638
 2638TIP3   OH232108   7.095   5.345  18.882 -0.0087 -0.7308 -0.0090
 2638TIP3    H132109   7.165   5.344  18.817  0.4058  0.9181  0.3465
 2638TIP3    H232110   7.016   5.368  18.832  0.0278 -0.9108 -0.1495
 2639TIP3   OH232111   6.325   0.303  18.368  0.0468 -0.6302  0.2943
 2639TIP3    H132112   6.329   0.289  18.463 -0.4091 -0.0152  0.4069
 2639TIP3    H232113   6.244   0.352  18.354  0.1786 -0.6031 -0.4021
 2640TIP3   OH232114   0.430   3.655  17.819 -0.1494 -0.1978  0.1090
 2640TIP3    H132115   0.342   3.685  17.840 -0.1846  0.1984 -0.5778
 2640TIP3    H232116   0.417   3.566  17.785 -0.1013 -0.8019  1.5880
 2641TIP3   OH232117   4.254   7.672  16.542  0.2800  0.0171 -0.0915
 2641TIP3    H132118   4.299   7.629  16.614  0.1626  0.8126  0.4774
 2641TIP3    H232119   4.216   7.600  16.491 -0.6235 -0.5513  1.2910
 2642TIP3   OH232120   1.744   1.813  18.415 -0.1744  0.6317  0.4950
 2642TIP3    H132121   1.816   1.858  18.461 -1.3969  2.0128  1.1663
 2642TIP3    H232122   1.666   1.861  18.442 -1.0608  1.0123 -2.4493
 2643TIP3   OH232123   6.619   4.801  19.013 -0.2762 -0.1175 -0.1774
 2643TIP3    H132124   6.680   4.840  19.075  0.0703 -1.1738  0.1611
 2643TIP3    H232125   6.538   4.790  19.062  0.3599 -2.0933  0.4900
 2644TIP3   OH232126   4.094   5.776  19.025 -0.2383  0.0822 -0.0469
 2644TIP3    H132127   4.062   5.864  19.047  1.5207  0.4838  1.1132
 2644TIP3    H232128   4.186   5.776  19.052 -0.0527 -1.9634 -0.4870
 2645TIP3   OH232129   7.149   4.970  18.254  0.1132 -0.9766 -0.5706
 2645TIP3    H132130   7.140   5.059  18.219  0.2452  0.1654  2.0933
 2645TIP3    H232131   7.069   4.925  18.225 -1.3819  0.9056  0.3920
 2646TIP3   OH232132   6.114   1.119  17.441  0.6833 -0.3734 -0.3717
 2646TIP3    H132133   6.170   1.139  17.517  1.1878 -2.1016 -0.2283
 2646TIP3    H232134   6.134   1.027  17.421 -0.5674 -0.3957 -1.6602
 2647TIP3   OH232135   1.980   5.349  17.939  0.1477 -0.3652  0.0763
 2647TIP3    H132136   1.912   5.386  17.883 -1.2221 -1.2335  1.1112
 2647TIP3    H232137   2.021   5.281  17.886 -0.5654 -0.6032 -0.1791
 2648TIP3   OH232138   6.526   3.889  17.305  0.4361  0.4089  0.4371
 2648TIP3    H132139   6.457   3.955  17.315  0.2068  0.1586  0.4958
 2648TIP3    H232140   6.606   3.941  17.293  0.5656  0.7210  2.4043
 2649TIP3   OH232141   2.954   4.596  18.441 -0.6952  0.0004 -1.0415
 2649TIP3    H132142   2.974   4.514  18.487  2.3343  0.8656 -0.5787
 2649TIP3    H232143   2.941   4.660  18.511  1.3622  0.7810 -1.3137
 2650TIP3   OH232144   3.643   3.804  19.325  0.4338  0.0560 -0.7500
 2650TIP3    H132145   3.656   3.885  19.375 -0.7824 -0.1038 -0.1321
 2650TIP3    H232146   3.664   3.827  19.235  0.1844  1.0445 -0.5649
 2651TIP3   OH232147   3.054   0.967  18.210 -0.1705 -0.4558  0.3271
 2651TIP3    H132148   3.070   1.015  18.129  0.1047 -2.7385 -1.0680
 2651TIP3    H232149   3.120   1.000  18.271 -0.0009  0.8987 -0.5442
 2652TIP3   OH232150   6.135   4.379  19.042 -0.2086 -0.1471 -0.4097
 2652TIP3    H132151   6.068   4.412  19.102  0.3701  1.8595 -0.7819
 2652TIP3    H232152   6.085   4.347  18.966 -0.8165 -0.4085  0.0917
 2653TIP3   OH232153   1.337   5.580  17.849  0.1530  0.2979  0.4915
 2653TIP3    H132154   1.273   5.594  17.780  1.3904 -0.8242 -0.9323
 2653TIP3    H232155   1.392   5.658  17.847  1.2388 -0.4522 -1.0184
 2654TIP3   OH232156   4.945   1.417  18.917 -0.4071  0.1650 -0.8699
 2654TIP3    H132157   5.032   1.378  18.927 -0.7120 -0.3394 -0.0843
 2654TIP3    H232158   4.885   1.343  18.928 -1.1041  1.0997  2.8828
 2655TIP3   OH232159   5.198   4.875  18.140 -0.0670 -0.2666  0.3195
 2655TIP3    H132160   5.186   4.835  18.226  1.6530 -1.8796 -0.1332
 2655TIP3    H232161   5.174   4.807  18.078 -1.0351  0.7936 -0.5057
 2656TIP3   OH232162   1.341   1.218  17.452  0.1367  0.0644  0.1075
 2656TIP3    H132163   1.256   1.193  17.488  0.7875 -1.7339  0.5469
 2656TIP3    H232164   1.397   1.226  17.529  0.1496  2.2967 -0.0944
 2657TIP3   OH232165   4.873   7.479  19.136  0.2110 -0.2432 -0.1526
 2657TIP3    H132166   4.862   7.386  19.152  0.1378  0.0241  1.5277
 2657TIP3    H232167   4.963   7.498  19.164  0.1064  0.2604 -0.1454
 2658TIP3   OH232168   2.032   2.620  18.370 -0.2091  0.3269 -0.4802
 2658TIP3    H132169   2.052   2.535  18.331  0.7991  0.3091  0.0441
 2658TIP3    H232170   2.070   2.684  18.310 -0.1160  0.3613 -0.3858
 2659TIP3   OH232171   6.367   4.446  18.375 -0.1464 -0.4521  0.3104
 2659TIP3    H132172   6.349   4.364  18.329  0.8292  0.4394 -1.8143
 2659TIP3    H232173   6.454   4.434  18.413  1.2582  0.4635 -2.3665
 2660TIP3   OH232174   7.408   6.580  19.322  0.0391 -0.4509  0.2075
 2660TIP3    H132175   7.371   6.586  19.234 -0.9038 -1.4891  0.5048
 2660TIP3    H232176   7.375   6.496  19.356 -0.2250  0.2727  1.8117
 2661TIP3   OH232177   5.053   0.799  17.825  0.0776 -0.0345 -0.0428
 2661TIP3    H132178   4.961   0.812  17.846  0.3709  1.5761  0.3324
 2661TIP3    H232179   5.098   0.798  17.909  0.3445 -1.7058 -0.1558
 2662TIP3   OH232180   3.425   7.489  19.017 -0.4916 -0.2234  0.3819
 2662TIP3    H132181   3.419   7.407  18.968  0.4887  0.2564 -0.5917
 2662TIP3    H232182   3.500   7.477  19.075  0.4621  0.4293 -0.6856
 2663TIP3   OH232183   7.489   4.644  18.807  0.2505  0.1319  0.4949
 2663TIP3    H132184   7.532   4.565  18.839  1.2666 -0.1201 -1.3301
 2663TIP3    H232185   7.458   4.689  18.885  1.5703 -0.9801  1.6955
 2664TIP3   OH232186   6.370   6.904  17.271  0.3380  0.2023 -0.0710
 2664TIP3    H132187   6.451   6.864  17.242  0.1096 -0.6888  0.4810
 2664TIP3    H232188   6.345   6.855  17.350  0.3316  1.7772  0.9567
 2665TIP3   OH232189   2.285   2.415  18.704  0.1673  0.0238  0.1461
 2665TIP3    H132190   2.337   2.405  18.624  2.2099  0.6349  1.3285
 2665TIP3    H232191   2.221   2.482  18.682  0.1021 -0.4457 -1.2342
 2666TIP3   OH232192   1.634   5.726  17.227  0.2288  0.1946 -0.0351
 2666TIP3    H132193   1.548   5.740  17.266 -0.5371  0.7034 -1.8470
 2666TIP3    H232194   1.682   5.807  17.245  0.6692 -0.3851  1.6751
 2667TIP3   OH232195   5.536   1.250  18.456  0.1212  0.2557 -0.4728
 2667TIP3    H132196   5.513   1.267  18.547  1.1604 -2.5397  0.4308
 2667TIP3    H232197   5.469   1.294  18.405 -1.8545 -0.0176  1.7309
 2668TIP3   OH232198   1.348   6.131  17.829 -0.2146 -0.1186 -0.1735
 2668TIP3    H132199   1.289   6.198  17.793  1.0562  0.6262 -0.9448
 2668TIP3    H232200   1.323   6.125  17.921 -2.1561 -0.5663 -0.6813
 2669TIP3   OH232201   2.633   5.054  19.353  0.7388 -0.1559 -0.5807
 2669TIP3    H132202   2.597   5.119  19.413  1.1201 -0.1581 -0.3462
 2669TIP3    H232203   2.716   5.091  19.324  1.0324 -0.5949 -0.3300
 2670TIP3   OH232204   4.724   4.105  17.415 -0.2739 -0.0895  0.1010
 2670TIP3    H132205   4.654   4.051  17.377  0.5799 -1.3845  0.2847
 2670TIP3    H232206   4.690   4.194  17.412 -2.6279 -0.8383  1.6797
 2671TIP3   OH232207   5.929   2.365  18.742 -0.3497 -0.3732 -0.4247
 2671TIP3    H132208   5.884   2.354  18.658 -0.9349 -0.5848 -0.0894
 2671TIP3    H232209   5.860   2.389  18.803  0.1505  0.2913 -0.1036
 2672TIP3   OH232210   4.807   4.946  18.403 -0.4686  0.3918 -0.3329
 2672TIP3    H132211   4.845   4.860  18.385  0.9829  1.1679 -1.1790
 2672TIP3    H232212   4.712   4.932  18.400 -0.2855 -1.3998  0.7773
 2673TIP3   OH232213   4.544   6.572  19.102 -0.0089 -0.2819  0.0543
 2673TIP3    H132214   4.592   6.556  19.021  0.7572  1.3408  0.1658
 2673TIP3    H232215   4.593   6.525  19.169 -1.6283 -3.1727 -0.5919
 2674TIP3   OH232216   5.791   0.876  17.229 -0.4158 -0.1931  0.4276
 2674TIP3    H132217   5.723   0.836  17.282 -0.4092 -0.5513  0.1721
 2674TIP3    H232218   5.744   0.927  17.163 -0.4234  0.2788  0.7855
 2675TIP3   OH232219   2.566   2.835  17.568  0.0338 -0.1513 -0.5608
 2675TIP3    H132220   2.570   2.755  17.515  0.8007  1.3313 -2.8939
 2675TIP3    H232221   2.478   2.835  17.605 -0.9884 -0.7133 -2.8132
 2676TIP3   OH232222   1.010   4.011  18.886 -0.0185  0.6113 -0.0948
 2676TIP3    H132223   0.934   4.004  18.945 -0.2943  3.1213 -0.0379
 2676TIP3    H232224   0.972   4.020  18.799  0.2451  0.8483 -0.1864
 2677TIP3   OH232225   6.894   4.021  19.478  0.5783 -0.6469  0.4133
 2677TIP3    H132226   6.835   4.093  19.459  0.6266 -0.4684  0.9356
 2677TIP3    H232227   6.981   4.053  19.454  0.6889 -0.2861  1.2797
 2678TIP3   OH232228   3.441   4.845  17.550 -0.3504  0.3087  0.3187
 2678TIP3    H132229   3.419   4.938  17.543 -1.3522  0.1736  1.2655
 2678TIP3    H232230   3.522   4.843  17.601  0.2586  0.7041 -0.6255
 2679TIP3   OH232231   0.316   4.864  18.814 -0.4435 -0.3769  0.1562
 2679TIP3    H132232   0.259   4.851  18.890 -1.6379  1.6471 -0.3204
 2679TIP3    H232233   0.280   4.806  18.747 -1.1195 -0.1023  0.2737
 2680TIP3   OH232234   1.448   7.488  19.254 -0.6642  0.0547  0.0669
 2680TIP3    H132235   1.465   7.406  19.300 -1.8617  0.1152  0.6486
 2680TIP3    H232236   1.496   7.554  19.304  1.3118 -0.4068 -1.0914
 2681TIP3   OH232237   7.015   4.366  19.046 -0.1016 -0.0404 -0.4326
 2681TIP3    H132238   6.969   4.377  18.962 -2.2589 -0.7031  0.5821
 2681TIP3    H232239   6.972   4.428  19.104  2.2503  1.3486 -0.0723
 2682TIP3   OH232240   1.287   7.178  17.982 -0.3111 -0.1278  0.8853
 2682TIP3    H132241   1.375   7.171  17.945 -0.8863 -2.5573 -0.1937
 2682TIP3    H232242   1.275   7.272  17.996  1.8017  0.4342 -0.5651
 2683TIP3   OH232243   4.112   2.972  17.897 -0.2617 -0.0330 -0.0471
 2683TIP3    H132244   4.033   3.011  17.934 -0.3453 -0.3845  0.1573
 2683TIP3    H232245   4.081   2.917  17.825 -0.1196  0.4770 -0.4983
 2684TIP3   OH232246   6.454   2.914  19.092  0.3525  0.3327  0.2700
 2684TIP3    H132247   6.544   2.891  19.116  0.3526 -0.3690 -0.3452
 2684TIP3    H232248   6.402   2.840  19.123  0.1209  0.2694 -0.2624
 2685TIP3   OH232249   5.070   7.538  17.013  0.2366  0.0633 -0.5678
 2685TIP3    H132250   5.161   7.515  16.991  0.2093 -0.1203 -0.4919
 2685TIP3    H232251   5.036   7.579  16.934  1.3673  3.1066  0.3620
 2686TIP3   OH232252   4.092   1.588  17.369 -0.1830  0.2389  0.6358
 2686TIP3    H132253   4.018   1.536  17.339 -0.4459  0.8322  0.2323
 2686TIP3    H232254   4.123   1.634  17.291  1.0891 -0.5603  0.6378
 2687TIP3   OH232255   7.661   6.697  17.580 -0.0276  0.5686 -0.3405
 2687TIP3    H132256   7.741   6.719  17.629 -0.8270  1.7312  0.5041
 2687TIP3    H232257   7.598   6.672  17.648 -0.6581  0.5497 -0.9272
 2688TIP3   OH232258   6.031   0.429  19.435 -0.3434 -0.6042  0.1839
 2688TIP3    H132259   5.954   0.483  19.452  0.7885  0.2037  3.4976
 2688TIP3    H232260   6.024   0.407  19.342 -2.0652  3.4237 -0.9019
 2689TIP3   OH232261   5.030   2.250  18.053 -0.0439  0.6999  0.4135
 2689TIP3    H132262   5.001   2.315  17.989  1.1619  1.7452  0.8886
 2689TIP3    H232263   5.066   2.302  18.125  2.6303 -0.4385  0.0294
 2690TIP3   OH232264   1.653   4.376  19.342  0.2304 -0.5697 -0.2868
 2690TIP3    H132265   1.579   4.324  19.372  1.0304 -0.4966  2.0246
 2690TIP3    H232266   1.615   4.441  19.284 -1.7457  0.1664  1.6897
 2691TIP3   OH232267   3.342   7.010  18.367 -0.5433  0.1101 -0.0834
 2691TIP3    H132268   3.350   7.099  18.334  3.0829  1.0620  2.7581
 2691TIP3    H232269   3.312   7.020  18.458 -1.6633 -1.7400 -0.1851
 2692TIP3   OH232270   3.647   1.572  17.192  0.0411 -0.1286 -0.0053
 2692TIP3    H132271   3.660   1.657  17.234  1.1058 -0.4870  0.4325
 2692TIP3    H232272   3.552   1.562  17.184 -0.1298  0.5408  1.0972
 2693TIP3   OH232273   4.191   4.860  17.510  0.0453  0.2301  0.2176
 2693TIP3    H132274   4.113   4.805  17.498 -0.6342  0.5243  2.6983
 2693TIP3    H232275   4.176   4.935  17.452 -0.7812 -0.4690 -0.4970
 2694TIP3   OH232276   7.276   4.080  19.063  0.5377  0.1270  0.1009
 2694TIP3    H132277   7.332   4.157  19.051  0.5905 -0.0217 -0.7050
 2694TIP3    H232278   7.227   4.074  18.981  0.6074 -0.7584  0.1176
 2695TIP3   OH232279   0.849   3.800  17.904  0.3640 -0.4055  0.3832
 2695TIP3    H132280   0.813   3.713  17.922  1.7587 -1.0106  0.3659
 2695TIP3    H232281   0.797   3.833  17.831 -0.4440 -1.0606  0.6533
 2696TIP3   OH232282   5.861   1.859  18.437  0.2315  0.0834  0.3172
 2696TIP3    H132283   5.866   1.949  18.407  1.1094  0.5456  1.7479
 2696TIP3    H232284   5.939   1.846  18.491 -0.4468 -1.1640  1.0750
 2697TIP3   OH232285   3.964   4.964  19.326  0.0197  0.4460 -0.1689
 2697TIP3    H132286   3.913   5.040  19.300  1.1730  0.2377 -3.4425
 2697TIP3    H232287   4.042   5.001  19.367 -1.3554  0.8116  2.3224
 2698TIP3   OH232288   7.471   2.996  17.193 -0.3525 -0.4614  0.0302
 2698TIP3    H132289   7.515   3.067  17.146  1.3968 -2.3456 -1.3463
 2698TIP3    H232290   7.408   2.961  17.130 -1.4388  0.0389  0.8126
 2699TIP3   OH232291   2.390   1.763  16.957 -0.1651 -0.7908 -0.0681
 2699TIP3    H132292   2.406   1.771  16.862 -0.0381  4.2550  0.0883
 2699TIP3    H232293   2.306   1.718  16.963 -0.4313 -0.8252 -2.6192
 2700TIP3   OH232294   4.038   3.467  17.924  0.6211 -0.1264 -0.0459
 2700TIP3    H132295   4.000   3.395  17.874  1.4648 -0.4594 -0.2300
 2700TIP3    H232296   3.992   3.545  17.892  0.3441 -0.4717 -0.5087
 2701TIP3   OH232297   7.317   0.490  19.373 -0.2495  0.0724 -0.1910
 2701TIP3    H132298   7.233   0.446  19.362 -0.2049  0.3459 -1.8959
 2701TIP3    H232299   7.379   0.419  19.391 -0.7743 -0.1569  0.7876
 2702TIP3   OH232300   1.234   5.305  18.751  0.1531 -0.4573 -0.2964
 2702TIP3    H132301   1.222   5.335  18.841  4.0488 -0.2876  0.3186
 2702TIP3    H232302   1.263   5.383  18.703  1.4209 -1.2377 -0.8498
 2703TIP3   OH232303   2.480   0.190  17.863 -0.0977 -0.3438  0.0625
 2703TIP3    H132304   2.563   0.143  17.878  0.7236  0.4205 -1.7417
 2703TIP3    H232305   2.450   0.214  17.950  1.5874 -0.6532  0.7707
 2704TIP3   OH232306   5.652   1.271  16.814 -0.2126 -0.4854 -0.3650
 2704TIP3    H132307   5.732   1.296  16.859 -0.6301 -0.5812  0.4589
 2704TIP3    H232308   5.652   1.175  16.817 -0.3716 -0.4850 -0.3332
 2705TIP3   OH232309   0.229   6.626  17.214 -0.2267 -0.5006 -0.2711
 2705TIP3    H132310   0.245   6.719  17.229  1.5249 -0.5297 -1.5883
 2705TIP3    H232311   0.236   6.615  17.119 -2.6103 -1.6556 -0.3837
 2706TIP3   OH232312   0.772   3.098  19.484  0.4758  0.2581 -0.0093
 2706TIP3    H132313   0.711   3.041  19.438 -1.8101  0.2825  2.7061
 2706TIP3    H232314   0.740   3.186  19.466  0.9757  0.4003 -0.2087
 2707TIP3   OH232315   3.869   5.313  18.889 -0.3338 -0.3368 -0.3578
 2707TIP3    H132316   3.922   5.245  18.931  0.2064  0.7685  0.8177
 2707TIP3    H232317   3.931   5.360  18.833 -0.3557  0.1590  0.0345
 2708TIP3   OH232318   0.295   5.762  19.259 -0.0643  0.2960 -0.4849
 2708TIP3    H132319   0.283   5.852  19.288  0.2878  0.0046  0.6017
 2708TIP3    H232320   0.344   5.769  19.178  0.8905  1.0417  0.1430
 2709TIP3   OH232321   6.330   5.716  18.916 -0.1536 -0.8042 -0.2381
 2709TIP3    H132322   6.330   5.637  18.970 -0.1205 -0.2468  0.5939
 2709TIP3    H232323   6.308   5.685  18.828 -2.7832 -1.4426  0.5488
 2710TIP3   OH232324   6.587   6.537  18.269 -0.2497 -0.6885  0.3226
 2710TIP3    H132325   6.611   6.611  18.325  1.0613 -1.6353  1.0696
 2710TIP3    H232326   6.518   6.492  18.317 -0.0117 -0.7830  0.5763
 2711TIP3   OH232327   1.419   1.663  18.729 -0.2198 -0.2589 -0.0748
 2711TIP3    H132328   1.472   1.589  18.699  1.3583  0.3882  1.0180
 2711TIP3    H232329   1.465   1.697  18.805 -1.0727  1.6621 -0.3514
 2712TIP3   OH232330   0.321   4.101  19.635  0.0299  0.2453  0.1684
 2712TIP3    H132331   0.273   4.060  19.706 -0.5809  0.7502  0.0486
 2712TIP3    H232332   0.319   4.035  19.565 -1.0031  0.4906 -0.0456
 2713TIP3   OH232333   0.527   1.215  17.991  0.0711  0.2321  0.6475
 2713TIP3    H132334   0.486   1.254  18.068 -1.2391  0.8675 -0.3277
 2713TIP3    H232335   0.582   1.145  18.025  0.1717  1.0397  2.2141
 2714TIP3   OH232336   2.328   7.552  18.255 -0.1339 -0.2738  0.1140
 2714TIP3    H132337   2.372   7.585  18.333 -0.4661 -0.9447  0.5932
 2714TIP3    H232338   2.344   7.458  18.256 -1.2915 -0.4863  0.1245
 2715TIP3   OH232339   5.858   0.974  18.011  0.0652 -0.0108  0.4373
 2715TIP3    H132340   5.788   1.007  18.068  0.2167  0.6347  0.2671
 2715TIP3    H232341   5.939   1.010  18.049  0.3462 -1.0601  0.8508
 2716TIP3   OH232342   7.267   7.587  17.437 -0.4293 -0.5141 -0.4145
 2716TIP3    H132343   7.308   7.630  17.512  0.3954  0.1409 -1.2207
 2716TIP3    H232344   7.291   7.495  17.446  1.4041 -0.1218 -0.9570
 2717TIP3   OH232345   7.450   6.545  18.396  0.3294 -0.1736 -0.6921
 2717TIP3    H132346   7.527   6.514  18.347 -0.2823 -0.1383 -1.7181
 2717TIP3    H232347   7.391   6.470  18.397  0.4441 -0.2530  0.2388
 2718TIP3   OH232348   2.230   3.722  17.293 -0.5320  0.4962 -0.4865
 2718TIP3    H132349   2.195   3.799  17.338 -0.7500  0.1523 -0.0517
 2718TIP3    H232350   2.280   3.676  17.361 -0.9269 -0.0746 -0.5804
 2719TIP3   OH232351   4.040   2.906  19.208  0.1705  0.0684 -0.1609
 2719TIP3    H132352   4.014   2.837  19.148 -0.3841  1.1541 -1.2213
 2719TIP3    H232353   3.957   2.946  19.235  0.4952  0.5443  0.1542
 2720TIP3   OH232354   1.527   0.035  18.333  0.2112 -0.4071 -0.2330
 2720TIP3    H132355   1.521   0.068  18.423  2.5641  0.2160 -0.2350
 2720TIP3    H232356   1.515  -0.060  18.341 -0.1060 -0.2997  0.6426
 2721TIP3   OH232357   0.914   0.039  19.260  0.0720  0.3353 -0.2434
 2721TIP3    H132358   0.881   0.051  19.171 -0.6660  1.0366  0.1151
 2721TIP3    H232359   0.877   0.112  19.310  1.0166  0.3309  0.4955
 2722TIP3   OH232360   6.036   6.574  18.669 -0.1701 -0.1105  0.0801
 2722TIP3    H132361   6.023   6.581  18.764 -0.0029  1.2939  0.0243
 2722TIP3    H232362   6.127   6.547  18.659 -0.9000 -3.0513  0.3273
 2723TIP3   OH232363   6.968   2.682  16.920 -0.2529 -0.1580  0.2360
 2723TIP3    H132364   6.987   2.644  16.835 -0.8292 -0.5439  0.2733
 2723TIP3    H232365   6.989   2.775  16.910  1.5663 -0.5193  0.2650
 2724TIP3   OH232366   7.343   1.553  18.641  0.7884  0.0665 -0.0180
 2724TIP3    H132367   7.271   1.497  18.670  1.3477 -0.3396  0.5996
 2724TIP3    H232368   7.372   1.514  18.558 -0.0278  0.5305 -0.5338
 2725TIP3   OH232369   2.099   1.475  18.005 -1.5229 -0.2954  0.0752
 2725TIP3    H132370   2.106   1.510  18.094 -1.7268 -1.1994  0.4604
 2725TIP3    H232371   2.072   1.550  17.952 -1.2961  0.2797  0.7558
 2726TIP3   OH232372   6.109   3.378  17.111 -0.1491 -0.1196 -0.3464
 2726TIP3    H132373   6.196   3.417  17.102  0.5922 -1.7792 -0.9481
 2726TIP3    H232374   6.066   3.427  17.181  0.8969  1.3714 -0.7157
 2727TIP3   OH232375   7.401   4.744  19.039 -0.0036  0.0143  0.2774
 2727TIP3    H132376   7.329   4.739  19.102  0.7928  0.3931  1.2327
 2727TIP3    H232377   7.461   4.809  19.075  0.0382  0.9325 -1.3292
 2728TIP3   OH232378   5.503   0.269  18.126  0.2677  0.3138 -0.1503
 2728TIP3    H132379   5.523   0.316  18.208  2.1043  0.0972 -0.4298
 2728TIP3    H232380   5.560   0.310  18.061  0.3698 -0.9142 -0.8604
 2729TIP3   OH232381   2.202   3.981  16.764 -0.3353  0.0435 -0.3593
 2729TIP3    H132382   2.116   3.940  16.773 -0.3595  0.0161 -0.6925
 2729TIP3    H232383   2.186   4.074  16.779 -0.5885  0.1657 -1.3041
 2730TIP3   OH232384   3.024   2.577  17.617 -0.6045 -0.2497  0.4466
 2730TIP3    H132385   3.061   2.549  17.701 -1.0896  0.5109  0.9221
 2730TIP3    H232386   3.003   2.495  17.571 -0.1044 -0.6668  0.9624
 2731TIP3   OH232387   2.344   0.426  17.325 -0.5010  0.1541  0.1567
 2731TIP3    H132388   2.320   0.474  17.405  1.0638 -0.0926  0.8102
 2731TIP3    H232389   2.366   0.338  17.355  0.3714  0.1340 -0.4942
 2732TIP3   OH232390   0.194   2.085  18.093 -0.3549 -0.3562  0.0457
 2732TIP3    H132391   0.205   2.076  17.998  1.1851  1.8289 -0.0824
 2732TIP3    H232392   0.114   2.136  18.103 -1.1222 -1.5308  0.0024
 2733TIP3   OH232393   5.446   5.610  17.719 -0.0453 -0.4367 -0.2205
 2733TIP3    H132394   5.523   5.653  17.680  0.8302 -1.2611  0.5456
 2733TIP3    H232395   5.374   5.671  17.702  1.1097  1.2885  0.6583
 2734TIP3   OH232396   5.651   5.875  18.459 -0.0277 -0.6358  0.0284
 2734TIP3    H132397   5.624   5.835  18.542 -2.6481 -0.5028 -0.6540
 2734TIP3    H232398   5.638   5.807  18.394  0.3267 -0.2038 -0.5014
 2735TIP3   OH232399   4.248   1.595  18.215  0.3263 -0.1971  0.8105
 2735TIP3    H132400   4.323   1.558  18.262  0.4393  0.3492  1.0693
 2735TIP3    H232401   4.253   1.689  18.231 -1.7806 -0.3371  2.8993
 2736TIP3   OH232402   4.344   3.417  18.894  0.4752 -0.4355  0.0196
 2736TIP3    H132403   4.351   3.436  18.988 -0.6263 -2.7819  0.6476
 2736TIP3    H232404   4.424   3.453  18.856 -0.1689  2.7675  1.4059
 2737TIP3   OH232405   4.512   1.792  18.456  0.4482 -0.0935 -0.8207
 2737TIP3    H132406   4.548   1.735  18.524  0.7164 -1.2552 -1.9021
 2737TIP3    H232407   4.585   1.848  18.430  0.5512 -0.1575 -0.6697
 2738TIP3   OH232408   2.218   5.366  19.187  0.0749 -0.3067  0.2307
 2738TIP3    H132409   2.196   5.299  19.252 -0.6274 -0.5354 -0.2205
 2738TIP3    H232410   2.304   5.341  19.155 -1.1287 -2.4730 -1.6784
 2739TIP3   OH232411   1.624   4.849  17.886  0.1799  0.5623 -0.4297
 2739TIP3    H132412   1.620   4.757  17.910  2.3417  0.6755  0.5683
 2739TIP3    H232413   1.547   4.863  17.831 -0.3156 -1.7610 -0.4105
 2740TIP3   OH232414   0.081   1.479  18.950  0.4513 -0.1924  0.1832
 2740TIP3    H132415   0.050   1.496  18.861  0.0239 -1.7595  0.0004
 2740TIP3    H232416   0.026   1.407  18.982  1.5097 -0.5948  1.1959
 2741TIP3   OH232417   2.773   3.495  19.160 -0.0830  0.2525  1.0184
 2741TIP3    H132418   2.832   3.528  19.228  0.8411 -0.8181  0.7698
 2741TIP3    H232419   2.728   3.573  19.128  2.3597  1.4029  0.1164
 2742TIP3   OH232420   2.767   1.143  19.007  0.0597  0.4238  0.0403
 2742TIP3    H132421   2.817   1.222  18.985 -0.4575  0.5320 -0.7562
 2742TIP3    H232422   2.703   1.134  18.937 -0.1332 -0.5001  0.3228
 2743TIP3   OH232423   7.299   3.661  19.104 -0.2958  0.6900  0.1736
 2743TIP3    H132424   7.373   3.617  19.062  0.7487 -1.2794  3.6615
 2743TIP3    H232425   7.337   3.741  19.142 -0.6964  1.2489 -0.5726
 2744TIP3   OH232426   6.198   1.142  16.755  0.1613 -0.5187  0.0350
 2744TIP3    H132427   6.175   1.221  16.805  0.7567 -0.5954  0.4402
 2744TIP3    H232428   6.122   1.126  16.700  0.7384  1.4560 -1.4675
 2745TIP3   OH232429   7.660   6.615  19.223 -0.5129  0.0373 -0.4372
 2745TIP3    H132430   7.622   6.613  19.135  0.1157  0.6929 -0.7405
 2745TIP3    H232431   7.585   6.614  19.282 -0.9610  0.1929 -0.9938
 2746TIP3   OH232432   7.196   4.747  16.934  0.2771 -0.4647 -0.1063
 2746TIP3    H132433   7.279   4.720  16.971 -0.3870 -3.6580 -0.6806
 2746TIP3    H232434   7.168   4.673  16.880 -3.0988  0.3172  0.3317
 2747TIP3   OH232435   3.326   2.808  18.595 -0.1302 -0.1529  0.6773
 2747TIP3    H132436   3.342   2.806  18.690 -0.0305  0.8954  0.6964
 2747TIP3    H232437   3.247   2.861  18.585  0.7486  1.0943  0.0903
 2748TIP3   OH232438   0.767   4.577  19.461  0.2831  0.0614  0.3403
 2748TIP3    H132439   0.801   4.574  19.371  0.3272 -0.4119  0.3688
 2748TIP3    H232440   0.785   4.666  19.490  0.6886  0.0807  0.0407
 2749TIP3   OH232441   7.187   7.285  18.082  0.2273 -0.3135  0.4036
 2749TIP3    H132442   7.095   7.282  18.109 -0.7761 -1.5103 -2.7541
 2749TIP3    H232443   7.228   7.214  18.130 -1.3913 -2.1625 -0.8124
 2750TIP3   OH232444   1.983   0.445  16.644 -0.3819 -0.0081  0.1161
 2750TIP3    H132445   1.888   0.446  16.634 -0.5668  1.1453  1.4868
 2750TIP3    H232446   2.017   0.473  16.560 -1.3439  1.0279  0.0542
 2751TIP3   OH232447   3.007   4.991  18.700 -0.3869  0.1755  0.0233
 2751TIP3    H132448   2.924   5.033  18.726 -0.7068  0.5775 -1.5799
 2751TIP3    H232449   3.049   5.053  18.641  1.8261  0.6396  1.9359
 2752TIP3   OH232450   2.534   2.166  16.857  0.6219  0.2665  0.1507
 2752TIP3    H132451   2.472   2.239  16.866  1.7864  1.3909 -0.6761
 2752TIP3    H232452   2.602   2.199  16.799  0.0758 -2.2386 -2.1023
 2753TIP3   OH232453   5.707   6.217  19.216 -0.6432  0.5271  0.1318
 2753TIP3    H132454   5.674   6.265  19.141  0.4822 -0.1345 -0.8329
 2753TIP3    H232455   5.797   6.247  19.226  0.3319 -1.7413 -0.9133
 2754TIP3   OH232456   4.747   6.519  17.834 -0.0161  0.6655  0.0392
 2754TIP3    H132457   4.778   6.513  17.924 -2.2263  0.7686  0.8657
 2754TIP3    H232458   4.749   6.613  17.814  0.1289  0.6757  0.0978
 2755TIP3   OH232459   3.053   0.677  18.138  0.1313 -0.1476 -0.2115
 2755TIP3    H132460   3.062   0.767  18.170  0.7598 -0.8799  1.8981
 2755TIP3    H232461   3.134   0.661  18.089  0.0132  0.4419 -0.6026
 2756TIP3   OH232462   1.214   5.669  19.654 -0.1929 -0.3514  0.0622
 2756TIP3    H132463   1.168   5.747  19.685 -1.3265 -0.5799 -0.9675
 2756TIP3    H232464   1.274   5.703  19.587  0.5559 -0.1650  0.8089
 2757TIP3   OH232465   6.882   2.226  18.395 -0.8105 -0.2075 -0.3121
 2757TIP3    H132466   6.825   2.260  18.464  0.8550  3.0101 -0.2925
 2757TIP3    H232467   6.837   2.250  18.313 -1.0291 -0.6371 -0.3164
 2758TIP3   OH232468   5.971   5.538  18.102 -0.5514  0.2064  0.0677
 2758TIP3    H132469   5.915   5.576  18.035  0.2409  1.5294  0.1141
 2758TIP3    H232470   6.011   5.462  18.060 -1.8247 -0.3323 -0.1888
 2759TIP3   OH232471   6.169   1.386  18.716 -0.0439  0.0034  0.1997
 2759TIP3    H132472   6.126   1.472  18.722 -1.4252 -0.7550  2.5581
 2759TIP3    H232473   6.157   1.360  18.625  0.4935  2.3088 -0.6120
 2760TIP3   OH232474   6.533   5.877  18.639  0.5407  0.2488 -0.3675
 2760TIP3    H132475   6.578   5.794  18.623  0.1008 -0.4217  1.6093
 2760TIP3    H232476   6.585   5.921  18.706  0.2595  1.1482 -0.7245
 2761TIP3   OH232477   7.195   4.740  19.260 -0.5716  0.0151  0.4376
 2761TIP3    H132478   7.152   4.696  19.333 -2.9373 -0.8323 -1.3281
 2761TIP3    H232479   7.209   4.829  19.290  0.1922 -0.7287  2.5011
 2762TIP3   OH232480   4.339   1.833  18.251  0.1215 -0.4937  0.2929
 2762TIP3    H132481   4.292   1.917  18.256  2.1129  0.8681 -1.8369
 2762TIP3    H232482   4.411   1.842  18.313  1.0218 -0.1153 -0.7832
 2763TIP3   OH232483   6.501   0.621  19.143  1.0064 -0.5684  0.6227
 2763TIP3    H132484   6.463   0.552  19.088  0.7150  1.0215 -1.2888
 2763TIP3    H232485   6.477   0.596  19.232 -0.6842 -1.9663 -0.1490
 2764TIP3   OH232486   6.436   3.252  16.929  0.3310  0.0093 -0.0044
 2764TIP3    H132487   6.345   3.230  16.909  0.2300  1.2323 -0.9936
 2764TIP3    H232488   6.435   3.345  16.948  1.4656  0.1808 -0.6775
 2765TIP3   OH232489   0.296   2.093  19.599 -0.1188 -0.1057  0.1052
 2765TIP3    H132490   0.363   2.160  19.584  0.0778 -0.5996 -1.3629
 2765TIP3    H232491   0.301   2.075  19.693  0.5420  1.1790  0.3464
 2766TIP3   OH232492   2.930   6.503  18.472  0.0592  0.3857 -0.4318
 2766TIP3    H132493   2.963   6.417  18.445 -1.9326 -0.9456  1.0658
 2766TIP3    H232494   2.953   6.509  18.565 -1.4174  0.6376 -0.0664
 2767TIP3   OH232495   7.192   3.963  18.643 -0.0897 -0.2139 -0.0446
 2767TIP3    H132496   7.211   3.979  18.735  0.9352  0.6910 -0.3860
 2767TIP3    H232497   7.174   3.869  18.638 -0.1986 -0.2677  1.0719
 2768TIP3   OH232498   5.930   1.536  17.870  0.4179 -0.0726  0.0164
 2768TIP3    H132499   5.842   1.503  17.886  0.7988 -1.2478 -0.1936
 2768TIP3    H232500   5.958   1.491  17.790  0.7094  1.3171 -0.7015
 2769TIP3   OH232501   1.328   0.406  18.340  0.2548 -0.0320  0.0120
 2769TIP3    H132502   1.328   0.315  18.309 -0.8129 -0.2600  0.6446
 2769TIP3    H232503   1.420   0.432  18.336  0.7129 -1.4314  0.6805
 2770TIP3   OH232504   3.403   6.503  19.596 -0.3500 -0.1936 -0.6419
 2770TIP3    H132505   3.413   6.516  19.690  0.4389 -2.1168 -0.4042
 2770TIP3    H232506   3.417   6.589  19.558  0.5009  0.4003  0.9178
 2771TIP3   OH232507   3.297   2.802  18.080  0.6550  0.4847  0.3853
 2771TIP3    H132508   3.278   2.769  18.168 -0.1898  0.2093  0.1083
 2771TIP3    H232509   3.316   2.895  18.092  0.0903  0.5483  0.8068
 2772TIP3   OH232510   5.258   3.247  16.521  0.1933 -0.3886 -0.3600
 2772TIP3    H132511   5.186   3.294  16.479  0.1035 -0.3406 -0.1532
 2772TIP3    H232512   5.259   3.162  16.479  0.8045  0.0364 -1.2427
 2773TIP3   OH232513   5.186   5.156  16.746  0.0102 -0.0372  0.1965
 2773TIP3    H132514   5.229   5.198  16.672 -0.3503 -0.7735 -0.4391
 2773TIP3    H232515   5.101   5.199  16.753 -1.2253 -1.9667 -1.7502
 2774TIP3   OH232516   7.651   6.850  18.127  0.5927  0.5723  0.1009
 2774TIP3    H132517   7.641   6.764  18.085  1.2925  0.9615 -0.9086
 2774TIP3    H232518   7.621   6.837  18.217  2.7067 -1.3097  0.6417
 2775TIP3   OH232519   3.770   5.507  18.551  0.1586 -0.4993  0.3865
 2775TIP3    H132520   3.747   5.431  18.498 -2.5134  1.5190 -1.6465
 2775TIP3    H232521   3.845   5.546  18.505  1.4131 -1.7093  1.3281
 2776TIP3   OH232522   6.020   5.588  19.572 -0.3195  0.0908  0.1126
 2776TIP3    H132523   5.981   5.504  19.551  1.0296 -0.3034 -1.0103
 2776TIP3    H232524   5.965   5.652  19.527 -1.0282 -0.2439  0.5057
 2777TIP3   OH232525   6.495   1.521  16.456  0.0099 -0.2772  0.7640
 2777TIP3    H132526   6.563   1.585  16.437  1.2497 -1.6341  0.3742
 2777TIP3    H232527   6.415   1.558  16.419  0.9273  0.5090 -0.5161
 2778TIP3   OH232528   4.481   4.996  18.997 -0.1047  0.5719 -0.6798
 2778TIP3    H132529   4.395   5.039  18.990  0.0498  0.9587 -0.2484
 2778TIP3    H232530   4.522   5.009  18.912  0.4294  2.3381 -0.1972
 2779TIP3   OH232531   0.700   6.445  19.378 -0.5202  0.1982  0.0107
 2779TIP3    H132532   0.615   6.472  19.342 -0.9511 -1.3333 -0.2061
 2779TIP3    H232533   0.705   6.489  19.462 -1.3807  0.5963 -0.1338
 2780TIP3   OH232534   6.388   5.240  19.201 -0.0406 -0.3471 -0.3157
 2780TIP3    H132535   6.459   5.222  19.263  0.2342  0.3095 -0.4345
 2780TIP3    H232536   6.432   5.260  19.119 -0.4196 -2.6107 -1.1505
 2781TIP3   OH232537   7.242   1.505  19.362  0.3902  0.2259  0.0833
 2781TIP3    H132538   7.316   1.530  19.308  1.4006 -1.4808  0.6188
 2781TIP3    H232539   7.249   1.410  19.371 -3.1766 -0.3970 -1.7634
 2782TIP3   OH232540   6.390   3.545  17.524  0.3579 -0.1630  0.2051
 2782TIP3    H132541   6.309   3.537  17.473  0.8228  0.4075 -0.6358
 2782TIP3    H232542   6.408   3.639  17.525  1.5162 -0.3691 -0.4157
 2783TIP3   OH232543   5.991   4.994  19.248  0.4694  0.1546  0.4815
 2783TIP3    H132544   5.959   5.039  19.170  2.4415  0.7214 -0.0585
 2783TIP3    H232545   5.991   5.061  19.316  2.1198  0.6691  0.0208
 2784TIP3   OH232546   3.912   0.675  17.996 -0.6630  0.4348 -0.1495
 2784TIP3    H132547   3.863   0.688  17.915 -2.0747 -0.0840  0.5881
 2784TIP3    H232548   3.878   0.741  18.056  1.6323  2.0381 -0.4529
 2785TIP3   OH232549   0.605   5.322  18.768  0.5292 -0.4370 -0.0227
 2785TIP3    H132550   0.671   5.257  18.742  1.9048  1.0264 -0.3892
 2785TIP3    H232551   0.584   5.301  18.859 -1.3489 -3.1987 -0.9798
 2786TIP3   OH232552   1.173   2.288  19.403 -0.6133  0.9005 -0.2365
 2786TIP3    H132553   1.086   2.319  19.377 -0.2059  2.3652  0.0343
 2786TIP3    H232554   1.161   2.253  19.491 -0.4399  3.9584  1.1414
 2787TIP3   OH232555   3.145   4.280  18.797 -0.0530 -0.1647 -0.4337
 2787TIP3    H132556   3.166   4.372  18.785  0.3668 -0.1348  0.3928
 2787TIP3    H232557   3.107   4.275  18.885  1.8002 -1.0434  0.3865
 2788TIP3   OH232558   5.180   1.977  18.861 -0.0535  0.2456 -0.1229
 2788TIP3    H132559   5.127   2.037  18.914 -1.0466  0.9642 -1.8125
 2788TIP3    H232560   5.154   1.890  18.889  0.4707  0.5819  1.4971
 2789TIP3   OH232561   7.606   1.130  16.988  0.0731  0.3529 -0.1318
 2789TIP3    H132562   7.515   1.157  16.994 -0.6534 -2.1272  1.8984
 2789TIP3    H232563   7.602   1.035  16.975  2.2445 -0.2551  2.5997
 2790TIP3   OH232564   6.129   5.332  18.743 -0.3095  0.0168  0.0472
 2790TIP3    H132565   6.183   5.411  18.739  0.5366 -0.5955 -1.5720
 2790TIP3    H232566   6.051   5.354  18.692  0.2489 -0.3861 -1.0220
 2791TIP3   OH232567   3.606   0.728  19.125 -0.1754  0.4752  0.6789
 2791TIP3    H132568   3.606   0.796  19.193  2.3576  0.8783  0.3551
 2791TIP3    H232569   3.670   0.759  19.060  2.2620 -2.8793  1.2362
 2792TIP3   OH232570   0.482   3.246  17.164  0.2753 -1.0584 -0.8696
 2792TIP3    H132571   0.437   3.161  17.172  0.8258 -1.2196  4.7229
 2792TIP3    H232572   0.423   3.308  17.207  0.7375  1.1390 -3.1957
 2793TIP3   OH232573   6.395   5.152  17.653 -0.2777 -0.0772 -0.2563
 2793TIP3    H132574   6.404   5.243  17.683  0.1609 -0.1016 -0.3114
 2793TIP3    H232575   6.477   5.110  17.677 -0.5460 -0.5070 -0.0860
 2794TIP3   OH232576   5.323   3.066  17.983 -0.2548 -0.7296  0.5473
 2794TIP3    H132577   5.311   3.028  17.896  0.6609 -0.7989  0.4431
 2794TIP3    H232578   5.296   3.157  17.974 -1.3751 -1.0431  0.5148
 2795TIP3   OH232579   5.227   1.354  18.969  0.1697 -0.3825 -0.3923
 2795TIP3    H132580   5.239   1.303  18.889 -0.1400 -0.3196 -0.4770
 2795TIP3    H232581   5.268   1.300  19.037 -1.2983 -1.3844 -0.2482
 2796TIP3   OH232582   0.569   4.518  19.135  0.1362 -0.2126  0.2719
 2796TIP3    H132583   0.489   4.508  19.083  0.7963 -0.3142 -0.7562
 2796TIP3    H232584   0.556   4.460  19.210 -0.6140 -0.4886 -0.0551
 2797TIP3   OH232585   4.083   5.744  18.742 -0.5578 -0.0606  0.0076
 2797TIP3    H132586   4.140   5.817  18.714 -2.2923  0.7495 -1.6310
 2797TIP3    H232587   4.070   5.759  18.835 -0.3694  1.3849 -0.1691
 2798TIP3   OH232588   1.728   6.866  17.020  0.0479 -0.4541  0.0927
 2798TIP3    H132589   1.663   6.912  17.073  0.8616  0.9386 -0.0776
 2798TIP3    H232590   1.706   6.887  16.930  1.6541  1.4022  0.0749
 2799TIP3   OH232591   0.409   1.527  19.606  0.2910 -0.3203 -0.3294
 2799TIP3    H132592   0.502   1.513  19.588  0.3293 -0.6136  0.0791
 2799TIP3    H232593   0.375   1.571  19.528  0.6788 -0.6084 -0.6610
 2800TIP3   OH232594   7.613   0.905  17.816  0.1958 -0.2015 -0.4979
 2800TIP3    H132595   7.614   0.809  17.822 -1.2009 -0.2957 -1.2404
 2800TIP3    H232596   7.684   0.934  17.873  0.9456 -1.6996 -0.6368
 2801TIP3   OH232597   1.476   3.218  17.284 -0.5074 -0.5075 -0.3174
 2801TIP3    H132598   1.407   3.163  17.245 -0.4076 -0.7530 -0.1514
 2801TIP3    H232599   1.537   3.155  17.323 -0.7351 -0.2562  0.4607
 2802TIP3   OH232600   6.964   7.434  17.593 -0.3969 -0.0497 -0.6869
 2802TIP3    H132601   6.993   7.497  17.658  1.3547 -1.1890 -0.2968
 2802TIP3    H232602   6.907   7.374  17.641 -1.7041  0.9285 -0.9607
 2803TIP3   OH232603   3.623   3.304  18.157 -0.4123  0.1536 -0.6647
 2803TIP3    H132604   3.607   3.219  18.117 -1.8830  0.1345 -0.1163
 2803TIP3    H232605   3.554   3.360  18.121  0.3886  1.0556 -0.8310
 2804TIP3   OH232606   5.590   4.701  17.407  0.9417 -0.6279 -0.1977
 2804TIP3    H132607   5.635   4.718  17.325  2.4198 -1.7015  0.3463
 2804TIP3    H232608   5.653   4.726  17.475  0.6357 -1.9152  0.5964
 2805TIP3   OH232609   0.108   3.007  19.075 -0.1149 -0.1884 -0.0544
 2805TIP3    H132610   0.139   2.956  19.151 -0.9634  0.3060  0.6398
 2805TIP3    H232611   0.074   2.941  19.015  0.3449 -0.5728  0.0954
 2806TIP3   OH232612   3.465   5.998  18.572  0.2556  0.2666 -0.8273
 2806TIP3    H132613   3.557   5.978  18.586  0.0934 -0.7114 -1.1146
 2806TIP3    H232614   3.459   6.027  18.481  0.1811 -0.3106 -1.0099
 2807TIP3   OH232615   0.291   5.095  17.221 -0.2729  0.6913 -0.2912
 2807TIP3    H132616   0.274   5.180  17.181  0.6588  1.3382  0.6510
 2807TIP3    H232617   0.362   5.057  17.169 -0.8441  0.3715 -0.8545
 2808TIP3   OH232618   1.147   3.321  17.256  0.1892 -0.4563 -0.2190
 2808TIP3    H132619   1.241   3.328  17.270  0.0235  1.0689  0.2578
 2808TIP3    H232620   1.137   3.316  17.161  0.6560  1.7012 -0.4364
 2809TIP3   OH232621   1.374   2.464  16.989 -0.1276  0.1139 -0.4414
 2809TIP3    H132622   1.372   2.518  16.909 -0.0137  0.1835 -0.3976
 2809TIP3    H232623   1.338   2.521  17.056  1.8143  0.8470  0.0411
 2810TIP3   OH232624   2.284   1.600  17.793 -0.8015  0.2419 -0.3188
 2810TIP3    H132625   2.245   1.561  17.871 -0.5379  0.3492 -0.1343
 2810TIP3    H232626   2.339   1.531  17.756  1.8283  1.2048  1.4871
 2811TIP3   OH232627   3.226   7.366  17.890  0.5166 -0.6363 -0.3917
 2811TIP3    H132628   3.140   7.403  17.870  1.3137  0.9187 -1.0517
 2811TIP3    H232629   3.255   7.414  17.968  1.1354 -0.5949 -0.6447
 2812TIP3   OH232630   5.637   0.584  17.863  0.2768 -0.1188  0.3267
 2812TIP3    H132631   5.578   0.606  17.935 -0.1752  2.2190 -0.6585
 2812TIP3    H232632   5.669   0.496  17.884 -0.8198 -0.0347  2.6934
 2813TIP3   OH232633   5.729   7.041  18.643  0.5312 -0.4126 -0.1070
 2813TIP3    H132634   5.819   7.009  18.650  0.3722 -0.9194 -0.3125
 2813TIP3    H232635   5.693   7.030  18.731  0.5370 -0.6143 -0.1303
 2814TIP3   OH232636   4.786   1.459  19.188  0.7712 -0.0404  0.5484
 2814TIP3    H132637   4.878   1.474  19.166  0.7317 -0.8263 -0.1805
 2814TIP3    H232638   4.789   1.397  19.261  0.8171 -0.1455  0.4567
 2815TIP3   OH232639   1.297   0.946  18.683 -0.1955  0.2739  0.5222
 2815TIP3    H132640   1.241   0.882  18.726 -0.7659  0.3759 -0.0533
 2815TIP3    H232641   1.237   1.002  18.633  0.3139  1.0609  0.7612
 2816TIP3   OH232642   2.266   3.777  17.577 -0.2311  0.1915 -0.1671
 2816TIP3    H132643   2.229   3.689  17.583  1.2718 -0.4961 -0.3951
 2816TIP3    H232644   2.190   3.835  17.575 -1.2587 -0.9247  2.1467
 2817TIP3   OH232645   0.427   1.997  16.901 -0.0222 -0.3646  0.6357
 2817TIP3    H132646   0.334   1.984  16.919  0.4797 -3.6460  1.3504
 2817TIP3    H232647   0.452   1.923  16.846  1.9200  1.1725 -0.6888
 2818TIP3   OH232648   6.722   3.101  19.384 -0.0168  0.8590  0.4102
 2818TIP3    H132649   6.713   3.054  19.301 -1.3188  1.0067  0.4484
 2818TIP3    H232650   6.739   3.192  19.358  0.5617  0.7305  0.3243
 2819TIP3   OH232651   6.740   5.648  18.923  0.1226  0.1008 -0.7366
 2819TIP3    H132652   6.788   5.714  18.873 -1.8141  2.4458  0.3130
 2819TIP3    H232653   6.674   5.614  18.862  1.4300 -1.3586 -1.4298
 2820TIP3   OH232654   1.283   7.346  18.489 -0.0562 -0.4551  0.4400
 2820TIP3    H132655   1.271   7.272  18.430 -0.2189  1.0607 -1.5324
 2820TIP3    H232656   1.362   7.325  18.539 -0.2043 -2.0070  0.0757
 2821TIP3   OH232657   6.850   3.824  17.191 -0.0986  0.1965 -0.0685
 2821TIP3    H132658   6.889   3.845  17.106  0.4807  0.3236  0.2177
 2821TIP3    H232659   6.843   3.728  17.191 -0.0696  0.1928 -0.2444
 2822TIP3   OH232660   5.753   2.871  19.437 -0.0274 -0.1344  0.3437
 2822TIP3    H132661   5.699   2.847  19.512  0.7052  0.9921  1.2614
 2822TIP3    H232662   5.842   2.843  19.461  0.4105  1.2492  0.3955
 2823TIP3   OH232663   3.424   6.657  18.493 -0.3205 -0.0330  0.4988
 2823TIP3    H132664   3.460   6.708  18.565 -0.4291 -0.4736  0.8746
 2823TIP3    H232665   3.397   6.574  18.534  2.3065 -1.5110 -0.5190
 2824TIP3   OH232666   0.789   6.066  17.395  0.3017 -0.2019  0.8059
 2824TIP3    H132667   0.787   6.093  17.487  2.8595  1.7139  0.3943
 2824TIP3    H232668   0.856   5.997  17.392 -0.6970 -1.1924  0.5465
 2825TIP3   OH232669   6.703   5.053  17.203 -0.2137 -1.1626 -0.0890
 2825TIP3    H132670   6.737   5.069  17.115  1.0443 -2.2443  0.1724
 2825TIP3    H232671   6.608   5.045  17.190 -0.3892  1.3142 -0.9229
 2826TIP3   OH232672   1.989   3.387  19.164  0.5037  0.0667  0.5819
 2826TIP3    H132673   1.953   3.474  19.181 -1.4404 -0.1718 -1.7005
 2826TIP3    H232674   1.946   3.331  19.229 -1.0484  0.2958 -0.1832
 2827TIP3   OH232675   7.422   5.541  19.521 -0.3025 -0.0258  0.6918
 2827TIP3    H132676   7.393   5.632  19.521  1.6622  0.7229 -1.9104
 2827TIP3    H232677   7.397   5.507  19.435  3.7104 -0.1014 -0.6962
 2828TIP3   OH232678   3.455   5.474  18.341  0.4046 -0.3776 -0.1170
 2828TIP3    H132679   3.425   5.523  18.264 -0.1948  0.2767  0.5157
 2828TIP3    H232680   3.546   5.502  18.354  0.0069  0.7202  0.3474
 2829TIP3   OH232681   3.794   2.807  17.234  0.5766 -0.0311  0.0393
 2829TIP3    H132682   3.763   2.880  17.288  0.1580 -0.0236 -0.2023
 2829TIP3    H232683   3.880   2.785  17.269  0.2177 -0.1722  0.8567
 2830TIP3   OH232684   2.663   6.791  18.073  0.1828  0.0234 -0.0914
 2830TIP3    H132685   2.569   6.791  18.086  0.1858  0.6031 -0.0271
 2830TIP3    H232686   2.700   6.812  18.159  0.3871 -0.6297 -0.0199
 2831TIP3   OH232687   3.846   3.292  17.811 -0.3742 -0.3096  0.1251
 2831TIP3    H132688   3.758   3.319  17.787 -0.7319 -0.5153  1.1312
 2831TIP3    H232689   3.856   3.204  17.776 -0.7630 -0.4791  0.4312
 2832TIP3   OH232690   0.964   1.450  17.954  0.3389 -0.1841 -0.1271
 2832TIP3    H132691   0.998   1.361  17.948 -1.9376 -1.0126 -2.2003
 2832TIP3    H232692   0.967   1.483  17.864 -1.3230  0.8385  0.1529
 2833TIP3   OH232693   0.117   4.109  18.847  0.2297 -0.1317  0.4678
 2833TIP3    H132694   0.116   4.202  18.871  2.4524 -0.2439  1.2604
 2833TIP3    H232695   0.164   4.107  18.763 -1.3694 -0.4178 -0.4653
 2834TIP3   OH232696   1.195   3.837  17.607  0.0856  0.1236 -0.1859
 2834TIP3    H132697   1.158   3.770  17.549 -0.8612  0.4277  0.0553
 2834TIP3    H232698   1.197   3.795  17.693 -0.5924  0.4299 -0.0173
 2835TIP3   OH232699   1.404   2.324  18.334  0.0933  0.1635  0.4568
 2835TIP3    H132700   1.371   2.414  18.333  1.5487  0.7332  0.5392
 2835TIP3    H232701   1.499   2.334  18.320  0.2716 -1.3583  0.4804
 2836TIP3   OH232702   6.899   6.848  18.728 -0.3012  0.1022  0.7265
 2836TIP3    H132703   6.888   6.943  18.734 -1.4926 -0.0101  0.6901
 2836TIP3    H232704   6.858   6.814  18.808 -0.8397 -0.4299  0.2416
 2837TIP3   OH232705   2.912   4.359  17.283  0.3258 -0.4700 -0.0071
 2837TIP3    H132706   2.963   4.411  17.345 -0.4562  1.6065 -1.0100
 2837TIP3    H232707   2.831   4.339  17.330  0.5786 -0.6840  0.3449
 2838TIP3   OH232708   0.211   5.810  16.804 -0.0991 -0.0416 -0.4656
 2838TIP3    H132709   0.157   5.801  16.883 -0.3337  3.5720 -0.0693
 2838TIP3    H232710   0.148   5.825  16.734  0.2330 -0.7865 -0.9400
 2839TIP3   OH232711   4.847   2.341  18.870  0.2084 -0.6245 -0.2382
 2839TIP3    H132712   4.825   2.433  18.881 -0.1077 -0.7469  0.1563
 2839TIP3    H232713   4.926   2.341  18.815 -0.8140 -0.1766 -1.7573
 2840TIP3   OH232714   2.210   5.108  17.313  0.4481  0.1509 -0.3715
 2840TIP3    H132715   2.218   5.074  17.402  1.3367 -0.8670 -0.8194
 2840TIP3    H232716   2.117   5.127  17.303  0.3552  0.3826  0.8022
 2841TIP3   OH232717   5.740   3.099  18.397  0.1896  0.0599  0.4107
 2841TIP3    H132718   5.750   3.073  18.488  0.6068 -1.9768 -0.1536
 2841TIP3    H232719   5.653   3.069  18.373  0.7625 -1.1006 -0.3271
 2842TIP3   OH232720   6.340   0.547  18.850  0.6523 -0.3034 -0.0431
 2842TIP3    H132721   6.358   0.636  18.878  2.6727  0.0177 -2.0933
 2842TIP3    H232722   6.420   0.498  18.871  0.2259 -1.2254 -0.4800
 2843TIP3   OH232723   1.745   1.464  18.172 -0.0403 -0.4063 -0.5500
 2843TIP3    H132724   1.759   1.530  18.105 -0.3362  2.9044  2.3480
 2843TIP3    H232725   1.654   1.476  18.199  0.0866 -1.5773  0.5112
 2844TIP3   OH232726   1.360   3.695  18.859  0.0194  0.8874 -0.5829
 2844TIP3    H132727   1.305   3.746  18.800  1.1420  2.1702 -0.5634
 2844TIP3    H232728   1.351   3.605  18.828 -1.0495  1.2496 -1.3790
 2845TIP3   OH232729   6.657   6.245  17.926  0.0716 -0.2827 -0.3645
 2845TIP3    H132730   6.576   6.272  17.968  0.4989 -1.8883  1.6575
 2845TIP3    H232731   6.638   6.160  17.888  0.4864 -0.0974 -1.0172
 2846TIP3   OH232732   0.107   5.789  19.597 -0.3456 -0.2199  0.4277
 2846TIP3    H132733   0.073   5.709  19.558 -0.0444  0.4835 -1.3662
 2846TIP3    H232734   0.202   5.777  19.598 -0.0867  0.9022 -1.9128
 2847TIP3   OH232735   2.950   3.852  18.218 -0.1182  0.2163 -0.0274
 2847TIP3    H132736   3.040   3.848  18.185  0.2634 -1.2301  1.0899
 2847TIP3    H232737   2.959   3.845  18.313 -1.3988  0.3339  0.1124
 2848TIP3   OH232738   1.208   5.885  17.830 -0.1702 -0.0950  0.0706
 2848TIP3    H132739   1.238   5.974  17.809 -1.7753  0.5995  0.5472
 2848TIP3    H232740   1.220   5.836  17.749 -0.3875  0.8731 -0.5682
 2849TIP3   OH232741   5.291   1.827  18.127  0.1188 -0.2360  0.4736
 2849TIP3    H132742   5.372   1.874  18.107  0.0434 -0.0809  0.5326
 2849TIP3    H232743   5.319   1.737  18.144  0.1130 -0.5308 -0.9780
 2850TIP3   OH232744   5.150   7.475  17.398  0.2845  0.1327 -0.1357
 2850TIP3    H132745   5.235   7.518  17.402  0.3139  0.0012  1.8263
 2850TIP3    H232746   5.088   7.545  17.377  0.3941  1.1426  2.5220
 2851TIP3   OH232747   4.860   6.667  19.196  0.0986  0.2309  0.0523
 2851TIP3    H132748   4.851   6.576  19.166  1.3109  0.4026 -0.8952
 2851TIP3    H232749   4.951   6.674  19.226 -0.2038  0.9351  0.8594
 2852TIP3   OH232750   1.320   1.457  17.932 -0.5539 -1.1678 -0.4567
 2852TIP3    H132751   1.305   1.389  17.998  1.5928 -0.8865  0.3993
 2852TIP3    H232752   1.265   1.530  17.960 -2.0180 -2.0952 -0.7522
 2853TIP3   OH232753   6.545   0.379  18.930  0.3682 -0.3263 -0.3370
 2853TIP3    H132754   6.588   0.326  18.997  1.1538 -1.0775 -1.4162
 2853TIP3    H232755   6.563   0.334  18.848  0.4661  1.2324 -1.2135
 2854TIP3   OH232756   0.437   2.214  18.599  0.4086 -0.0728 -0.1541
 2854TIP3    H132757   0.418   2.206  18.505  1.9587 -2.1392 -0.3717
 2854TIP3    H232758   0.476   2.301  18.608 -1.6320  1.0039 -1.0110
 2855TIP3   OH232759   1.677   3.623  18.883 -0.5978 -0.5345  0.2936
 2855TIP3    H132760   1.661   3.615  18.790 -2.5875  1.1823  0.4123
 2855TIP3    H232761   1.614   3.564  18.924 -2.2416  1.2910  0.5744
 2856TIP3   OH232762   1.844   4.078  19.059 -0.1358  0.0696 -0.4797
 2856TIP3    H132763   1.823   4.139  18.989  0.0622 -0.4518 -1.0079
 2856TIP3    H232764   1.761   4.064  19.105 -0.2250  0.5663 -0.4853
 2857TIP3   OH232765   4.116   2.344  19.171  0.0281 -0.4158 -0.5344
 2857TIP3    H132766   4.077   2.384  19.093  1.6947  0.5172 -0.9279
 2857TIP3    H232767   4.087   2.400  19.243 -0.4491 -0.5242 -0.6344
 2858TIP3   OH232768   3.865   0.070  16.945  0.1707  0.1121 -0.3467
 2858TIP3    H132769   3.934   0.101  16.887  1.1793 -0.2331  0.6422
 2858TIP3    H232770   3.865  -0.025  16.933  0.0526  0.0859 -0.1424
 2859TIP3   OH232771   5.809   2.012  17.417 -0.3623 -0.0419  0.2838
 2859TIP3    H132772   5.811   1.918  17.438 -1.5858  0.0969  1.1521
 2859TIP3    H232773   5.729   2.023  17.365  0.7361  0.2458 -1.4388
 2860TIP3   OH232774   3.102   4.019  18.725  0.2036 -0.3901  0.2487
 2860TIP3    H132775   3.092   3.992  18.816  0.7148  0.2549  0.4969
 2860TIP3    H232776   3.124   4.112  18.729  2.0714 -0.7640 -0.4446
 2861TIP3   OH232777   7.411   2.701  18.420 -0.0444 -0.1484 -0.0072
 2861TIP3    H132778   7.462   2.720  18.499 -0.5803 -1.3138  0.6526
 2861TIP3    H232779   7.401   2.606  18.421 -0.5885 -0.1137 -1.1550
 2862TIP3   OH232780   6.969   6.758  18.479 -0.1953 -0.1599 -0.2746
 2862TIP3    H132781   6.957   6.789  18.568 -1.4761  0.1887 -0.5451
 2862TIP3    H232782   7.032   6.819  18.440 -1.7132  1.3910 -0.4159
 2863TIP3   OH232783   4.198   1.614  17.938 -0.2776 -0.6877  0.4923
 2863TIP3    H132784   4.184   1.520  17.930  0.9863 -0.9131  0.7978
 2863TIP3    H232785   4.232   1.626  18.027  1.6329 -0.2219 -0.2544
 2864TIP3   OH232786   0.170   4.908  18.421  0.4784  0.9930 -0.0230
 2864TIP3    H132787   0.117   4.980  18.454 -0.3839  0.9416 -1.2216
 2864TIP3    H232788   0.157   4.837  18.484 -0.5582  1.1251 -0.0720
 2865TIP3   OH232789   0.505   7.256  19.090 -0.3651 -0.0918  0.4648
 2865TIP3    H132790   0.598   7.260  19.115 -0.3033 -0.7257  0.3534
 2865TIP3    H232791   0.495   7.170  19.050 -0.9513  0.0735  0.2535
 2866TIP3   OH232792   6.657   7.109  17.408 -0.5879 -0.2522 -0.5131
 2866TIP3    H132793   6.745   7.144  17.424 -1.3828  3.1588 -2.4891
 2866TIP3    H232794   6.672   7.034  17.350  1.0642 -0.3658  0.0048
 2867TIP3   OH232795   1.992   7.414  17.677  0.3207 -0.1852 -0.2720
 2867TIP3    H132796   1.938   7.396  17.601  0.6518  0.5743 -0.6996
 2867TIP3    H232797   2.073   7.452  17.642  1.2930 -1.6073  0.3329
 2868TIP3   OH232798   2.916   2.237  17.251  0.1540 -0.3129 -0.3347
 2868TIP3    H132799   2.997   2.251  17.203  0.3482 -0.8190 -0.1594
 2868TIP3    H232800   2.892   2.146  17.233  0.0549 -0.4124  0.2511
 2869TIP3   OH232801   3.338   0.302  17.640  0.3835 -0.2205 -0.2047
 2869TIP3    H132802   3.251   0.321  17.605  0.2962 -0.1264  0.0672
 2869TIP3    H232803   3.350   0.208  17.623  0.0077 -0.3535  0.2416
 2870TIP3   OH232804   6.660   7.290  19.266 -0.2514 -0.0135  0.3233
 2870TIP3    H132805   6.636   7.319  19.178 -0.8923 -1.4842 -0.0278
 2870TIP3    H232806   6.669   7.195  19.258 -0.1670 -0.1584  1.8149
 2871TIP3   OH232807   2.375   5.880  18.396  0.5805  0.0593  0.7412
 2871TIP3    H132808   2.293   5.887  18.348  0.5881 -1.4031  0.4782
 2871TIP3    H232809   2.435   5.937  18.348  0.2788 -0.4954 -0.3208
 2872TIP3   OH232810   4.779   0.660  18.205  0.1221 -0.1885 -0.3699
 2872TIP3    H132811   4.726   0.664  18.284 -0.4167  1.1151 -0.7640
 2872TIP3    H232812   4.786   0.751  18.177 -0.4144 -0.6879 -2.2752
 2873TIP3   OH232813   5.044   5.888  18.248  0.4318  0.1871  0.3942
 2873TIP3    H132814   4.963   5.852  18.285  0.9510 -1.3318  0.1210
 2873TIP3    H232815   5.066   5.829  18.176  1.2737  1.1300 -0.1407
 2874TIP3   OH232816   1.424   3.921  18.086 -0.0271 -0.5805 -0.4369
 2874TIP3    H132817   1.361   3.931  18.157 -0.4840  1.0554 -1.0211
 2874TIP3    H232818   1.386   3.853  18.030 -1.0907  0.0925 -0.5653
 2875TIP3   OH232819   3.231   2.648  18.952  0.2152 -0.1864  0.1671
 2875TIP3    H132820   3.250   2.562  18.916 -0.8779  0.1381 -1.2590
 2875TIP3    H232821   3.192   2.630  19.038 -0.7758 -1.1704 -0.4608
 2876TIP3   OH232822   6.420   1.807  17.970  0.5010 -0.4596  0.0236
 2876TIP3    H132823   6.377   1.892  17.976 -0.3226 -0.9586  2.0605
 2876TIP3    H232824   6.391   1.771  17.886  0.0473  0.8342 -0.3891
 2877TIP3   OH232825   2.203   1.701  19.279  0.3239  0.8794  0.5519
 2877TIP3    H132826   2.145   1.658  19.341 -0.2163 -0.7074 -0.9755
 2877TIP3    H232827   2.252   1.630  19.238 -1.8601  1.3762 -3.3822
 2878TIP3   OH232828   2.235   3.310  19.236 -0.1425  0.1091  0.9985
 2878TIP3    H132829   2.144   3.340  19.229 -0.6412 -1.1676  1.7750
 2878TIP3    H232830   2.285   3.378  19.192 -1.4282  1.0665  0.9422
 2879TIP3   OH232831   0.250   3.096  19.525  0.5052 -0.4053  0.0210
 2879TIP3    H132832   0.251   3.162  19.456 -0.7286 -1.4316 -1.0339
 2879TIP3    H232833   0.298   3.022  19.489 -1.3812 -1.5014 -0.3829
 2880TIP3   OH232834   4.272   2.837  18.086 -0.3385  0.5374 -0.3572
 2880TIP3    H132835   4.204   2.885  18.039 -0.1966 -0.4006 -1.5860
 2880TIP3    H232836   4.336   2.814  18.019 -1.9684 -4.1763 -0.7310
 2881TIP3   OH232837   1.460   5.994  18.884 -0.6256 -0.6976 -0.4140
 2881TIP3    H132838   1.396   5.942  18.933 -1.1835 -0.3744 -0.7883
 2881TIP3    H232839   1.415   6.077  18.867  0.5295  0.2099  0.8387
 2882TIP3   OH232840   7.030   6.526  17.665  0.4422  0.2248  0.0095
 2882TIP3    H132841   7.109   6.481  17.696  0.3652  0.7607  1.0071
 2882TIP3    H232842   7.028   6.608  17.714 -1.6983 -0.5585  1.3376
 2883TIP3   OH232843   0.819   2.797  18.632 -0.1177  0.3095 -0.4712
 2883TIP3    H132844   0.745   2.805  18.692  0.0051  0.0787 -0.2869
 2883TIP3    H232845   0.788   2.836  18.550  0.1174  1.7224  0.0857
 2884TIP3   OH232846   3.438   2.109  16.799 -0.0914  0.3444  0.3591
 2884TIP3    H132847   3.414   2.113  16.891 -1.0719 -0.8067  0.1852
 2884TIP3    H232848   3.507   2.042  16.795 -0.3230  0.1130  0.2111
 2885TIP3   OH232849   5.410   7.035  18.749  0.3205 -0.6208 -0.6206
 2885TIP3    H132850   5.387   7.095  18.820  0.5061 -1.4699  0.1836
 2885TIP3    H232851   5.495   7.000  18.774  0.7344 -0.3819 -1.6520
 2886TIP3   OH232852   1.696   5.468  17.046  1.1419 -0.0250  0.1596
 2886TIP3    H132853   1.700   5.484  16.952  0.8469 -0.1393  0.1267
 2886TIP3    H232854   1.682   5.555  17.084 -0.3896 -0.1620 -0.0161
 2887TIP3   OH232855   6.711   0.562  18.383 -1.0576 -0.6237 -0.1146
 2887TIP3    H132856   6.698   0.490  18.320  1.6948  1.0042 -2.8379
 2887TIP3    H232857   6.681   0.640  18.336 -2.6757  0.2848  2.2548
 2888TIP3   OH232858   4.135   3.892  18.312 -0.3190  0.5535 -0.0020
 2888TIP3    H132859   4.087   3.846  18.381  1.3285  2.2984  2.4764
 2888TIP3    H232860   4.213   3.839  18.298 -0.2283  0.6591  0.1073
 2889TIP3   OH232861   2.935   3.996  18.514  0.2456  0.0027  0.0319
 2889TIP3    H132862   2.855   4.018  18.561 -0.6190  0.3101 -1.5154
 2889TIP3    H232863   3.006   4.023  18.573 -0.7836  0.4522  1.0935
 2890TIP3   OH232864   7.164   2.226  18.321 -0.0030 -0.0234 -0.6946
 2890TIP3    H132865   7.069   2.225  18.335  0.0057 -2.0151 -0.5105
 2890TIP3    H232866   7.177   2.173  18.242  1.0133 -0.4591 -0.2448
 2891TIP3   OH232867   7.230   1.891  18.922 -0.0895 -0.3616 -0.3010
 2891TIP3    H132868   7.160   1.866  18.982 -0.8273  2.3044  0.0768
 2891TIP3    H232869   7.193   1.882  18.835 -0.7705  0.5530 -0.1205
 2892TIP3   OH232870   1.050   2.130  18.419  0.2566 -0.4285 -0.5129
 2892TIP3    H132871   1.018   2.219  18.433 -0.0445 -0.8651  2.3295
 2892TIP3    H232872   0.977   2.084  18.379  0.4655  0.5869 -2.1456
 2893TIP3   OH232873   4.632   6.925  18.781  0.2006 -0.6499  0.6564
 2893TIP3    H132874   4.712   6.953  18.826  0.4468  0.2890 -0.3419
 2893TIP3    H232875   4.563   6.938  18.846  0.9685 -2.5553  1.9339
 2894TIP3   OH232876   5.898   4.965  17.342 -0.4392  0.2261 -0.2207
 2894TIP3    H132877   5.956   4.992  17.413  1.1453 -0.8724 -1.0258
 2894TIP3    H232878   5.838   4.903  17.383  1.7922 -2.0661 -0.1304
 2895TIP3   OH232879   1.095   0.180  18.906 -0.3949  0.3989 -0.1275
 2895TIP3    H132880   1.141   0.209  18.985 -1.0711  0.1782  0.3546
 2895TIP3    H232881   1.103   0.085  18.908 -3.1284  0.0959  1.4266
 2896TIP3   OH232882   0.041   4.992  17.558 -0.2270 -0.1495 -0.0587
 2896TIP3    H132883  -0.036   4.970  17.610 -1.0234  2.1602 -0.1015
 2896TIP3    H232884   0.075   5.072  17.598  0.1184  0.7841 -2.0590
 2897TIP3   OH232885   3.067   5.477  17.567  0.2591 -0.4280  0.5141
 2897TIP3    H132886   2.989   5.473  17.623 -0.2242 -1.6340 -0.1955
 2897TIP3    H232887   3.106   5.563  17.585 -2.1289  0.9047 -0.3068
 2898TIP3   OH232888   7.332   5.968  18.639 -0.3397 -0.0050 -0.1981
 2898TIP3    H132889   7.295   6.048  18.602 -0.2840 -0.0362 -0.3237
 2898TIP3    H232890   7.379   5.927  18.566  1.4718  0.9310  0.3732
 2899TIP3   OH232891   1.145   0.801  18.840 -0.3262 -0.0737  0.2756
 2899TIP3    H132892   1.069   0.743  18.843 -1.6519  1.6069  3.4841
 2899TIP3    H232893   1.110   0.889  18.853  2.0665  0.8844  0.8104
 2900TIP3   OH232894   3.856   3.919  18.208  0.3660  0.7601  0.5539
 2900TIP3    H132895   3.804   3.969  18.271  1.1381  1.7591  0.4280
 2900TIP3    H232896   3.946   3.931  18.237  0.5246 -1.3561  1.0581
 2901TIP3   OH232897   5.310   1.507  19.286  0.6018 -0.7033  0.0636
 2901TIP3    H132898   5.343   1.521  19.197 -0.0096  0.2829 -0.0233
 2901TIP3    H232899   5.375   1.549  19.343  0.0876  0.2700 -0.0419
 2902TIP3   OH232900   1.226   2.363  18.055 -0.6192  0.4001  0.0035
 2902TIP3    H132901   1.189   2.440  18.098 -0.8526  0.7677 -0.8261
 2902TIP3    H232902   1.281   2.322  18.121  0.8791  2.2232 -0.0248
 2903TIP3   OH232903   3.221   3.168  17.881 -0.6498 -0.0559 -0.0040
 2903TIP3    H132904   3.140   3.117  17.886 -0.2388 -0.8326 -0.8688
 2903TIP3    H232905   3.199   3.241  17.822 -0.3059 -1.1689 -1.5918
 2904TIP3   OH232906   1.597   2.073  18.192 -0.0039 -0.5716  0.3146
 2904TIP3    H132907   1.507   2.045  18.175 -0.4245  1.1681 -0.6146
 2904TIP3    H232908   1.608   2.150  18.137  1.3562  0.5196  2.0285
 2905TIP3   OH232909   0.903   0.001  18.644  0.0761 -0.7315 -0.1492
 2905TIP3    H132910   0.934  -0.025  18.731 -0.4380 -1.4141 -0.1620
 2905TIP3    H232911   0.827   0.056  18.662 -0.5640 -1.5934 -0.1761
 2906TIP3   OH232912   5.818   1.426  18.245  0.1622  0.1787 -0.0472
 2906TIP3    H132913   5.803   1.496  18.309 -0.9302 -0.2523  0.1905
 2906TIP3    H232914   5.822   1.346  18.298  1.7327  0.0675 -0.2840
 2907TIP3   OH232915   4.759   2.719  17.660  0.1838 -0.3576  0.5721
 2907TIP3    H132916   4.766   2.730  17.755  0.3692  0.3274  0.4795
 2907TIP3    H232917   4.675   2.758  17.638  1.1751  1.6570  0.1410
 2908TIP3   OH232918   2.521   6.496  19.356 -0.0517 -0.4997  0.1045
 2908TIP3    H132919   2.612   6.524  19.363 -0.7622  2.4649 -1.1240
 2908TIP3    H232920   2.478   6.534  19.432 -0.3595 -1.7375  0.5850
 2909TIP3   OH232921   0.505   5.468  19.456  0.0004 -0.4624  0.0115
 2909TIP3    H132922   0.563   5.420  19.514 -0.6379  0.4520  1.4705
 2909TIP3    H232923   0.561   5.495  19.383  0.7638 -1.8261  0.0651
 2910TIP3   OH232924   4.458   5.057  17.357  0.0224 -0.3809  0.5550
 2910TIP3    H132925   4.414   5.098  17.431  0.5257 -0.2696  0.7971
 2910TIP3    H232926   4.538   5.020  17.394  0.9190  0.7850 -0.1423
 2911TIP3   OH232927   4.300   5.152  17.567 -0.1166  0.2145  0.4835
 2911TIP3    H132928   4.211   5.126  17.589 -0.6343  1.5016  0.0422
 2911TIP3    H232929   4.315   5.232  17.617  1.1068 -0.4306  1.1822
 2912TIP3   OH232930   6.182   0.354  17.399  0.0941  0.6863  0.5646
 2912TIP3    H132931   6.184   0.303  17.319 -2.6600 -0.0459  0.8766
 2912TIP3    H232932   6.154   0.441  17.371 -0.5866  0.5095  0.6952
 2913TIP3   OH232933   6.065   1.384  18.061 -0.2710  0.5538  0.1364
 2913TIP3    H132934   6.019   1.444  18.003 -0.2044  0.4676 -0.0042
 2913TIP3    H232935   6.043   1.415  18.149 -1.6227 -0.2577  0.1060
 2914TIP3   OH232936   1.596   1.089  17.103  0.2547  0.1036  0.0714
 2914TIP3    H132937   1.522   1.148  17.090 -0.8871 -0.4954  3.0794
 2914TIP3    H232938   1.598   1.073  17.198  1.3289 -3.5916 -0.4000
 2915TIP3   OH232939   5.291   4.595  18.866  0.0893  0.0328 -0.0709
 2915TIP3    H132940   5.261   4.548  18.944  0.9034 -0.3579  0.0188
 2915TIP3    H232941   5.284   4.687  18.890 -0.2395 -0.0697  0.2440
 2916TIP3   OH232942   0.409   6.444  18.976  0.2754 -0.5620 -0.7038
 2916TIP3    H132943   0.374   6.382  18.911  0.6480 -2.0621  0.4498
 2916TIP3    H232944   0.336   6.502  18.995 -0.9298 -2.1896 -0.0587
 2917TIP3   OH232945   0.637   2.570  19.429 -0.0442 -0.6142 -0.1489
 2917TIP3    H132946   0.715   2.579  19.374 -0.0700 -0.8482 -0.2231
 2917TIP3    H232947   0.570   2.536  19.371 -0.2209 -0.3561 -0.0981
 2918TIP3   OH232948   6.844   2.152  17.121  0.6519  0.0745 -0.1471
 2918TIP3    H132949   6.817   2.205  17.046 -0.1373  0.5509  0.4505
 2918TIP3    H232950   6.903   2.209  17.171  1.0077 -0.1621 -0.3006
 2919TIP3   OH232951   0.676   1.867  19.460 -0.3014  0.0753 -0.5371
 2919TIP3    H132952   0.754   1.877  19.405  1.6021 -0.8403  1.8184
 2919TIP3    H232953   0.654   1.956  19.487  0.8674  0.2406 -0.0583
 2920TIP3   OH232954   0.650   4.452  18.496 -0.0982  0.4145 -0.2833
 2920TIP3    H132955   0.741   4.477  18.482  0.3531 -1.1850 -0.3759
 2920TIP3    H232956   0.619   4.424  18.410 -0.5812  0.6252 -0.1820
 2921TIP3   OH232957   1.017   6.313  16.764  0.5114  0.0897 -0.8681
 2921TIP3    H132958   1.050   6.364  16.839 -1.9262 -2.1002  1.9488
 2921TIP3    H232959   1.073   6.235  16.762  0.9358  0.4096 -1.7472
 2922TIP3   OH232960   7.033   4.470  17.462  0.6582  0.2140 -0.2770
 2922TIP3    H132961   7.122   4.470  17.428  1.3466 -0.2467  1.4455
 2922TIP3    H232962   7.007   4.562  17.462  2.2942  0.7544  2.0118
 2923TIP3   OH232963   0.218   6.514  19.370 -0.2179 -0.3879 -0.2721
 2923TIP3    H132964   0.143   6.560  19.331 -0.1162 -0.6352 -0.7652
 2923TIP3    H232965   0.230   6.557  19.455  0.5913  1.2951 -1.1781
 2924TIP3   OH232966   3.747   6.528  18.658  0.4889 -0.1133 -0.2720
 2924TIP3    H132967   3.742   6.619  18.628 -2.2304 -0.2603 -0.5195
 2924TIP3    H232968   3.700   6.527  18.741 -0.2528 -1.4207 -0.6798
 2925TIP3   OH232969   7.026   0.267  18.192 -0.1051  0.8393 -0.0417
 2925TIP3    H132970   6.976   0.198  18.149  0.0217  0.5804  0.2216
 2925TIP3    H232971   7.112   0.227  18.208 -0.1818  0.8971  0.5380
 2926TIP3   OH232972   5.181   0.817  19.417  0.1758 -0.0459 -0.7319
 2926TIP3    H132973   5.262   0.788  19.458 -0.6396  0.6408  1.5025
 2926TIP3    H232974   5.205   0.831  19.325  2.2153 -1.1845 -0.4386
 2927TIP3   OH232975   1.840   4.299  18.469 -0.2753 -0.3577  0.0317
 2927TIP3    H132976   1.754   4.279  18.431 -1.7542  2.6852  1.3878
 2927TIP3    H232977   1.890   4.336  18.396 -0.8222 -0.3763 -0.3608
 2928TIP3   OH232978   0.318   4.397  17.866 -0.5774  0.2120 -0.1521
 2928TIP3    H132979   0.227   4.376  17.848 -1.0176  1.0585  0.9926
 2928TIP3    H232980   0.357   4.314  17.894 -1.0426 -0.0910 -0.3895
 2929TIP3   OH232981   4.591   2.563  19.470 -0.3040  0.2655 -0.2832
 2929TIP3    H132982   4.679   2.577  19.434 -0.1221 -0.2880 -0.0681
 2929TIP3    H232983   4.606   2.515  19.551 -0.7662  0.7614  0.1053
 2930TIP3   OH232984   6.808   5.798  17.428  0.5383 -0.6576 -0.0953
 2930TIP3    H132985   6.809   5.705  17.405 -1.0016 -0.7211 -0.0131
 2930TIP3    H232986   6.883   5.810  17.487  0.4392 -1.9599  0.3130
 2931TIP3   OH232987   3.016   7.631  17.120  0.1431  0.2495  0.3472
 2931TIP3    H132988   3.094   7.670  17.081  0.5114 -1.7522 -1.0649
 2931TIP3    H232989   3.028   7.537  17.109 -2.8550 -0.1048 -0.6551
 2932TIP3   OH232990   4.412   6.360  19.697  0.5749  0.5549  0.6508
 2932TIP3    H132991   4.457   6.298  19.641 -0.2911 -1.0680  1.6900
 2932TIP3    H232992   4.480   6.421  19.726  1.2189  0.8087 -1.2848
 2933TIP3   OH232993   0.634   4.516  17.123 -0.3040  0.0129 -0.1703
 2933TIP3    H132994   0.571   4.447  17.140 -0.6449  0.3215 -0.1744
 2933TIP3    H232995   0.668   4.498  17.036 -1.1734  0.4514 -0.6100
 2934TIP3   OH232996   2.114   6.009  18.367 -0.2853 -0.2338  0.4516
 2934TIP3    H132997   2.157   6.073  18.311  0.4834 -0.3233  0.9139
 2934TIP3    H232998   2.057   5.959  18.309  1.9581 -1.6274 -0.6485
 2935TIP3   OH232999   2.861   6.770  18.578 -0.2058 -0.5744  0.2053
 2935TIP3    H133000   2.852   6.699  18.514  0.1673 -2.0681  1.7318
 2935TIP3    H233001   2.944   6.812  18.556  0.5629 -1.9088  0.4703
 2936TIP3   OH233002   0.571   4.295  18.251 -0.5891 -0.2319  0.2583
 2936TIP3    H133003   0.562   4.218  18.194  2.8349 -0.8109  0.2719
 2936TIP3    H233004   0.618   4.359  18.198 -0.3416  0.5196  1.3478
 2937TIP3   OH233005   3.698   3.289  18.807  0.3044 -0.3162 -0.3313
 2937TIP3    H133006   3.615   3.319  18.842  0.3151  0.5318 -1.0132
 2937TIP3    H233007   3.761   3.356  18.832  0.5987 -0.4612 -0.6705
 2938TIP3   OH233008   6.101   0.018  17.087  0.3307  0.5041  0.6492
 2938TIP3    H133009   6.184   0.066  17.095  0.6569  0.2446 -0.9066
 2938TIP3    H233010   6.128  -0.072  17.070 -0.2938  0.1496  1.4413
 2939TIP3   OH233011   1.211   7.413  19.513  0.0306  0.6889  0.1547
 2939TIP3    H133012   1.265   7.493  19.514  0.2819  0.5210  0.1523
 2939TIP3    H233013   1.216   7.379  19.602  1.2136 -0.1742 -0.2096
 2940TIP3   OH233014   3.169   6.888  19.430 -0.3460 -0.0084  0.1281
 2940TIP3    H133015   3.220   6.905  19.351 -0.1712 -1.8995 -0.2089
 2940TIP3    H233016   3.082   6.923  19.410 -0.5782 -1.3201 -1.3220
 2941TIP3   OH233017   5.064   1.752  18.939 -0.1502  0.0972  0.2084
 2941TIP3    H133018   4.983   1.797  18.966  0.1880  0.2565  0.9835
 2941TIP3    H233019   5.034   1.679  18.885 -0.9408 -0.9372  1.9639
 2942TIP3   OH233020   4.251   4.385  18.021 -0.5873 -0.2632  0.2109
 2942TIP3    H133021   4.217   4.467  18.056  0.6302  0.6773 -0.6977
 2942TIP3    H233022   4.302   4.347  18.092  1.4042  1.3485 -0.2672
 2943TIP3   OH233023   3.651   3.695  18.358 -0.2415 -0.3262 -0.3534
 2943TIP3    H133024   3.706   3.694  18.280 -0.8768  0.0966 -0.8240
 2943TIP3    H233025   3.662   3.608  18.396 -0.0009 -0.5740 -0.9723
 2944TIP3   OH233026   1.270   7.562  19.072  0.3387 -0.2156 -0.5553
 2944TIP3    H133027   1.339   7.527  19.128  0.3086 -1.3609 -1.2048
 2944TIP3    H233028   1.227   7.485  19.036 -0.0502  0.4913 -1.6608
 2945TIP3   OH233029   1.980   0.501  16.912 -0.1714  0.3855 -0.0120
 2945TIP3    H133030   2.001   0.496  16.819  0.6063 -0.2822  0.1863
 2945TIP3    H233031   1.896   0.456  16.921  0.1922 -0.3501 -0.2658
 2946TIP3   OH233032   6.163   2.462  18.935  0.0320  0.0256 -0.2544
 2946TIP3    H133033   6.236   2.404  18.915 -0.3516 -0.6112  0.1577
 2946TIP3    H233034   6.123   2.425  19.014 -0.6088  0.4812 -0.3514
 2947TIP3   OH233035   7.001   5.985  17.941 -0.1092 -0.5386 -0.1752
 2947TIP3    H133036   7.063   6.049  17.905 -0.7117 -0.5752 -1.3465
 2947TIP3    H233037   7.054   5.907  17.957 -0.1823 -1.4387 -3.4964
 2948TIP3   OH233038   6.609   0.178  19.566  0.1581  0.4916 -0.5362
 2948TIP3    H133039   6.610   0.214  19.655  0.4360  2.0492 -1.1415
 2948TIP3    H233040   6.686   0.122  19.562  0.6163  1.0687 -0.0464
 2949TIP3   OH233041   2.812   0.503  17.855  0.1409 -0.0245  0.3701
 2949TIP3    H133042   2.748   0.455  17.803  1.0294 -0.3762 -0.4150
 2949TIP3    H233043   2.877   0.533  17.792 -0.0101  1.6127  0.9423
 2950TIP3   OH233044   5.750   0.311  17.973  0.1543  0.1077 -0.3873
 2950TIP3    H133045   5.771   0.226  18.010  1.3981  0.5586  0.0099
 2950TIP3    H233046   5.745   0.297  17.879  2.8609  0.0309 -0.5837
 2951TIP3   OH233047   5.949   3.012  17.448  0.9581  0.3385  0.1360
 2951TIP3    H133048   5.881   3.072  17.416  1.3781  0.1185 -1.2622
 2951TIP3    H233049   5.917   2.984  17.534  0.2279  1.7070  0.3476
 2952TIP3   OH233050   2.369   2.774  18.387 -0.2924 -0.0415  0.0595
 2952TIP3    H133051   2.317   2.808  18.460  0.3446 -0.8906  0.9255
 2952TIP3    H233052   2.309   2.774  18.312 -1.1639  0.1438  0.7553
 2953TIP3   OH233053   7.431   1.757  17.714 -0.1288  0.0287 -0.1982
 2953TIP3    H133054   7.390   1.692  17.770 -0.0729  0.0825 -0.0937
 2953TIP3    H233055   7.438   1.714  17.628  1.0538 -0.5531  0.1730
 2954TIP3   OH233056   4.423   2.614  17.848 -0.4952 -0.1429 -0.5082
 2954TIP3    H133057   4.372   2.611  17.767 -0.2041 -2.9215 -0.7123
 2954TIP3    H233058   4.364   2.579  17.915 -0.3209  0.9284  0.2288
 2955TIP3   OH233059   5.171   6.749  17.046 -0.1565  0.3776 -0.0723
 2955TIP3    H133060   5.158   6.698  16.966  1.3445 -0.7093  0.3341
 2955TIP3    H233061   5.084   6.753  17.085 -0.8843  0.7728 -1.6429
 2956TIP3   OH233062   2.294   4.382  19.158  0.0967 -0.0114  0.0140
 2956TIP3    H133063   2.330   4.445  19.096  0.4267  0.7495  0.9596
 2956TIP3    H233064   2.274   4.305  19.105 -2.6036  1.6679 -1.6442
 2957TIP3   OH233065   4.639   5.329  16.775  0.4224  0.6971 -0.0859
 2957TIP3    H133066   4.654   5.415  16.815 -1.5908  1.3033 -0.5375
 2957TIP3    H233067   4.614   5.348  16.685  1.4604 -0.4726 -0.6457
 2958TIP3   OH233068   7.459   2.430  17.572 -0.0222 -0.2555  0.1210
 2958TIP3    H133069   7.506   2.498  17.622  0.5330 -0.6284  0.1084
 2958TIP3    H233070   7.483   2.348  17.615  0.5523 -0.5954 -0.8360
 2959TIP3   OH233071   5.637   3.205  18.894  0.2866  0.0696 -0.5115
 2959TIP3    H133072   5.705   3.210  18.961 -1.8458 -0.0402  1.8169
 2959TIP3    H233073   5.637   3.292  18.853  0.8975  0.5086  0.3964
 2960TIP3   OH233074   4.574   4.752  18.589  0.2258  0.4774 -0.2606
 2960TIP3    H133075   4.607   4.819  18.649  2.4034 -0.4828 -0.2775
 2960TIP3    H233076   4.581   4.793  18.502 -1.2062  1.2161 -0.0545
 2961TIP3   OH233077   0.860   4.398  17.765  0.4070 -0.1031 -0.2808
 2961TIP3    H133078   0.830   4.446  17.687  2.6152  0.5656 -0.7917
 2961TIP3    H233079   0.901   4.465  17.820 -0.9832 -0.5916  1.4333
 2962TIP3   OH233080   0.444   1.168  18.628 -0.0551  0.2980  0.4284
 2962TIP3    H133081   0.490   1.145  18.709 -0.8650 -1.1202  0.5152
 2962TIP3    H233082   0.511   1.211  18.575  0.9186 -0.1707  1.2248
 2963TIP3   OH233083   6.308   2.399  18.039 -0.5264  0.6980  1.0191
 2963TIP3    H133084   6.326   2.447  18.120 -0.4598  1.7316  0.4193
 2963TIP3    H233085   6.213   2.403  18.029 -0.4375  1.6888  0.4126
 2964TIP3   OH233086   7.187   1.825  17.849  0.5569  0.2459 -0.3535
 2964TIP3    H133087   7.195   1.731  17.835  1.7440  0.4470 -1.1300
 2964TIP3    H233088   7.250   1.864  17.789 -1.7330  1.7053 -1.9443
 2965TIP3   OH233089   4.704   0.333  18.256  0.2336 -0.0766 -0.0234
 2965TIP3    H133090   4.637   0.320  18.188 -1.1245 -1.6829  1.5099
 2965TIP3    H233091   4.696   0.256  18.312  1.9208  0.7588  1.4586
 2966TIP3   OH233092   2.626   7.146  18.270 -0.0477  0.0647 -0.4115
 2966TIP3    H133093   2.631   7.179  18.360 -1.0937 -0.5209 -0.1199
 2966TIP3    H233094   2.669   7.060  18.274 -1.4229 -0.6319 -0.1108
 2967TIP3   OH233095   2.987   7.454  18.837 -0.0282 -0.2470  0.0650
 2967TIP3    H133096   2.979   7.537  18.884 -1.0257 -0.3654  0.1383
 2967TIP3    H233097   2.950   7.389  18.897  1.6572 -0.9265  0.4332
 2968TIP3   OH233098   5.304   3.939  19.039  0.3454  0.0670 -0.1941
 2968TIP3    H133099   5.274   3.868  19.096 -0.6162 -0.2770 -1.0892
 2968TIP3    H233100   5.395   3.918  19.021 -0.4428 -2.1543 -2.1210
 2969TIP3   OH233101   2.143   7.011  17.894 -0.1644 -0.2142  0.9360
 2969TIP3    H133102   2.133   7.032  17.801  1.2991 -0.9303  0.5916
 2969TIP3    H233103   2.057   6.976  17.920 -1.3612  2.1816  0.4950
 2970TIP3   OH233104   5.017   0.151  16.839  0.5570  0.4441  0.1444
 2970TIP3    H133105   4.972   0.219  16.788  1.8777  0.0734 -1.6130
 2970TIP3    H233106   5.032   0.080  16.777  0.5430 -0.8570  1.5596
 2971TIP3   OH233107   4.399   1.145  18.419 -0.2110  0.1280  0.1417
 2971TIP3    H133108   4.405   1.234  18.382  0.4463 -0.1405 -0.4248
 2971TIP3    H233109   4.483   1.104  18.396  0.4106  0.0727  2.3003
 2972TIP3   OH233110   4.390   3.552  17.056  0.6008 -0.3448 -0.4485
 2972TIP3    H133111   4.358   3.640  17.076  0.3209 -0.3042 -1.0550
 2972TIP3    H233112   4.341   3.526  16.978 -0.0489 -1.4319  0.2888
 2973TIP3   OH233113   7.115   1.958  18.069 -0.2500 -0.2371 -0.5759
 2973TIP3    H133114   7.119   1.906  17.989  0.4773  0.5979 -1.1059
 2973TIP3    H233115   7.202   1.950  18.107 -0.8720 -1.4188  0.6754
 2974TIP3   OH233116   5.956   7.449  17.302 -0.2398  0.3954 -0.3473
 2974TIP3    H133117   5.980   7.405  17.221 -0.8069  0.5396 -0.5998
 2974TIP3    H233118   5.954   7.542  17.279  2.0470  0.7040  0.4492
 2975TIP3   OH233119   6.004   0.853  18.711 -0.1718 -0.5775 -0.0326
 2975TIP3    H133120   6.068   0.922  18.693 -0.2927 -0.4166  0.1595
 2975TIP3    H233121   6.055   0.772  18.705 -0.5021 -0.6845 -2.7410
 2976TIP3   OH233122   2.839   2.849  18.092 -0.0130  0.5091  0.5996
 2976TIP3    H133123   2.781   2.889  18.157 -0.2798  0.2420  0.5288
 2976TIP3    H233124   2.880   2.776  18.138  0.7560  1.0773  0.8385
 2977TIP3   OH233125   2.562   2.587  17.029 -0.2295 -0.5906  0.0468
 2977TIP3    H133126   2.516   2.616  17.108 -2.0335 -0.6306 -0.9159
 2977TIP3    H233127   2.645   2.552  17.060  0.0781  1.4240  1.6903
 2978TIP3   OH233128   2.525   6.118  19.389  0.5566 -0.0310 -0.3185
 2978TIP3    H133129   2.467   6.194  19.388 -0.1970 -0.5556  0.5978
 2978TIP3    H233130   2.599   6.145  19.444 -0.0504 -0.1721  0.5984
 2979TIP3   OH233131   5.038   3.923  18.936 -0.5158  0.2097  0.2243
 2979TIP3    H133132   5.006   4.012  18.927  0.5443  0.5690 -0.1494
 2979TIP3    H233133   5.129   3.933  18.963  1.0679 -0.6134 -4.0891
 2980TIP3   OH233134   6.205   6.025  16.675 -0.3089  0.4598  0.2669
 2980TIP3    H133135   6.298   6.016  16.694 -0.4934 -0.3694  0.7958
 2980TIP3    H233136   6.161   5.994  16.754 -1.0479  3.8001  1.3200
 2981TIP3   OH233137   5.513   5.712  17.199  0.3205  0.0558 -0.4843
 2981TIP3    H133138   5.485   5.798  17.168  0.7566  0.1061 -0.7537
 2981TIP3    H233139   5.539   5.666  17.119  0.6446 -0.1195 -0.2800
 2982TIP3   OH233140   4.743   1.900  18.319  0.7124 -0.4265  0.1603
 2982TIP3    H133141   4.798   1.878  18.244  0.2827  0.4607 -0.4316
 2982TIP3    H233142   4.800   1.953  18.376  0.6679 -0.0289 -0.1574
 2983TIP3   OH233143   6.668   5.845  17.183  0.7946 -0.4990 -0.1729
 2983TIP3    H133144   6.572   5.845  17.179  0.8222 -1.6862 -1.7280
 2983TIP3    H233145   6.688   5.864  17.274 -0.8903  1.1154 -0.0851
 2984TIP3   OH233146   3.434   7.111  17.431  0.0554  0.3860  0.2214
 2984TIP3    H133147   3.501   7.075  17.372  2.0105  1.7013  1.5083
 2984TIP3    H233148   3.359   7.128  17.375  0.3016 -2.2747 -1.0827
 2985TIP3   OH233149   6.125   6.192  18.440  0.5111  0.0715 -0.0020
 2985TIP3    H133150   6.066   6.182  18.366  1.6626 -1.9375 -0.7177
 2985TIP3    H233151   6.141   6.103  18.472  2.4089  0.6040  0.7250
 2986TIP3   OH233152   2.646   6.117  19.110  0.0967  0.1597 -0.1667
 2986TIP3    H133153   2.599   6.097  19.191  2.6143  0.2655  1.4218
 2986TIP3    H233154   2.686   6.034  19.084 -0.7715  0.1028 -1.4064
 2987TIP3   OH233155   5.791   3.648  17.180  0.2947 -0.0331  0.3154
 2987TIP3    H133156   5.751   3.603  17.105  0.3581 -0.2570  0.4147
 2987TIP3    H233157   5.850   3.583  17.218 -1.8905 -0.9774  2.3349
 2988TIP3   OH233158   5.130   0.887  18.904  0.2179  0.7177 -0.2583
 2988TIP3    H133159   5.142   0.792  18.912  1.1186  0.7551 -1.0129
 2988TIP3    H233160   5.082   0.911  18.983 -2.6968 -0.7939 -1.4008
 2989TIP3   OH233161   0.951   2.305  19.259 -0.2486 -0.0493 -0.3824
 2989TIP3    H133162   0.996   2.316  19.175  0.0639 -0.5250 -0.2796
 2989TIP3    H233163   0.912   2.391  19.276  0.6546  0.3835 -0.4560
 2990TIP3   OH233164   4.340   0.421  19.047  0.5330 -0.4645 -0.2868
 2990TIP3    H133165   4.378   0.333  19.049  1.4229 -0.1398 -1.3443
 2990TIP3    H233166   4.390   0.470  19.112  1.7208 -0.1391 -1.4040
 2991TIP3   OH233167   0.386   3.910  17.517 -0.0083 -0.1285 -0.5246
 2991TIP3    H133168   0.294   3.896  17.538 -0.1768 -0.1138 -1.2266
 2991TIP3    H233169   0.406   3.998  17.550 -0.3030 -0.0437 -0.5793
 2992TIP3   OH233170   7.003   2.800  18.739  0.2901  0.2880  0.4280
 2992TIP3    H133171   6.948   2.852  18.681  0.9561  4.1920  2.9284
 2992TIP3    H233172   7.065   2.755  18.681 -0.6657  1.8838 -1.9786
 2993TIP3   OH233173   1.044   4.955  18.033 -0.2259 -0.2120  0.0621
 2993TIP3    H133174   1.020   4.963  18.125  0.4776  2.6721  0.1016
 2993TIP3    H233175   0.976   5.004  17.986 -0.8669 -2.0792 -1.0572
 2994TIP3   OH233176   2.727   4.496  19.247  0.1410 -0.2106  0.0347
 2994TIP3    H133177   2.721   4.507  19.153 -0.9271  1.4313  0.2519
 2994TIP3    H233178   2.671   4.421  19.267 -0.2207 -0.0970 -0.5546
 2995TIP3   OH233179   0.840   4.534  19.159 -0.1430 -0.3209  0.2593
 2995TIP3    H133180   0.892   4.458  19.135 -0.9052 -1.6198  2.4546
 2995TIP3    H233181   0.761   4.527  19.105  1.1745  0.8058 -1.9427
 2996TIP3   OH233182   0.255   6.921  17.241  0.7896  0.2943 -0.0812
 2996TIP3    H133183   0.340   6.923  17.195  1.4122 -1.2769  0.9443
 2996TIP3    H233184   0.194   6.962  17.179  2.1335  0.7442 -1.1669
 2997TIP3   OH233185   3.243   3.691  17.548 -0.3256  0.6293 -0.4884
 2997TIP3    H133186   3.258   3.597  17.539 -0.2270  0.4820  0.9946
 2997TIP3    H233187   3.203   3.717  17.465  0.8535 -0.4641 -1.4413
 2998TIP3   OH233188   6.363   4.005  18.699  0.0673 -0.7793  0.2310
 2998TIP3    H133189   6.341   4.079  18.643  1.4042 -0.6414 -0.1404
 2998TIP3    H233190   6.279   3.979  18.738 -0.6301  0.1009 -0.6255
 2999TIP3   OH233191   4.263   5.816  17.449  0.0416  0.3712 -0.4011
 2999TIP3    H133192   4.257   5.910  17.462  1.2058  0.5301 -0.8874
 2999TIP3    H233193   4.289   5.781  17.534 -1.6687  0.3165  0.1347
 3000TIP3   OH233194   0.598   5.931  18.435  0.4449 -0.2694 -0.2849
 3000TIP3    H133195   0.646   5.861  18.392 -0.0380 -0.6666 -0.1919
 3000TIP3    H233196   0.511   5.893  18.451  0.8985 -0.5015  1.9582
 3001TIP3   OH233197   0.518   5.796  16.812  0.1394 -0.8154  0.1540
 3001TIP3    H133198   0.565   5.776  16.893 -1.9818  2.7664  2.5904
 3001TIP3    H233199   0.432   5.756  16.823  0.0903 -0.9838 -0.7431
 3002TIP3   OH233200   5.341   4.214  16.813  0.0129 -0.1702  0.3058
 3002TIP3    H133201   5.340   4.159  16.892 -0.2249  1.4749  1.4941
 3002TIP3    H233202   5.277   4.172  16.755  1.0695 -2.0988  0.4512
 3003TIP3   OH233203   2.434   7.261  17.581 -0.1241 -0.1305 -0.0392
 3003TIP3    H133204   2.484   7.280  17.501 -0.3787 -2.4199 -0.8088
 3003TIP3    H233205   2.494   7.285  17.652  1.8806 -2.0435 -0.9299
 3004TIP3   OH233206   4.203   1.265  18.939 -0.5283 -0.0366 -0.0870
 3004TIP3    H133207   4.117   1.234  18.908 -1.9339  1.2391  2.2205
 3004TIP3    H233208   4.246   1.299  18.861 -2.1381 -0.7161 -1.3240
 3005TIP3   OH233209   1.205   6.032  18.449  0.3683  0.4336 -0.6002
 3005TIP3    H133210   1.168   5.962  18.395  0.2388  1.2886 -1.6730
 3005TIP3    H233211   1.173   6.014  18.537  0.6595 -1.0625 -0.7773
 3006TIP3   OH233212   2.622   0.815  18.300  0.0849  0.4489  0.2192
 3006TIP3    H133213   2.606   0.905  18.271  0.6485  0.7118  0.6931
 3006TIP3    H233214   2.617   0.762  18.220 -1.0480  0.7868  0.0473
 3007TIP3   OH233215   5.796   6.667  19.374 -0.1170  0.2276 -0.8365
 3007TIP3    H133216   5.760   6.637  19.290 -0.9650 -0.2084 -0.3289
 3007TIP3    H233217   5.720   6.698  19.423  0.6089  2.2936 -0.9478
 3008TIP3   OH233218   4.025   7.055  19.287 -0.1549 -0.2992 -0.1983
 3008TIP3    H133219   4.066   7.132  19.326  1.3591 -0.8779 -0.5755
 3008TIP3    H233220   4.039   7.066  19.193  0.1358 -1.0547 -0.2457
 3009TIP3   OH233221   1.120   0.202  18.563 -0.4557  0.1244 -0.1540
 3009TIP3    H133222   1.206   0.220  18.601 -0.5187  0.7691 -0.3101
 3009TIP3    H233223   1.094   0.119  18.603 -0.0524  0.2563  0.4023
 3010TIP3   OH233224   5.899   1.803  17.019  0.3764  0.0586  0.0410
 3010TIP3    H133225   5.807   1.776  17.023  0.0163  0.8860 -1.7629
 3010TIP3    H233226   5.948   1.721  17.020 -0.4653 -0.4667 -0.4809
 3011TIP3   OH233227   2.275   4.640  18.266 -0.0591 -0.2427 -0.2513
 3011TIP3    H133228   2.335   4.581  18.311  0.3999 -1.3074 -2.1700
 3011TIP3    H233229   2.330   4.687  18.203 -0.9641 -0.0132 -0.8809
 3012TIP3   OH233230   7.225   7.461  19.296  0.4629 -0.4837  0.1846
 3012TIP3    H133231   7.283   7.419  19.232 -0.1534  1.8997 -2.1290
 3012TIP3    H233232   7.137   7.431  19.270  0.3680 -2.0122  2.0322
 3013TIP3   OH233233   0.048   2.547  18.464 -0.2914 -0.2431  0.2372
 3013TIP3    H133234   0.094   2.506  18.537 -0.7820  0.3879  0.9015
 3013TIP3    H233235   0.081   2.500  18.387  0.2610 -0.8841  0.8447
 3014TIP3   OH233236   0.280   7.415  17.652  0.3317  0.0877  0.0297
 3014TIP3    H133237   0.308   7.333  17.694  1.6282 -0.0045 -0.9482
 3014TIP3    H233238   0.316   7.484  17.707  2.0089 -0.0330 -0.8458
 3015TIP3   OH233239   1.362   7.630  19.582 -0.3060  0.0844 -0.1457
 3015TIP3    H133240   1.453   7.655  19.601  0.2679 -0.9085 -1.4564
 3015TIP3    H233241   1.338   7.683  19.506 -0.3392 -0.6227 -0.6419
 3016TIP3   OH233242   1.071   5.011  19.477 -0.1667 -0.0420 -0.1263
 3016TIP3    H133243   1.150   4.963  19.454 -0.6559 -1.3322  0.7866
 3016TIP3    H233244   1.012   4.945  19.512 -0.9010  1.2108  1.1065
 3017TIP3   OH233245   2.334   2.506  17.406 -0.2287  0.5951 -0.0682
 3017TIP3    H133246   2.386   2.426  17.404 -0.8252  0.0823  2.0621
 3017TIP3    H233247   2.393   2.574  17.373  0.2469 -0.6899 -2.0339
 3018TIP3   OH233248   6.647   3.887  18.461  0.2927  0.0658 -0.3865
 3018TIP3    H133249   6.685   3.828  18.395 -1.5837 -2.3631  0.5459
 3018TIP3    H233250   6.682   3.856  18.544  0.0636  0.9686  0.0568
 3019TIP3   OH233251   3.337   3.949  19.084  0.0632  0.8066 -0.0795
 3019TIP3    H133252   3.373   3.948  18.995 -0.7295 -0.7354 -0.4343
 3019TIP3    H233253   3.244   3.967  19.071 -0.3110 -0.7128  0.2826
 3020TIP3   OH233254   5.892   7.227  17.437 -0.2886  0.2122 -0.3447
 3020TIP3    H133255   5.957   7.195  17.374 -1.0668 -0.3021 -0.8981
 3020TIP3    H233256   5.864   7.312  17.402 -1.8711 -0.7682 -1.5729
 3021TIP3   OH233257   0.848   0.540  19.069  0.2232 -0.0313  0.4031
 3021TIP3    H133258   0.839   0.453  19.107  1.1705 -0.4731 -0.3235
 3021TIP3    H233259   0.770   0.587  19.097 -0.5900 -1.2956  0.3294
 3022TIP3   OH233260   2.763   0.104  17.896  0.2305  0.0469 -0.4955
 3022TIP3    H133261   2.855   0.089  17.914  0.0290 -0.7181 -0.0728
 3022TIP3    H233262   2.723   0.113  17.983 -0.1338  0.0859 -0.6655
 3023TIP3   OH233263   4.010   0.915  18.582 -0.5145 -0.1982 -0.8447
 3023TIP3    H133264   4.094   0.896  18.624 -0.8295 -0.5804 -0.3684
 3023TIP3    H233265   4.033   0.940  18.492  0.3438  2.5658  0.0321
 3024TIP3   OH233266   6.195   3.805  19.109 -0.1703 -0.2981  0.4580
 3024TIP3    H133267   6.157   3.887  19.141 -2.6343 -0.0342 -2.6060
 3024TIP3    H233268   6.205   3.751  19.187 -3.0302  1.2218  2.0590
 3025TIP3   OH233269   6.267   0.896  17.583 -0.0358  0.6642  0.0112
 3025TIP3    H133270   6.317   0.919  17.660  0.6988  1.3910 -0.6618
 3025TIP3    H233271   6.331   0.894  17.512 -0.2968 -2.1029 -0.2659
 3026TIP3   OH233272   4.333   7.056  18.349 -0.1387  0.5410  0.0499
 3026TIP3    H133273   4.412   7.036  18.399  0.9635 -2.7319 -2.5439
 3026TIP3    H233274   4.366   7.086  18.264 -1.7754  1.6177 -0.2425
 3027TIP3   OH233275   6.842   6.386  18.722  0.6179  0.0485  0.7949
 3027TIP3    H133276   6.750   6.392  18.693  0.3663  0.7121  1.6990
 3027TIP3    H233277   6.892   6.397  18.641 -0.0713 -3.0208 -0.1962
 3028TIP3   OH233278   4.088   2.370  18.557 -0.0583  0.0632 -0.4596
 3028TIP3    H133279   4.148   2.347  18.486  1.1337  0.8591  0.2535
 3028TIP3    H233280   4.046   2.450  18.527 -0.6061 -0.3679 -0.8607
 3029TIP3   OH233281   0.019   0.464  18.028  0.6859 -0.0387 -0.2835
 3029TIP3    H133282   0.030   0.402  17.956 -0.6661 -0.7972  0.1181
 3029TIP3    H233283   0.080   0.535  18.009  0.0198  0.0165 -2.4095
 3030TIP3   OH233284   5.773   1.042  18.758  0.1083 -0.3061 -0.2254
 3030TIP3    H133285   5.792   1.134  18.741  1.6476 -0.5989 -0.2507
 3030TIP3    H233286   5.857   0.998  18.749  0.0673 -1.2762  2.9280
 3031TIP3   OH233287   1.876   0.574  18.856 -0.4059  0.1291  0.0106
 3031TIP3    H133288   1.856   0.491  18.899 -1.6262  0.7103  0.6033
 3031TIP3    H233289   1.930   0.622  18.918 -0.7904  0.2968  0.2207
 3032TIP3   OH233290   2.763   2.969  17.726  0.6609 -0.1764 -0.2563
 3032TIP3    H133291   2.751   2.898  17.663  0.7634  0.5349 -1.0987
 3032TIP3    H233292   2.686   3.025  17.712  0.7374  0.0354  0.1827
 3033TIP3   OH233293   4.281   3.138  17.365 -0.2776  0.1455 -0.2029
 3033TIP3    H133294   4.335   3.176  17.295 -1.0286  0.0388 -0.8469
 3033TIP3    H233295   4.332   3.063  17.396 -0.1255 -0.0569 -0.9165
 3034TIP3   OH233296   7.609   5.602  16.674  0.3440 -0.0734 -0.7540
 3034TIP3    H133297   7.532   5.626  16.724  1.1937  1.0612  0.0614
 3034TIP3    H233298   7.639   5.684  16.635  1.2913 -0.4437 -0.8425
 3035TIP3   OH233299   0.238   6.220  17.440 -0.0586 -0.2776 -1.1496
 3035TIP3    H133300   0.229   6.138  17.490 -1.0017  0.5999  0.1947
 3035TIP3    H233301   0.156   6.228  17.392  0.5816 -0.7764 -2.3702
 3036TIP3   OH233302   2.595   2.592  17.680  0.2851  0.1242  0.0205
 3036TIP3    H133303   2.679   2.618  17.717  1.1389 -1.6835 -0.5241
 3036TIP3    H233304   2.552   2.544  17.751  0.0690  0.3207  0.0230
 3037TIP3   OH233305   3.548   1.192  18.833 -0.3925  0.2124  0.2609
 3037TIP3    H133306   3.617   1.235  18.883  0.4798 -0.4517 -0.3512
 3037TIP3    H233307   3.524   1.115  18.885 -0.3341  0.1777  0.2354
 3038TIP3   OH233308   4.401   6.967  19.477 -0.5824  0.1490  0.6794
 3038TIP3    H133309   4.432   6.977  19.566 -0.9004 -1.2209  0.9738
 3038TIP3    H233310   4.479   6.979  19.422 -0.0168 -0.7369  1.2564
 3039TIP3   OH233311   1.924   6.275  18.413  0.7099 -0.6460  0.1413
 3039TIP3    H133312   1.968   6.190  18.408  2.0805 -0.1021  1.9714
 3039TIP3    H233313   1.935   6.302  18.504 -2.8432 -0.1320  0.5689
 3040TIP3   OH233314   0.643   5.386  19.670 -0.1811 -0.2678 -0.0854
 3040TIP3    H133315   0.620   5.305  19.715 -1.1498  0.5449  0.9482
 3040TIP3    H233316   0.678   5.443  19.739 -1.7068  1.0076 -0.3087
 3041TIP3   OH233317   3.965   6.505  19.236  0.1034  0.2117  0.1843
 3041TIP3    H133318   3.956   6.416  19.270  1.2700  0.1320  0.3465
 3041TIP3    H233319   4.019   6.550  19.301  2.5190  0.0199 -1.5490
 3042TIP3   OH233320   0.138   5.282  17.498  0.6125  0.5104 -0.8213
 3042TIP3    H133321   0.176   5.358  17.542  1.2081 -0.2335  0.0050
 3042TIP3    H233322   0.120   5.312  17.409 -0.9352  2.1680 -0.0166
 3043TIP3   OH233323   4.736   3.761  19.190  0.4254 -0.3628  0.2292
 3043TIP3    H133324   4.658   3.738  19.240  0.8227 -3.4355 -0.3860
 3043TIP3    H233325   4.788   3.815  19.249 -2.5649  2.8635  0.2517
 3044TIP3   OH233326   4.781   6.924  16.506  0.2739  0.2297 -0.6051
 3044TIP3    H133327   4.824   6.848  16.544  0.0867  0.4491  0.0603
 3044TIP3    H233328   4.758   6.896  16.417  2.3876  0.3466 -1.2336
 3045TIP3   OH233329   6.250   7.548  18.828  0.3076 -0.7282 -0.0051
 3045TIP3    H133330   6.179   7.511  18.775  0.0802  1.0516 -1.0148
 3045TIP3    H233331   6.310   7.586  18.765  1.7017 -1.3217  0.8967
 3046TIP3   OH233332   1.972   4.002  17.009  0.5652  0.2217  0.4332
 3046TIP3    H133333   1.889   3.975  16.970  0.7194  1.1489 -0.6087
 3046TIP3    H233334   2.024   3.922  17.013 -0.0781 -0.2067  0.2953
 3047TIP3   OH233335   7.041   2.102  18.601 -0.0549 -0.1669 -0.3153
 3047TIP3    H133336   7.002   2.150  18.528  0.2687  0.2352 -0.2264
 3047TIP3    H233337   6.993   2.019  18.603 -0.1062 -0.1602 -0.9451
 3048TIP3   OH233338   4.267   0.320  17.746 -0.0465  0.0183  0.2769
 3048TIP3    H133339   4.305   0.371  17.818  0.2221  0.5515 -0.2359
 3048TIP3    H233340   4.209   0.381  17.701 -1.3516 -0.7282  0.9012
 3049TIP3   OH233341   2.077   5.457  17.021 -0.5252  0.3582  0.1398
 3049TIP3    H133342   2.010   5.522  17.042 -0.1887  1.0304 -0.7911
 3049TIP3    H233343   2.028   5.380  16.992 -0.9218  0.2621  1.0289
 3050TIP3   OH233344   1.612   0.484  18.264 -0.1946 -0.2821 -0.0974
 3050TIP3    H133345   1.646   0.401  18.296 -1.9456 -0.5400  1.2342
 3050TIP3    H233346   1.657   0.551  18.317  0.5414 -0.4164 -0.5415
 3051TIP3   OH233347   1.794   6.941  18.508 -0.0026 -0.0810  0.0010
 3051TIP3    H133348   1.867   6.903  18.459  1.6261  2.0770  0.5811
 3051TIP3    H233349   1.788   7.031  18.475 -0.2732  0.7696  2.1809
 3052TIP3   OH233350   1.069   2.710  17.717  0.0658 -0.2741 -0.1285
 3052TIP3    H133351   1.124   2.779  17.681  0.8420 -1.1826 -0.7234
 3052TIP3    H233352   1.128   2.657  17.770 -0.3862 -0.8315 -0.1752
 3053TIP3   OH233353   5.236   7.549  17.915  0.3427  0.8311  0.0466
 3053TIP3    H133354   5.236   7.506  18.001  0.4593  0.0019 -0.3532
 3053TIP3    H233355   5.327   7.572  17.900  0.7987 -1.3481 -0.9479
 3054TIP3   OH233356   6.557   3.014  18.813  0.1140 -0.9227 -0.2038
 3054TIP3    H133357   6.536   3.076  18.883  1.3399 -0.8681  0.1531
 3054TIP3    H233358   6.556   2.929  18.855 -0.7237 -1.0711 -0.5008
 3055TIP3   OH233359   5.294   7.030  17.590 -0.0827  0.3274  0.2896
 3055TIP3    H133360   5.322   7.084  17.516 -1.6053  0.2645 -0.3739
 3055TIP3    H233361   5.319   6.941  17.564 -0.3792  0.3375 -0.0450
 3056TIP3   OH233362   0.477   2.854  17.161  0.1465  0.0760 -0.1840
 3056TIP3    H133363   0.427   2.927  17.123  1.9294  1.0336 -0.8391
 3056TIP3    H233364   0.477   2.787  17.093  0.0764  0.2147 -0.3216
 3057TIP3   OH233365   2.249   2.964  18.839  0.0030 -0.1244 -0.2260
 3057TIP3    H133366   2.312   3.036  18.848  0.3462 -0.3747 -0.5594
 3057TIP3    H233367   2.235   2.957  18.744  2.1405 -2.3084 -0.4857
 3058TIP3   OH233368   4.487   6.190  19.220 -0.0158  0.3307  0.0352
 3058TIP3    H133369   4.394   6.170  19.232 -0.1926  1.6685  1.0694
 3058TIP3    H233370   4.494   6.211  19.126 -0.7007 -0.0079 -0.1027
 3059TIP3   OH233371   0.479   4.733  18.564  1.3680  0.2468 -0.0945
 3059TIP3    H133372   0.489   4.732  18.469 -2.4746  3.4745 -0.7960
 3059TIP3    H233373   0.403   4.677  18.581  1.3870  0.5237  0.9701
 3060TIP3   OH233374   3.379   0.989  17.631 -0.3425 -0.1783 -0.5570
 3060TIP3    H133375   3.428   1.071  17.620 -0.2842 -0.1550 -0.1432
 3060TIP3    H233376   3.318   0.988  17.558 -0.6022  0.4186 -0.3589
 3061TIP3   OH233377   1.492   1.456  19.105  0.3624  0.3047  0.5704
 3061TIP3    H133378   1.460   1.526  19.162  0.8035  0.8068  0.2067
 3061TIP3    H233379   1.548   1.403  19.161  2.9122  2.2673  0.0354
 3062TIP3   OH233380   6.638   5.643  18.580 -0.5697  0.2282  0.6799
 3062TIP3    H133381   6.567   5.579  18.586 -1.3651  0.9220 -0.6978
 3062TIP3    H233382   6.686   5.617  18.501 -1.0205  1.4035 -0.0069
 3063TIP3   OH233383   3.348   5.031  18.152  0.4832 -0.1530  0.1796
 3063TIP3    H133384   3.419   4.985  18.108 -0.9410 -1.7966 -0.5080
 3063TIP3    H233385   3.353   5.004  18.243 -1.4144 -3.3321 -0.5021
 3064TIP3   OH233386   3.102   5.682  18.598  0.4825 -0.3513 -0.0599
 3064TIP3    H133387   3.054   5.741  18.656  0.6152 -1.2572  1.0070
 3064TIP3    H233388   3.185   5.667  18.643  0.5700 -1.1039 -0.4549
 3065TIP3   OH233389   4.456   0.632  17.587  0.3340 -0.1804 -0.0770
 3065TIP3    H133390   4.476   0.709  17.641 -1.7967 -0.4370  1.1572
 3065TIP3    H233391   4.462   0.558  17.647  0.3756 -0.7709 -0.7969
 3066TIP3   OH233392   7.589   1.765  18.660  0.2527 -0.1138  0.5333
 3066TIP3    H133393   7.528   1.693  18.640 -0.2286 -0.1293  1.9139
 3066TIP3    H233394   7.557   1.799  18.744  1.1637  0.9763  0.4453
 3067TIP3   OH233395   1.463   1.676  19.276 -0.1014 -0.0986  0.1403
 3067TIP3    H133396   1.551   1.713  19.269  1.0063 -2.6849 -0.8526
 3067TIP3    H233397   1.435   1.695  19.366  1.5301  0.5860  0.5305
 3068TIP3   OH233398   6.250   0.443  19.103 -0.6338  0.2628 -0.5449
 3068TIP3    H133399   6.163   0.478  19.124 -1.1739 -1.1083 -0.3725
 3068TIP3    H233400   6.246   0.424  19.009 -1.3068 -1.8008 -0.1437
 3069TIP3   OH233401   4.879   6.667  18.880  0.4082  0.1747 -0.4321
 3069TIP3    H133402   4.969   6.701  18.878  0.5435 -0.1209  0.3107
 3069TIP3    H233403   4.889   6.576  18.907  0.1146 -0.7288 -3.0378
 3070TIP3   OH233404   1.907   0.170  19.536 -0.0697 -0.2833  0.1033
 3070TIP3    H133405   1.833   0.210  19.490  1.4500 -1.4319 -3.8175
 3070TIP3    H233406   1.982   0.225  19.512  0.7990 -0.8414  1.4556
 3071TIP3   OH233407   7.409   5.946  18.396  0.3568  0.4638  0.0313
 3071TIP3    H133408   7.357   5.996  18.333  0.3581 -1.0363 -1.2050
 3071TIP3    H233409   7.500   5.970  18.376  0.2996  0.8804  0.2572
 3072TIP3   OH233410   4.613   3.630  18.068 -0.9197 -0.3390  0.3691
 3072TIP3    H133411   4.580   3.712  18.030 -1.3324 -1.3853 -1.7030
 3072TIP3    H233412   4.573   3.562  18.015  0.9290 -1.8308  0.7857
 3073TIP3   OH233413   2.720   4.070  18.682  0.0434 -0.2076  0.1472
 3073TIP3    H133414   2.637   4.023  18.679  0.2955 -0.6390 -0.4237
 3073TIP3    H233415   2.698   4.155  18.720 -0.3232 -0.9640  1.6919
 3074TIP3   OH233416   0.021   5.559  19.482 -0.4094 -0.4135 -0.4431
 3074TIP3    H133417  -0.063   5.524  19.512  0.8116 -2.1496  1.1652
 3074TIP3    H233418   0.017   5.552  19.386 -1.5228 -1.8961 -0.3258
 3075TIP3   OH233419   4.224   5.871  17.755 -0.4320  0.7026  0.2358
 3075TIP3    H133420   4.130   5.859  17.771 -0.0573 -0.2316  1.9589
 3075TIP3    H233421   4.246   5.952  17.800 -0.4000  0.8967 -0.1282
 3076TIP3   OH233422   3.777   4.596  17.374  0.7543  0.7275  0.2524
 3076TIP3    H133423   3.822   4.512  17.378  1.4291  1.1096  1.1665
 3076TIP3    H233424   3.751   4.605  17.282  3.1400  0.7751 -0.4820
 3077TIP3   OH233425   5.815   7.110  19.408 -0.6384  0.6850 -0.0043
 3077TIP3    H133426   5.897   7.151  19.437  0.8412 -2.3810  0.4967
 3077TIP3    H233427   5.747   7.156  19.458  0.8763  2.2775  0.7390
 3078TIP3   OH233428   1.070   7.106  17.215  0.3791  0.2785 -0.4690
 3078TIP3    H133429   0.990   7.132  17.169  0.1171 -0.1043 -0.2424
 3078TIP3    H233430   1.098   7.027  17.169 -1.8369 -2.2403  2.0903
 3079TIP3   OH233431   3.801   1.143  19.000 -0.4978  0.0976 -0.3840
 3079TIP3    H133432   3.808   1.103  18.913  0.0187 -0.1384 -0.2392
 3079TIP3    H233433   3.831   1.075  19.060  0.8581  0.8471 -0.1722
 3080TIP3   OH233434   4.896   3.863  17.529  0.3146  0.0690 -0.3886
 3080TIP3    H133435   4.814   3.818  17.550  1.5964 -1.1503  2.6271
 3080TIP3    H233436   4.878   3.955  17.546 -0.5420 -0.1228 -0.1846
 3081TIP3   OH233437   0.190   0.334  18.432  0.6792  0.1948 -0.4107
 3081TIP3    H133438   0.203   0.302  18.342  0.9726  0.6760 -0.5431
 3081TIP3    H233439   0.197   0.429  18.425 -1.4415  0.4190 -0.2384
 3082TIP3   OH233440   5.359   4.852  17.458  0.5932 -0.6093  0.0094
 3082TIP3    H133441   5.325   4.865  17.370 -0.9283  2.5779  0.9082
 3082TIP3    H233442   5.448   4.817  17.445  0.9839  1.1674 -2.8575
 3083TIP3   OH233443   6.302   5.753  19.261 -0.4196  0.2008 -0.4250
 3083TIP3    H133444   6.296   5.706  19.344 -0.7301  0.4274 -0.3164
 3083TIP3    H233445   6.276   5.689  19.195 -1.2367  0.3319 -0.2391
 3084TIP3   OH233446   0.203   2.548  18.905 -0.4925 -0.4066 -0.5560
 3084TIP3    H133447   0.196   2.460  18.942  2.0404 -1.7922 -2.9379
 3084TIP3    H233448   0.285   2.583  18.941  1.0466 -1.0653 -3.1203
 3085TIP3   OH233449   4.014   0.055  17.494  0.0469  0.1414  0.5380
 3085TIP3    H133450   3.944   0.015  17.443  0.1527 -0.9666  1.2304
 3085TIP3    H233451   4.089   0.056  17.434 -0.2694  0.3482  0.1424
 3086TIP3   OH233452   2.703   0.531  17.368 -0.0597  0.0301  0.3389
 3086TIP3    H133453   2.645   0.567  17.435 -0.5500  1.1834 -0.6702
 3086TIP3    H233454   2.670   0.566  17.286  1.8312  0.4387 -0.3105
 3087TIP3   OH233455   6.711   6.786  19.378  0.0949  0.0254  1.3833
 3087TIP3    H133456   6.662   6.704  19.374 -2.0619  1.2710  0.2259
 3087TIP3    H233457   6.643   6.854  19.380  1.7600  1.8601 -0.4814
 3088TIP3   OH233458   0.150   6.528  19.019 -0.5970 -0.2758  0.6276
 3088TIP3    H133459   0.112   6.446  18.985  0.1747 -0.3134 -0.1794
 3088TIP3    H233460   0.111   6.538  19.105 -1.9395 -0.6674  0.1024
 3089TIP3   OH233461   1.267   3.604  17.180  0.0394 -0.2218 -0.6308
 3089TIP3    H133462   1.296   3.548  17.109  0.1650  0.0474 -0.7945
 3089TIP3    H233463   1.176   3.625  17.159  0.0209 -0.2880 -0.6180
 3090TIP3   OH233464   7.122   4.982  17.340  0.5693  0.1081 -0.7754
 3090TIP3    H133465   7.039   4.983  17.293 -0.2198  0.5459  0.5581
 3090TIP3    H233466   7.169   4.906  17.306 -1.0188 -1.0466 -0.5062
 3091TIP3   OH233467   5.018   4.762  17.925  0.0637  0.5544  0.1201
 3091TIP3    H133468   5.064   4.730  17.847 -0.4503 -0.7525  0.3308
 3091TIP3    H233469   4.941   4.706  17.932 -0.9905  1.9727  0.4148
 3092TIP3   OH233470   5.400   6.361  19.375 -0.0356 -0.2520 -0.6995
 3092TIP3    H133471   5.425   6.270  19.363 -0.9974 -0.3513 -2.3149
 3092TIP3    H233472   5.476   6.411  19.345  1.2523 -0.4436  1.9724
 3093TIP3   OH233473   3.772   1.433  17.505 -0.6424  0.3867  0.4626
 3093TIP3    H133474   3.853   1.426  17.555 -0.3333 -0.4139 -0.1288
 3093TIP3    H233475   3.797   1.410  17.416 -1.7377 -0.9635  0.4820
 3094TIP3   OH233476   0.774   3.158  18.368  0.0163 -0.1216 -0.2246
 3094TIP3    H133477   0.744   3.081  18.416 -0.6179  1.0619  1.3818
 3094TIP3    H233478   0.866   3.167  18.392  0.4776 -1.1498 -1.5302
 3095TIP3   OH233479   0.725   6.989  19.427  0.2684 -0.1671 -0.1473
 3095TIP3    H133480   0.718   7.077  19.464  0.6172 -0.6564  1.1601
 3095TIP3    H233481   0.802   6.992  19.370 -0.7461  0.8168 -1.5292
 3096TIP3   OH233482   7.508   2.327  19.095 -0.1312  0.0194 -0.0535
 3096TIP3    H133483   7.464   2.398  19.049 -0.3181 -1.5132 -2.4099
 3096TIP3    H233484   7.563   2.370  19.160  0.0518  2.3342 -1.6547
 3097TIP3   OH233485   1.154   5.408  19.721  0.1603 -0.1362  0.3074
 3097TIP3    H133486   1.170   5.481  19.661 -0.2919 -0.2508  0.0425
 3097TIP3    H233487   1.130   5.450  19.804  0.0221  0.0158  0.1888
 3098TIP3   OH233488   1.588   2.457  19.268 -0.1193 -0.2582 -0.1975
 3098TIP3    H133489   1.538   2.475  19.348 -1.1023 -2.4243 -0.2467
 3098TIP3    H233490   1.585   2.540  19.219 -1.6973  0.3724  0.8661
 3099TIP3   OH233491   2.279   5.348  18.108 -0.3365 -0.1349  0.7140
 3099TIP3    H133492   2.268   5.358  18.014 -1.4507  0.0966  0.8552
 3099TIP3    H233493   2.196   5.379  18.146  0.2182  0.1063  1.7897
 3100TIP3   OH233494   6.713   2.690  17.623  0.2476  0.2280  0.1658
 3100TIP3    H133495   6.632   2.643  17.604  0.1331  0.6996 -0.5521
 3100TIP3    H233496   6.686   2.782  17.631  0.4058  0.1507  1.9360
 3101TIP3   OH233497   1.394   6.514  18.231  0.0649 -0.0025 -0.1345
 3101TIP3    H133498   1.359   6.450  18.293  1.3495  0.2568  0.9059
 3101TIP3    H233499   1.477   6.476  18.202  0.7506  1.0952  0.3527
 3102TIP3   OH233500   7.488   2.086  17.383 -0.1534  0.2019 -0.0456
 3102TIP3    H133501   7.534   2.087  17.299 -1.9465  0.3609 -1.0916
 3102TIP3    H233502   7.551   2.050  17.445  0.5509 -1.9263 -1.8654
 3103TIP3   OH233503   2.112   4.603  18.045 -0.5442 -0.2528  0.6855
 3103TIP3    H133504   2.033   4.599  18.098 -0.1540  0.3199  1.3312
 3103TIP3    H233505   2.183   4.610  18.108  0.0847 -1.4706  0.1306
 3104TIP3   OH233506   2.666   7.263  17.752 -0.0895 -0.4010 -0.5361
 3104TIP3    H133507   2.678   7.183  17.701  0.1121 -0.5862 -0.2024
 3104TIP3    H233508   2.649   7.233  17.841 -0.9225 -0.0865 -0.5827
 3105TIP3   OH233509   5.418   5.848  19.653 -0.4557 -0.8937 -0.0836
 3105TIP3    H133510   5.504   5.857  19.612  0.1472 -0.8913  1.1308
 3105TIP3    H233511   5.409   5.926  19.708 -1.4474 -0.6596 -0.5590
 3106TIP3   OH233512   0.519   6.100  19.238 -0.1533 -0.0149  0.3660
 3106TIP3    H133513   0.431   6.083  19.204 -0.6598  0.9741  1.1366
 3106TIP3    H233514   0.525   6.195  19.245  1.7628  0.0974 -1.6595
 3107TIP3   OH233515   0.614   4.051  18.121 -0.3299  0.4548  0.2701
 3107TIP3    H133516   0.596   3.969  18.075  0.6138 -0.2976  1.1981
 3107TIP3    H233517   0.696   4.035  18.168 -0.3238  1.8099  0.7639
 3108TIP3   OH233518   6.015   0.154  19.197  0.1236  0.1178  0.0704
 3108TIP3    H133519   6.009   0.240  19.155 -1.0082 -0.2995 -0.6532
 3108TIP3    H233520   6.064   0.101  19.134  0.5955  0.1527  0.4038
 3109TIP3   OH233521   3.705   1.443  18.708  0.1621  0.0123 -0.4762
 3109TIP3    H133522   3.702   1.408  18.798  1.8209 -1.1715 -0.8172
 3109TIP3    H233523   3.729   1.535  18.719  0.4134 -0.1373  0.3156
 3110TIP3   OH233524   0.324   5.439  18.913  0.7243 -0.2937  0.0673
 3110TIP3    H133525   0.339   5.468  18.823 -1.7388 -0.5974 -0.5049
 3110TIP3    H233526   0.396   5.478  18.963  1.1609  1.3764 -1.7417
 3111TIP3   OH233527   1.650   2.038  16.848 -0.0194 -0.2578  0.4403
 3111TIP3    H133528   1.568   2.070  16.884  1.1723  2.2590  1.1547
 3111TIP3    H233529   1.693   1.993  16.921  0.7665  1.5985  1.1783
 3112TIP3   OH233530   6.897   6.343  18.025 -0.2685 -0.5165  0.5455
 3112TIP3    H133531   6.825   6.338  17.963 -1.2044 -0.0928  1.5579
 3112TIP3    H233532   6.899   6.257  18.067 -2.4694  0.4251  2.9062
 3113TIP3   OH233533   2.975   5.407  18.993 -0.8332  0.0889  0.0112
 3113TIP3    H133534   2.893   5.417  18.945 -0.0497  1.8699 -1.0763
 3113TIP3    H233535   3.042   5.403  18.925  0.1382  0.7390  0.8975
 3114TIP3   OH233536   5.826   7.538  19.134  0.5392  0.0514 -0.0194
 3114TIP3    H133537   5.762   7.476  19.100  0.4269  0.0807  0.1422
 3114TIP3    H233538   5.838   7.601  19.062 -0.3115  0.5854  0.2832
 3115TIP3   OH233539   7.645   4.672  19.193 -0.0626 -0.2742 -0.8044
 3115TIP3    H133540   7.630   4.716  19.277  0.0055 -1.4764 -0.1391
 3115TIP3    H233541   7.566   4.619  19.180 -0.0115 -0.2005 -1.4326
 3116TIP3   OH233542   0.951   3.683  18.149  0.5873  0.0331  0.3416
 3116TIP3    H133543   0.968   3.717  18.061  1.1209  0.6693  0.6810
 3116TIP3    H233544   0.911   3.756  18.196 -1.5952 -0.9161  0.0709
 3117TIP3   OH233545   0.238   0.702  19.447 -0.8485  0.5861  0.5222
 3117TIP3    H133546   0.223   0.794  19.427 -0.3488  0.3064 -1.3565
 3117TIP3    H233547   0.180   0.654  19.388  1.0034 -0.3142 -0.6897
 3118TIP3   OH233548   7.339   1.782  19.354 -0.2979  0.2288 -0.5021
 3118TIP3    H133549   7.302   1.715  19.411  4.0401 -2.2423 -0.1458
 3118TIP3    H233550   7.329   1.864  19.402 -1.3725 -0.9531  1.3835
 3119TIP3   OH233551   6.552   7.041  17.996  0.1412 -0.3728 -0.1033
 3119TIP3    H133552   6.644   7.015  18.000  0.0503 -0.6780  0.0589
 3119TIP3    H233553   6.508   6.980  18.055  0.1701  1.2543  1.6997
 3120TIP3   OH233554   6.225   4.965  19.403 -0.0808  0.6114  0.3428
 3120TIP3    H133555   6.208   4.938  19.313  0.3168 -2.0267  0.9676
 3120TIP3    H233556   6.151   5.021  19.427 -2.3121 -1.8532 -0.4006
 3121TIP3   OH233557   4.348   7.406  17.428  0.5010  0.2324  0.0882
 3121TIP3    H133558   4.257   7.420  17.404  0.4781 -1.0826 -0.6808
 3121TIP3    H233559   4.395   7.400  17.345  0.7449 -2.3809  0.3509
 3122TIP3   OH233560   0.994   6.929  18.438 -0.0974 -0.1715  0.1017
 3122TIP3    H133561   0.923   6.874  18.405  2.3055 -2.6785 -1.3087
 3122TIP3    H233562   1.006   6.901  18.529  1.7254 -2.9464 -0.8577
 3123TIP3   OH233563   7.397   5.986  19.662 -0.2233  0.0185  0.2756
 3123TIP3    H133564   7.349   5.928  19.721 -0.0845  0.2949  0.6666
 3123TIP3    H233565   7.343   6.065  19.656 -1.3562 -0.8304 -1.7313
 3124TIP3   OH233566   2.649   1.711  17.917  0.3449 -0.0731 -0.3494
 3124TIP3    H133567   2.600   1.792  17.930  0.8126  0.2334 -0.4394
 3124TIP3    H233568   2.650   1.699  17.822 -0.2341 -0.5081 -0.2997
 3125TIP3   OH233569   4.674   3.469  17.710 -0.2790 -0.1028  0.0243
 3125TIP3    H133570   4.655   3.456  17.803 -1.5418 -0.9928 -0.3373
 3125TIP3    H233571   4.624   3.402  17.665  0.6898  0.0056 -1.2898
 3126TIP3   OH233572   0.381   1.565  19.281 -0.1377 -0.3164  0.0907
 3126TIP3    H133573   0.422   1.480  19.299 -0.2944 -0.1264  1.4180
 3126TIP3    H233574   0.451   1.618  19.244 -0.0537 -1.0302 -0.8202
 3127TIP3   OH233575   3.370   1.897  18.816 -0.0850  0.0072  0.5274
 3127TIP3    H133576   3.307   1.919  18.884  1.3020  1.0005  1.5611
 3127TIP3    H233577   3.451   1.940  18.844  0.4566  0.7511 -1.9339
 3128TIP3   OH233578   5.554   7.219  17.717  0.6088  0.7831  0.3951
 3128TIP3    H133579   5.553   7.127  17.743 -0.4114  0.7966  0.4536
 3128TIP3    H233580   5.604   7.220  17.636  1.1650  0.2749  0.7221
 3129TIP3   OH233581   3.298   0.066  18.547  0.0543  0.0770  0.1909
 3129TIP3    H133582   3.205   0.068  18.570 -0.4169 -2.3313 -1.1945
 3129TIP3    H233583   3.341   0.112  18.619 -2.1589  1.1024  0.9619
 3130TIP3   OH233584   4.071   2.826  17.621  0.2161  0.2371  0.4709
 3130TIP3    H133585   3.993   2.770  17.622  0.7933 -0.6211 -0.4350
 3130TIP3    H233586   4.060   2.882  17.545  0.8228 -0.4301 -0.1328
 3131TIP3   OH233587   6.447   5.141  19.451 -0.5092 -0.3284 -0.1063
 3131TIP3    H133588   6.383   5.211  19.435 -0.9048 -0.6889 -0.1331
 3131TIP3    H233589   6.396   5.060  19.443 -0.4176 -0.5788  1.4767
 3132TIP3   OH233590   2.465   6.619  18.322  0.0759 -0.1872  0.2900
 3132TIP3    H133591   2.529   6.603  18.392 -0.6155 -0.0394  0.9651
 3132TIP3    H233592   2.502   6.575  18.246  0.7542 -0.5110  0.7898
 3133TIP3   OH233593   5.324   6.601  17.889  0.1562  0.7218  0.2096
 3133TIP3    H133594   5.262   6.619  17.819 -0.2216 -0.2385  0.2815
 3133TIP3    H233595   5.372   6.683  17.900 -2.7845  2.4185  1.8563
 3134TIP3   OH233596   2.394   1.702  18.225 -0.2479  0.1132 -0.1102
 3134TIP3    H133597   2.427   1.630  18.171 -0.3106 -0.2302  0.2979
 3134TIP3    H233598   2.426   1.781  18.182 -0.7777 -0.1295 -0.9692
 3135TIP3   OH233599   5.540   3.633  18.521 -0.3867  0.6192 -0.0672
 3135TIP3    H133600   5.567   3.602  18.608  0.2067 -0.2861 -0.5568
 3135TIP3    H233601   5.550   3.557  18.465 -1.0109  1.1306 -0.8906
 3136TIP3   OH233602   5.232   5.763  17.678  0.5269  0.1980  0.0134
 3136TIP3    H133603   5.162   5.794  17.735  0.7010  0.6503 -0.0115
 3136TIP3    H233604   5.293   5.837  17.672 -0.0876  0.6258 -1.7465
 3137TIP3   OH233605   2.390   3.169  18.898 -0.0992 -0.2758 -0.5397
 3137TIP3    H133606   2.420   3.190  18.987 -1.1235 -3.4795  0.7262
 3137TIP3    H233607   2.434   3.232  18.842  3.4099 -0.3054  1.8637
 3138TIP3   OH233608   6.960   3.451  19.772 -0.1495  0.5710 -0.0110
 3138TIP3    H133609   6.972   3.545  19.758  0.4754  0.8105  1.7973
 3138TIP3    H233610   6.885   3.446  19.832 -0.2202 -0.0839 -0.1526
 3139TIP3   OH233611   0.426   3.622  16.938 -0.2885 -0.5818 -0.4714
 3139TIP3    H133612   0.501   3.681  16.949 -0.4372 -0.7136  1.6283
 3139TIP3    H233613   0.461   3.549  16.887  0.6032  0.0727 -0.8283
 3140TIP3   OH233614   5.311   0.783  17.273  0.4783  0.0263  0.0304
 3140TIP3    H133615   5.276   0.733  17.200 -1.0313  0.7531  0.2235
 3140TIP3    H233616   5.284   0.873  17.255  1.5029  0.4743  0.6572
 3141TIP3   OH233617   7.180   3.284  19.736  0.0983 -0.4893 -0.1430
 3141TIP3    H133618   7.101   3.334  19.713  0.2323 -0.5987 -0.8852
 3141TIP3    H233619   7.185   3.288  19.831 -1.1946 -1.0817 -0.0377
 3142TIP3   OH233620   1.913   6.714  17.957 -0.1407  0.0946  0.2645
 3142TIP3    H133621   1.958   6.704  18.040  1.1522  0.4603 -0.3626
 3142TIP3    H233622   1.821   6.696  17.977  0.3733 -1.4927  1.4308
 3143TIP3   OH233623   4.728   3.955  19.461  0.6708  0.5318 -0.1221
 3143TIP3    H133624   4.801   4.018  19.457  0.3164  1.1412  1.8378
 3143TIP3    H233625   4.755   3.891  19.526  0.8723 -1.2356 -1.8465
 3144TIP3   OH233626   2.059   1.668  18.721  0.1203  0.3563 -0.1837
 3144TIP3    H133627   2.021   1.604  18.662  1.8025  0.0754 -1.0325
 3144TIP3    H233628   2.087   1.740  18.664 -1.9204  2.0084  0.7670
 3145TIP3   OH233629   4.838   7.151  19.163 -0.1873  0.3954 -0.0563
 3145TIP3    H133630   4.794   7.078  19.120  1.0871 -1.2801  1.3184
 3145TIP3    H233631   4.929   7.143  19.136 -0.0582  1.5983 -0.0050
 3146TIP3   OH233632   6.361   2.544  18.274  0.4753 -0.1181 -0.0987
 3146TIP3    H133633   6.427   2.597  18.318 -0.2911  0.5098  0.3229
 3146TIP3    H233634   6.336   2.478  18.339 -0.5900  0.7530  0.4115
 3147TIP3   OH233635   4.051   2.182  17.074  0.5508 -0.0837 -0.0219
 3147TIP3    H133636   4.065   2.209  17.165 -1.2595 -0.4436  0.4009
 3147TIP3    H233637   4.123   2.123  17.055  0.4625 -0.7275  1.5048
 3148TIP3   OH233638   0.789   1.680  18.508  0.5030  0.1622 -0.4282
 3148TIP3    H133639   0.720   1.672  18.441  0.3064  0.5970 -0.2800
 3148TIP3    H233640   0.755   1.633  18.583  2.4971 -4.2056 -1.9485
 3149TIP3   OH233641   4.859   0.672  19.185 -0.2480 -0.3248 -0.4196
 3149TIP3    H133642   4.768   0.700  19.179 -0.1385 -0.1014 -1.1473
 3149TIP3    H233643   4.874   0.658  19.278 -0.1573  2.6082  0.0986
 3150TIP3   OH233644   6.756   2.570  18.037 -0.6231  0.2299 -0.0550
 3150TIP3    H133645   6.690   2.545  17.973  0.5112 -0.0390 -1.1572
 3150TIP3    H233646   6.803   2.642  17.996  0.4377 -0.2650  0.2712
 3151TIP3   OH233647   1.985   2.800  19.015  0.2472  0.3093  0.1998
 3151TIP3    H133648   1.965   2.746  18.938  0.9408  0.5777 -0.1722
 3151TIP3    H233649   1.992   2.889  18.981 -2.5865  0.9814  1.0419
 3152TIP3   OH233650   1.043   6.050  19.519  0.5345 -0.9737 -0.0674
 3152TIP3    H133651   1.049   5.958  19.494  0.0508 -1.1056  0.3066
 3152TIP3    H233652   1.085   6.054  19.605  0.4051 -0.8748 -0.0095
 3153TIP3   OH233653   2.687   2.386  19.105  0.0978 -0.4665 -0.3564
 3153TIP3    H133654   2.604   2.355  19.068 -0.7633  0.2053  0.9182
 3153TIP3    H233655   2.689   2.348  19.193 -0.3019  1.7795  0.7196
 3154TIP3   OH233656   6.886   0.081  18.051 -0.2494 -0.1594  0.5093
 3154TIP3    H133657   6.794   0.101  18.034 -0.5441 -1.2210  0.7800
 3154TIP3    H233658   6.927   0.078  17.965 -1.2261 -3.1442  0.0315
 3155TIP3   OH233659   3.092   0.424  18.322  0.4869 -0.2755  0.1117
 3155TIP3    H133660   3.179   0.385  18.318  0.8420  0.5586 -0.5694
 3155TIP3    H233661   3.108   0.519  18.324 -0.4392  0.0013 -2.4151
 3156TIP3   OH233662   6.440   6.927  17.706  0.4929  0.0296 -0.5455
 3156TIP3    H133663   6.432   6.999  17.769  2.2510 -1.4556  1.5611
 3156TIP3    H233664   6.495   6.863  17.751 -0.8516 -2.5844 -2.3579
 3157TIP3   OH233665   6.609   6.885  19.118 -1.0302 -0.0066  0.0839
 3157TIP3    H133666   6.658   6.858  19.196  1.2993  1.0333 -0.9126
 3157TIP3    H233667   6.566   6.967  19.144 -1.6947 -0.5634  0.7739
 3158TIP3   OH233668   0.505   4.340  17.438 -0.3027 -0.3449 -0.0617
 3158TIP3    H133669   0.553   4.329  17.520 -0.0250 -1.1127 -0.3132
 3158TIP3    H233670   0.571   4.328  17.370 -0.5162  0.3566 -0.4052
 3159TIP3   OH233671   5.933   4.617  17.350  0.6793 -0.9205 -0.1341
 3159TIP3    H133672   5.887   4.647  17.272 -0.0162 -1.4775  0.0520
 3159TIP3    H233673   5.882   4.542  17.380  0.1310  0.1149  1.6528
 3160TIP3   OH233674   0.664   1.485  17.230  0.1618 -0.3536 -0.6295
 3160TIP3    H133675   0.633   1.572  17.256 -1.6965 -1.1615  0.0156
 3160TIP3    H233676   0.585   1.437  17.209  0.9754 -2.4922  0.8587
 3161TIP3   OH233677   7.494   1.854  18.908 -0.0388  0.3314  0.1637
 3161TIP3    H133678   7.403   1.886  18.902 -0.3169 -0.3005  0.8336
 3161TIP3    H233679   7.528   1.897  18.986 -0.8762 -2.0279  1.9376
 3162TIP3   OH233680   6.385   4.117  17.261 -0.0492  0.7424 -0.4099
 3162TIP3    H133681   6.295   4.152  17.259 -0.3608  0.1294  1.1996
 3162TIP3    H233682   6.438   4.190  17.293 -0.0328  0.9732 -0.9532
 3163TIP3   OH233683   4.959   5.201  18.407 -0.3221  0.5363 -0.7824
 3163TIP3    H133684   4.920   5.114  18.399  0.5056  0.0246  0.5190
 3163TIP3    H233685   4.884   5.261  18.399 -0.6783 -0.1431 -3.5883
 3164TIP3   OH233686   1.392   5.750  18.118 -0.3025 -0.0062 -0.3546
 3164TIP3    H133687   1.459   5.705  18.066 -0.0346 -0.6985  0.5626
 3164TIP3    H233688   1.342   5.801  18.054  0.2242 -0.5717 -1.2373
 3165TIP3   OH233689   6.984   0.999  17.541  0.0159 -0.2984  0.3009
 3165TIP3    H133690   7.039   1.062  17.496 -0.8474 -0.8622 -1.6589
 3165TIP3    H233691   6.897   1.039  17.543 -0.2828 -0.9199  0.1073
 3166TIP3   OH233692   0.525   2.828  16.771  0.5346  0.6393 -0.3190
 3166TIP3    H133693   0.526   2.757  16.835  3.0378 -0.8177 -1.8038
 3166TIP3    H233694   0.453   2.807  16.712 -0.2131  0.6435  0.5759
 3167TIP3   OH233695   2.487   2.748  19.321  0.0706 -0.3663 -0.3160
 3167TIP3    H133696   2.482   2.824  19.263 -0.5980 -0.5877 -0.5598
 3167TIP3    H233697   2.401   2.742  19.361  0.9894  0.7170  1.9527
 3168TIP3   OH233698   0.102   4.862  17.824 -0.1837 -0.2533  0.0821
 3168TIP3    H133699   0.044   4.927  17.864  0.5956  0.8618 -0.5253
 3168TIP3    H233700   0.043   4.791  17.798 -1.2026  0.5919 -0.0172
 3169TIP3   OH233701   1.446   0.374  17.900 -0.1029 -0.4980 -0.0742
 3169TIP3    H133702   1.501   0.319  17.957 -2.3135 -1.2322  1.4923
 3169TIP3    H233703   1.431   0.319  17.823 -2.2173 -2.2129  1.4364
 3170TIP3   OH233704   5.560   2.962  17.547 -0.0868 -0.7682 -0.5977
 3170TIP3    H133705   5.619   3.037  17.559 -0.4804 -0.7452  1.5951
 3170TIP3    H233706   5.484   2.998  17.501  0.1457 -0.0340 -0.4166
 3171TIP3   OH233707   1.025   5.982  19.178  0.0731 -0.0781  0.1185
 3171TIP3    H133708   1.077   5.954  19.253  0.2717 -1.5473 -0.5367
 3171TIP3    H233709   0.937   5.950  19.196 -0.2284  0.8866  0.4115
 3172TIP3   OH233710   2.455   1.047  19.440 -0.2081 -0.3631 -0.0257
 3172TIP3    H133711   2.426   0.983  19.505 -0.8452  1.3380  1.4392
 3172TIP3    H233712   2.528   1.092  19.482 -1.0049  1.1614 -0.2052
 3173TIP3   OH233713   2.025   1.446  18.555  0.1947  0.1812  0.2369
 3173TIP3    H133714   1.933   1.464  18.536 -0.1278 -0.5724  0.9948
 3173TIP3    H233715   2.040   1.358  18.520  0.8429  0.5906 -0.5422
 3174TIP3   OH233716   2.396   2.118  18.723 -0.6629  0.4973  0.1569
 3174TIP3    H133717   2.302   2.136  18.724 -1.1700 -1.8580 -0.3037
 3174TIP3    H233718   2.417   2.099  18.815 -0.7326  0.5301  0.1804
 3175TIP3   OH233719   4.971   0.049  17.946  0.8891  0.2042  0.5445
 3175TIP3    H133720   5.025   0.122  17.917  2.1678 -0.4588  1.1479
 3175TIP3    H233721   4.894   0.090  17.987  0.3501  1.1578 -1.3049
 3176TIP3   OH233722   0.508   2.514  18.985 -0.0224 -0.2471 -0.1853
 3176TIP3    H133723   0.482   2.439  18.932 -0.9020  0.4259 -0.7395
 3176TIP3    H233724   0.572   2.561  18.930 -0.7371  0.3078 -0.5589
 3177TIP3   OH233725   3.017   3.990  17.181  0.7637 -0.1270 -0.7320
 3177TIP3    H133726   3.032   4.071  17.133  0.1603 -0.6010 -1.7576
 3177TIP3    H233727   3.034   3.921  17.117  2.6769 -0.8782  0.5073
 3178TIP3   OH233728   5.980   5.825  17.638 -0.0524  0.4916  0.5469
 3178TIP3    H133729   6.018   5.864  17.560  3.0689  0.6988  2.0223
 3178TIP3    H233730   5.931   5.896  17.679 -2.2332  0.2218 -1.4252
 3179TIP3   OH233731   0.851   2.686  18.255  0.1686 -0.3878  0.0492
 3179TIP3    H133732   0.800   2.617  18.296 -0.5469 -0.5469 -1.0841
 3179TIP3    H233733   0.788   2.737  18.205  0.7602  0.8031  0.4678
 3180TIP3   OH233734   2.175   0.589  18.655  0.6987  0.3438 -0.3400
 3180TIP3    H133735   2.224   0.597  18.737 -2.2330 -0.9141  1.6888
 3180TIP3    H233736   2.116   0.664  18.654  0.0603 -0.1511 -0.8152
 3181TIP3   OH233737   6.722   1.124  18.074 -0.1002  0.5031 -0.7662
 3181TIP3    H133738   6.678   1.155  17.995 -1.0292 -0.6835 -0.7423
 3181TIP3    H233739   6.740   1.032  18.056 -1.6832 -0.2051  0.9571
 3182TIP3   OH233740   7.180   2.058  17.318 -0.4400  0.6134  0.1901
 3182TIP3    H133741   7.141   2.068  17.231  0.3009 -0.6499 -0.3024
 3182TIP3    H233742   7.242   1.986  17.309  4.2191  4.1726  0.2012
 3183TIP3   OH233743   5.510   1.373  18.711 -0.3301  0.4796 -0.3547
 3183TIP3    H133744   5.527   1.360  18.804 -0.1297  2.9748  0.0376
 3183TIP3    H233745   5.416   1.359  18.701 -0.5177  1.0979  0.4381
 3184TIP3   OH233746   5.109   5.320  17.899 -0.7769  0.4070  0.2744
 3184TIP3    H133747   5.175   5.383  17.926  1.8573 -1.9459 -0.1854
 3184TIP3    H233748   5.122   5.244  17.957 -0.5143 -1.5334 -2.1398
 3185TIP3   OH233749   7.051   4.848  19.047  0.6178  0.3129 -0.5023
 3185TIP3    H133750   7.088   4.810  19.126 -0.1289 -0.9134 -0.7215
 3185TIP3    H233751   6.962   4.874  19.072  0.1976 -0.5417 -1.0451
 3186TIP3   OH233752   5.280   5.016  17.007 -0.0116 -0.4451 -0.8411
 3186TIP3    H133753   5.367   5.055  17.008  0.3587 -1.1761 -2.4144
 3186TIP3    H233754   5.242   5.044  16.924 -0.0309 -2.7399 -1.6746
 3187TIP3   OH233755   1.823   3.114  18.669  0.7867 -0.2063  0.9237
 3187TIP3    H133756   1.893   3.175  18.643  0.4600  0.0551  0.6541
 3187TIP3    H233757   1.868   3.030  18.677  0.6222 -0.8018 -2.5775
 3188TIP3   OH233758   2.258   1.442  18.340 -0.4333 -0.1704  0.1297
 3188TIP3    H133759   2.326   1.505  18.362  0.0090 -1.1540  1.7625
 3188TIP3    H233760   2.302   1.357  18.339 -1.4561 -0.7304  0.3446
 3189TIP3   OH233761   1.163   3.289  19.109  0.5538  0.0269 -0.2124
 3189TIP3    H133762   1.123   3.255  19.189 -1.8814 -0.1654 -1.3947
 3189TIP3    H233763   1.253   3.258  19.111  0.4074 -0.4359  2.1555
 3190TIP3   OH233764   6.324   0.357  17.654 -0.6697 -0.2468 -0.3090
 3190TIP3    H133765   6.263   0.376  17.582 -0.9982 -0.2418 -0.0345
 3190TIP3    H233766   6.372   0.279  17.624 -0.8266 -0.2657 -0.5219
 3191TIP3   OH233767   2.522   0.556  17.164  0.2518  0.4545  0.3389
 3191TIP3    H133768   2.516   0.531  17.071  2.5374  2.4598 -0.4443
 3191TIP3    H233769   2.449   0.510  17.205 -0.0561 -1.5995 -2.1890
 3192TIP3   OH233770   1.145   4.873  17.766 -0.3322 -0.2280  0.1062
 3192TIP3    H133771   1.066   4.842  17.722 -0.1991 -0.4149 -0.0070
 3192TIP3    H233772   1.122   4.878  17.858 -0.9156  1.1127 -0.1004
 3193TIP3   OH233773   6.794   3.219  18.737 -0.3106 -0.1577 -0.4939
 3193TIP3    H133774   6.853   3.144  18.729 -0.1945 -0.1737  0.4323
 3193TIP3    H233775   6.727   3.204  18.670 -0.2495 -1.0498 -0.3670
 3194TIP3   OH233776   2.765   4.709  17.203 -0.6504 -0.9553  0.2377
 3194TIP3    H133777   2.725   4.778  17.256 -0.8644 -1.4373  0.7086
 3194TIP3    H233778   2.844   4.684  17.250 -0.3600 -0.7582 -0.1389
 3195TIP3   OH233779   7.610   6.060  18.775  0.1722  0.2910 -0.3487
 3195TIP3    H133780   7.562   6.004  18.714 -0.8493  0.6383  0.1144
 3195TIP3    H233781   7.636   6.136  18.723  3.3561 -1.4025 -1.5456
 3196TIP3   OH233782   1.259   2.092  18.238 -0.5213  0.1708  0.0804
 3196TIP3    H133783   1.181   2.101  18.292 -1.6473 -1.1721 -1.2379
 3196TIP3    H233784   1.325   2.146  18.282 -2.0142  0.9051  1.5236
 3197TIP3   OH233785   6.819   4.642  17.598  0.4420 -0.0322  0.2351
 3197TIP3    H133786   6.811   4.571  17.662  1.8780 -1.9461 -1.5692
 3197TIP3    H233787   6.901   4.686  17.622  1.7821 -1.7064 -1.1140
 3198TIP3   OH233788   1.370   6.890  17.733  0.3691 -0.3667 -0.1003
 3198TIP3    H133789   1.340   6.919  17.647 -0.7058  0.8852  0.6598
 3198TIP3    H233790   1.313   6.936  17.795  2.2821  0.2092  1.3414
 3199TIP3   OH233791   1.250   4.842  19.269 -0.5211  0.6473 -0.2109
 3199TIP3    H133792   1.307   4.773  19.301 -0.9096  0.4557  0.0728
 3199TIP3    H233793   1.203   4.803  19.195 -1.1883  0.4075  0.3326
 3200TIP3   OH233794   5.566   6.506  19.193 -0.7298  0.9020 -0.3161
 3200TIP3    H133795   5.492   6.480  19.138 -0.4196  0.1472 -0.3957
 3200TIP3    H233796   5.623   6.557  19.136  0.0590 -0.6676 -1.0030
 3201TIP3   OH233797   6.473   1.261  16.513 -0.3405 -0.0020  0.2346
 3201TIP3    H133798   6.399   1.239  16.456 -2.8052  0.8233  2.8691
 3201TIP3    H233799   6.484   1.355  16.503 -1.0403  0.2084  1.3580
 3202TIP3   OH233800   3.310   2.732  17.658 -0.3927  0.2866 -0.1597
 3202TIP3    H133801   3.261   2.740  17.740  0.6404  0.2093  0.4783
 3202TIP3    H233802   3.352   2.817  17.647  0.7372 -0.2146  0.2225
 3203TIP3   OH233803   3.713   4.509  19.104 -0.0626 -0.2019  0.1101
 3203TIP3    H133804   3.802   4.499  19.139  0.2147  0.3002 -0.4226
 3203TIP3    H233805   3.679   4.587  19.148 -0.8991 -1.3613  1.6075
 3204TIP3   OH233806   3.062   1.793  18.789  0.6958  0.1829 -0.3129
 3204TIP3    H133807   3.053   1.870  18.732 -0.0542 -1.0691 -1.9641
 3204TIP3    H233808   3.114   1.731  18.738  1.4184 -0.3889  1.0545
 3205TIP3   OH233809   4.398   0.412  18.216  0.0686 -0.4269 -0.5430
 3205TIP3    H133810   4.390   0.323  18.182 -2.3254 -0.8742  0.8960
 3205TIP3    H233811   4.414   0.400  18.310 -1.7151  0.5684 -0.0550
 3206TIP3   OH233812   2.882   0.109  16.783  0.5941  0.1382 -0.1072
 3206TIP3    H133813   2.967   0.110  16.826  1.7710  0.7626 -2.3213
 3206TIP3    H233814   2.825   0.161  16.840  1.0138 -2.0576  2.5421
 3207TIP3   OH233815   2.142   4.376  19.424  0.0321 -0.0741  0.2425
 3207TIP3    H133816   2.166   4.360  19.333  0.9914  0.0362  0.4697
 3207TIP3    H233817   2.052   4.344  19.430 -0.5782  1.2624 -1.1022
 3208TIP3   OH233818   2.200   5.184  19.392 -0.0575  0.3511  0.3865
 3208TIP3    H133819   2.208   5.090  19.405 -0.2812  0.1580 -0.7582
 3208TIP3    H233820   2.118   5.208  19.436  0.0575  0.0416  0.7761
 3209TIP3   OH233821   1.528   1.901  17.938 -0.0907 -0.3392  0.2009
 3209TIP3    H133822   1.460   1.967  17.951  0.8715  0.6219  0.5283
 3209TIP3    H233823   1.543   1.899  17.844  1.5574  1.7227  0.3475
 3210TIP3   OH233824   5.014   2.252  17.226  0.3939 -0.0414  0.5301
 3210TIP3    H133825   5.036   2.177  17.281  1.1672  1.0934  1.8081
 3210TIP3    H233826   4.920   2.242  17.209  0.6048 -1.6346  0.1226
 3211TIP3   OH233827   2.288   6.426  18.034 -0.0659  0.3775  0.4442
 3211TIP3    H133828   2.280   6.503  17.978 -0.3305  0.7682  1.0080
 3211TIP3    H233829   2.372   6.437  18.079  0.2558 -0.0529 -0.0480
 3212TIP3   OH233830   3.260   3.657  18.978 -0.2264 -0.3505  0.0306
 3212TIP3    H133831   3.297   3.741  19.008  1.1951 -1.1435  0.6113
 3212TIP3    H233832   3.250   3.669  18.883 -0.3367  0.5801  0.1429
 3213TIP3   OH233833   1.920   4.251  17.073 -0.5651  0.2282  0.3180
 3213TIP3    H133834   2.003   4.298  17.081 -1.0273  1.1693 -0.2651
 3213TIP3    H233835   1.945   4.161  17.049  0.2499  0.7458 -0.8286
 3214TIP3   OH233836   6.301   6.507  18.548 -0.1211 -0.0704  0.2476
 3214TIP3    H133837   6.316   6.478  18.458  0.6583  1.5972 -0.2129
 3214TIP3    H233838   6.354   6.449  18.602  2.3367  1.1168 -0.7404
 3215TIP3   OH233839   1.813   2.373  18.871  0.3122 -0.0278 -0.1610
 3215TIP3    H133840   1.881   2.307  18.857  1.4469  0.6885  1.5796
 3215TIP3    H233841   1.740   2.325  18.909  0.1817 -0.6524 -1.1611
 3216TIP3   OH233842   7.024   0.955  18.205 -0.0481  0.1715 -0.0853
 3216TIP3    H133843   6.940   0.948  18.251  0.4495 -1.5516  0.6624
 3216TIP3    H233844   7.042   0.865  18.176  1.0269  0.7181 -1.1698
 3217TIP3   OH233845   3.638   5.450  17.714 -0.3457  0.4000  0.3079
 3217TIP3    H133846   3.555   5.419  17.677 -2.2406  1.9059  2.9931
 3217TIP3    H233847   3.670   5.514  17.651 -2.4818  1.5106  0.2625
 3218TIP3   OH233848   2.559   1.142  18.837  0.2201 -0.1835  0.6763
 3218TIP3    H133849   2.604   1.096  18.766  0.5008 -0.9022  1.3166
 3218TIP3    H233850   2.466   1.135  18.813  0.4170  1.7489 -0.9120
 3219TIP3   OH233851   5.310   3.004  17.728 -0.3536  0.2096  0.0051
 3219TIP3    H133852   5.355   2.935  17.681  0.2375 -0.0924  0.9818
 3219TIP3    H233853   5.219   3.000  17.697 -0.6435 -1.8875  0.9768
 3220TIP3   OH233854   0.476   5.716  17.317 -0.3103  0.0765  0.1262
 3220TIP3    H133855   0.545   5.657  17.347  0.9042  1.4813  0.2218
 3220TIP3    H233856   0.406   5.705  17.381  0.5137 -0.1438  1.0244
 3221TIP3   OH233857   3.866   0.694  18.601 -0.1356 -0.2744  0.4969
 3221TIP3    H133858   3.923   0.770  18.616  0.3005 -0.5824  0.4359
 3221TIP3    H233859   3.913   0.643  18.535 -0.8854 -0.1243 -0.1563
 3222TIP3   OH233860   5.736   0.316  18.551 -0.1199 -0.0630 -0.4002
 3222TIP3    H133861   5.771   0.358  18.473 -1.0993  0.9475 -0.3140
 3222TIP3    H233862   5.665   0.373  18.579 -1.5812 -1.8367 -0.3371
 3223TIP3   OH233863   5.944   4.086  18.949  0.1408  0.2069 -0.5749
 3223TIP3    H133864   6.018   4.062  19.005 -1.1550 -0.9842  0.7118
 3223TIP3    H233865   5.866   4.056  18.998 -1.1880  1.3086 -1.9241
 3224TIP3   OH233866   5.628   7.399  18.936  0.4280 -0.2626  0.3138
 3224TIP3    H133867   5.586   7.447  18.865  0.5903  0.0837  0.4513
 3224TIP3    H233868   5.566   7.330  18.959 -0.3199  0.6003  0.9117
 3225TIP3   OH233869   1.016   2.907  17.215  0.3705 -0.7090  0.0227
 3225TIP3    H133870   0.922   2.904  17.236 -0.0633 -1.6500 -1.9011
 3225TIP3    H233871   1.054   2.955  17.289 -2.1541  3.3381 -0.9677
 3226TIP3   OH233872   5.507   3.583  17.588 -0.5400  0.4062  0.0903
 3226TIP3    H133873   5.497   3.671  17.624 -0.5023 -0.2489  1.8011
 3226TIP3    H233874   5.600   3.562  17.600 -0.7816 -0.3055  0.7974
 3227TIP3   OH233875   6.238   0.762  18.312 -0.8142  0.4741  0.1317
 3227TIP3    H133876   6.220   0.694  18.246  1.2627  1.2531 -1.3468
 3227TIP3    H233877   6.276   0.715  18.386 -2.5160 -0.3280  0.5505
 3228TIP3   OH233878   6.793   6.827  18.037  0.8033 -0.7174 -0.3804
 3228TIP3    H133879   6.803   6.894  18.104 -0.5774 -0.6794 -0.1849
 3228TIP3    H233880   6.838   6.750  18.073  0.1519 -0.6723  0.5591
 3229TIP3   OH233881   6.038   0.141  17.550 -0.5206  0.1680  0.0825
 3229TIP3    H133882   6.026   0.124  17.456 -0.0653  1.9140 -0.3389
 3229TIP3    H233883   5.989   0.072  17.593 -0.2958 -0.9968 -1.4398
 3230TIP3   OH233884   1.148   4.426  18.915  0.0864 -0.4041 -0.2242
 3230TIP3    H133885   1.091   4.364  18.961  0.5318 -0.4229  0.3242
 3230TIP3    H233886   1.158   4.389  18.827  1.0404 -1.5860  0.3520
 3231TIP3   OH233887   1.216   3.084  17.103  0.1473 -0.0594 -0.4684
 3231TIP3    H133888   1.140   3.041  17.142  0.2660  0.0219 -0.1391
 3231TIP3    H233889   1.182   3.163  17.063 -0.2816 -1.0728 -2.1937
 3232TIP3   OH233890   7.231   4.177  17.453  0.1395 -0.2246 -0.2247
 3232TIP3    H133891   7.140   4.189  17.425 -0.0634 -1.4327 -0.1528
 3232TIP3    H233892   7.277   4.254  17.419 -0.9507  0.5371 -0.0434
 3233TIP3   OH233893   5.682   5.226  17.351 -0.7604 -0.7128 -0.2933
 3233TIP3    H133894   5.696   5.158  17.284  1.0160 -2.2572  1.4973
 3233TIP3    H233895   5.623   5.186  17.415 -0.2974 -0.3056  0.4070
 3234TIP3   OH233896   0.985   4.826  19.674  0.4660 -0.8596 -0.3857
 3234TIP3    H133897   1.008   4.883  19.747  1.8609 -1.4911 -0.2793
 3234TIP3    H233898   1.052   4.757  19.676  0.4479 -0.9819 -2.1611
 3235TIP3   OH233899   2.088   1.271  18.856 -0.0622 -0.1814 -0.0634
 3235TIP3    H133900   2.000   1.243  18.830  0.4267 -0.1898 -1.8225
 3235TIP3    H233901   2.073   1.350  18.908 -1.1515 -0.7421  0.5225
 3236TIP3   OH233902   3.116   6.293  17.416 -0.3271 -0.1884 -0.8469
 3236TIP3    H133903   3.035   6.287  17.365  0.5852 -0.6613 -2.3132
 3236TIP3    H233904   3.104   6.231  17.488 -1.0902 -0.5874 -1.3023
 3237TIP3   OH233905   5.855   2.048  18.121 -0.2418 -0.0395 -0.4668
 3237TIP3    H133906   5.938   2.045  18.073 -1.2317 -1.5568 -2.2560
 3237TIP3    H233907   5.880   2.061  18.212  2.0170 -1.1133 -0.8603
 3238TIP3   OH233908   6.048   0.985  19.350 -0.1757 -0.1319  0.2005
 3238TIP3    H133909   6.049   1.056  19.414 -1.0185  0.1381 -0.0736
 3238TIP3    H233910   6.139   0.978  19.321  0.3059 -0.5314  1.7026
 3239TIP3   OH233911   2.075   4.256  18.605  0.7077  0.3106  0.9188
 3239TIP3    H133912   1.989   4.266  18.564  0.9172  1.3133  0.6991
 3239TIP3    H233913   2.122   4.195  18.548  0.8955  1.4684 -0.2073
 3240TIP3   OH233914   0.317   0.590  18.421 -0.8036 -0.5197  0.1058
 3240TIP3    H133915   0.352   0.593  18.510 -1.1752 -2.2893  0.3586
 3240TIP3    H233916   0.394   0.583  18.365 -0.6285 -1.8579  0.4857
 3241TIP3   OH233917   5.373   4.969  18.371 -0.1413 -0.3359  0.9904
 3241TIP3    H133918   5.306   4.950  18.305 -0.8668  0.5742  1.4250
 3241TIP3    H233919   5.421   4.888  18.382 -0.7206 -0.8050  0.1319
 3242TIP3   OH233920   4.270   2.604  17.611  0.3844  0.3511  0.2538
 3242TIP3    H133921   4.178   2.625  17.599 -0.3130 -1.5771  1.7137
 3242TIP3    H233922   4.282   2.522  17.563  0.7495 -0.5621  1.8412
 3243TIP3   OH233923   4.959   4.175  18.866 -0.0269  0.2694  0.0738
 3243TIP3    H133924   4.897   4.133  18.806  0.0873  0.4684 -0.1851
 3243TIP3    H233925   5.011   4.234  18.810  2.3915 -2.0182 -0.3295
 3244TIP3   OH233926   5.176   2.579  18.824 -0.4400 -0.1750 -0.0317
 3244TIP3    H133927   5.145   2.634  18.751  0.7052  0.2029 -0.2458
 3244TIP3    H233928   5.152   2.628  18.903  0.4789  0.6152 -0.2188
 3245TIP3   OH233929   0.714   2.993  19.854  0.0092  0.0101  0.0330
 3245TIP3    H133930   0.731   3.009  19.947 -2.2633  2.5347  0.1347
 3245TIP3    H233931   0.780   3.045  19.808  0.0041  0.2264  0.2666
 3246TIP3   OH233932   2.916   2.341  17.516 -0.1397 -0.1897  0.5627
 3246TIP3    H133933   2.832   2.313  17.553 -0.3878  0.2566  0.3444
 3246TIP3    H233934   2.927   2.289  17.437 -1.3206  1.3417 -0.6688
 3247TIP3   OH233935   5.423   0.690  18.414  0.2196  0.2295 -0.3509
 3247TIP3    H133936   5.428   0.771  18.362  2.7801  0.2279 -0.2138
 3247TIP3    H233937   5.405   0.720  18.503 -1.0256  0.4581 -0.6584
 3248TIP3   OH233938   1.689   7.117  19.482 -0.1785 -0.0314  0.0092
 3248TIP3    H133939   1.692   7.211  19.468  0.5845 -0.2909 -1.8760
 3248TIP3    H233940   1.771   7.084  19.443  0.0421 -1.3761  1.5116
 3249TIP3   OH233941   6.004   6.675  17.964 -0.5277  0.4854 -0.0459
 3249TIP3    H133942   6.008   6.764  17.930 -0.3105 -0.5926 -3.1496
 3249TIP3    H233943   5.927   6.636  17.922 -0.5211 -0.8775  1.0984
 3250TIP3   OH233944   1.913   0.577  19.212  0.2836  0.1982  0.2834
 3250TIP3    H133945   1.822   0.575  19.240 -0.2864  0.8828 -1.3518
 3250TIP3    H233946   1.936   0.486  19.197 -0.7774  0.1075 -1.0772
 3251TIP3   OH233947   0.056   3.722  19.333  0.2383 -0.2590 -0.3897
 3251TIP3    H133948   0.108   3.675  19.398 -0.3367 -0.1637  0.1431
 3251TIP3    H233949   0.021   3.654  19.276  1.7984 -0.2589 -1.4128
 3252TIP3   OH233950   0.996   0.842  18.068 -0.1274 -0.2338  0.4418
 3252TIP3    H133951   1.068   0.797  18.024 -0.6096  0.3720 -1.0377
 3252TIP3    H233952   0.918   0.813  18.021 -0.6596  0.4445  0.8944
 3253TIP3   OH233953   7.049   0.903  18.693 -0.1629  0.6145  0.0102
 3253TIP3    H133954   7.040   0.809  18.706 -2.4559  0.8751  0.9943
 3253TIP3    H233955   7.110   0.913  18.621 -1.1520 -1.6891 -1.2355
 3254TIP3   OH233956   4.041   0.143  16.756 -0.0532  0.1111 -0.0245
 3254TIP3    H133957   4.017   0.157  16.665  1.5320 -0.9512 -0.6683
 3254TIP3    H233958   4.101   0.215  16.777  0.7432 -0.4370 -0.3344
 3255TIP3   OH233959   6.545   6.571  19.364 -0.1895  0.2106 -1.0521
 3255TIP3    H133960   6.475   6.582  19.300 -2.5427 -1.4468  1.0485
 3255TIP3    H233961   6.516   6.499  19.420  2.7594  0.1064  0.5690
 3256TIP3   OH233962   6.950   4.828  17.065  0.2724  0.3819 -0.5976
 3256TIP3    H133963   7.014   4.816  16.995 -0.5735  0.2233 -1.3602
 3256TIP3    H233964   6.904   4.909  17.042  0.4250  0.6925  0.1379
 3257TIP3   OH233965   6.701   7.481  17.134  0.0525  0.1217  0.0617
 3257TIP3    H133966   6.777   7.423  17.145  0.6704  0.6578 -1.2000
 3257TIP3    H233967   6.710   7.516  17.046 -1.1388  0.9712  0.2540
 3258TIP3   OH233968   3.901   0.261  19.040  0.2067  0.1364  0.0305
 3258TIP3    H133969   3.972   0.310  18.999  0.4908  0.2187  0.6114
 3258TIP3    H233970   3.841   0.240  18.968  0.8562 -0.0050 -0.4736
 3259TIP3   OH233971   7.000   1.237  17.130  0.4682  0.2497 -0.0097
 3259TIP3    H133972   7.063   1.304  17.102  2.5351 -0.7288  1.9980
 3259TIP3    H233973   6.952   1.278  17.201  0.2204  0.3208 -0.2170
 3260TIP3   OH233974   0.772   4.868  19.390  0.4181 -0.2295 -0.2629
 3260TIP3    H133975   0.830   4.922  19.337  0.1148  0.9434  0.5667
 3260TIP3    H233976   0.700   4.845  19.331  0.6555  0.1000 -0.6860
 3261TIP3   OH233977   3.056   6.120  17.606  0.0405  0.0540 -0.0776
 3261TIP3    H133978   3.060   6.025  17.617 -0.2391 -0.0180 -0.5250
 3261TIP3    H233979   3.046   6.154  17.694  0.9192 -0.2838  0.1593
 3262TIP3   OH233980   1.771   1.167  18.512  0.1705 -0.2996  0.4399
 3262TIP3    H133981   1.705   1.183  18.445 -0.0534 -1.0076  0.4899
 3262TIP3    H233982   1.855   1.179  18.467  0.0162 -0.3942  0.1298
 3263TIP3   OH233983   4.504   6.881  17.505 -0.6418  0.5493  0.2095
 3263TIP3    H133984   4.442   6.862  17.435 -2.0074 -0.7072  1.6822
 3263TIP3    H233985   4.491   6.974  17.524 -0.6579  0.7666 -0.7921
 3264TIP3   OH233986   7.251   2.976  18.900  0.3953 -0.1749  0.4274
 3264TIP3    H133987   7.239   3.001  18.809  0.8074  1.5585  0.7990
 3264TIP3    H233988   7.185   2.908  18.916 -1.2131  1.0667 -0.5799
 3265TIP3   OH233989   5.392   3.318  18.531 -0.1273  0.1479  0.5301
 3265TIP3    H133990   5.405   3.270  18.450 -0.2312  1.7325 -0.4731
 3265TIP3    H233991   5.297   3.331  18.537 -0.3376 -1.6223  1.9529
 3266TIP3   OH233992   1.487   1.009  16.665 -0.1561  0.0448  0.1816
 3266TIP3    H133993   1.435   1.000  16.745 -0.8748 -0.9280 -0.3718
 3266TIP3    H233994   1.422   1.015  16.595  0.4569 -1.4440 -0.5546
 3267TIP3   OH233995   3.360   3.077  18.086 -0.3112  0.0288  0.2500
 3267TIP3    H133996   3.446   3.063  18.046 -0.7612 -0.3623 -0.5995
 3267TIP3    H233997   3.310   3.126  18.021 -0.6729  0.4250  0.8143
 3268TIP3   OH233998   5.305   2.132  17.406 -0.1937 -0.3948 -0.2934
 3268TIP3    H133999   5.220   2.089  17.398 -0.2604 -0.8535  2.0960
 3268TIP3    H234000   5.285   2.224  17.417 -0.5780 -0.6992  2.0803
 3269TIP3   OH234001   3.829   0.275  16.182 -0.3392  0.0946 -1.1077
 3269TIP3    H134002   3.917   0.306  16.158 -0.8300  1.8419 -0.7927
 3269TIP3    H234003   3.805   0.328  16.258 -1.6421 -0.4110 -1.1421
 3270TIP3   OH234004   4.343   3.720  18.250 -0.2011 -0.3933  0.1544
 3270TIP3    H134005   4.429   3.729  18.209  0.0704 -0.8380  0.6162
 3270TIP3    H234006   4.362   3.688  18.338 -0.7794  0.4293  0.5907
 3271TIP3   OH234007   0.029   2.947  16.997 -0.4764 -0.3742  0.5855
 3271TIP3    H134008  -0.004   3.028  17.037 -1.6959 -0.0528 -0.9802
 3271TIP3    H234009  -0.032   2.929  16.925  0.8176 -1.7033 -0.2301
 3272TIP3   OH234010   5.477   0.103  17.759  0.0971 -0.4537  0.1857
 3272TIP3    H134011   5.382   0.098  17.754 -0.0327  0.9317  0.6743
 3272TIP3    H234012   5.501   0.045  17.832 -0.4352 -0.3185  0.4720
 3273TIP3   OH234013   3.971   3.343  19.425 -0.1489  0.2405 -0.4231
 3273TIP3    H134014   3.912   3.419  19.420 -0.5751 -0.1355 -1.3869
 3273TIP3    H234015   4.049   3.372  19.377 -0.1339  0.2254 -0.4083
 3274TIP3   OH234016   2.202   0.608  18.220 -0.3683  0.6627 -0.2957
 3274TIP3    H134017   2.213   0.699  18.190 -0.0642  0.5108 -0.6482
 3274TIP3    H234018   2.238   0.555  18.149  0.6101  0.3038  0.4393
 3275TIP3   OH234019   2.665   3.151  19.363 -0.3474 -0.2566  0.0597
 3275TIP3    H134020   2.599   3.215  19.391  0.2361  0.7805 -0.8710
 3275TIP3    H234021   2.642   3.071  19.412 -2.1730  0.1202 -0.0915
 3276TIP3   OH234022   6.396   4.688  19.530 -0.2260  0.1656 -0.1071
 3276TIP3    H134023   6.336   4.750  19.488  0.5627  0.9637 -0.0686
 3276TIP3    H234024   6.478   4.735  19.539  1.0594 -1.5359 -1.9785
 3277TIP3   OH234025   0.005   2.753  17.903 -0.0613  0.3638 -0.2808
 3277TIP3    H134026  -0.034   2.732  17.818 -0.4027 -0.0226 -0.0307
 3277TIP3    H234027   0.015   2.848  17.902 -0.3390  0.3910 -0.6365
 3278TIP3   OH234028   6.585   3.050  17.080 -0.2221  0.1887  0.2163
 3278TIP3    H134029   6.532   3.088  17.010 -0.3494 -0.5186 -0.0808
 3278TIP3    H234030   6.633   3.124  17.117 -2.8566  1.2133  1.8068
 3279TIP3   OH234031   2.678   1.537  18.903  0.0046  0.0581  0.9129
 3279TIP3    H134032   2.739   1.464  18.917 -1.0662 -0.6325  2.2196
 3279TIP3    H234033   2.593   1.503  18.931 -0.8513  1.2551 -0.1307
 3280TIP3   OH234034   0.149   3.165  17.578 -0.2081  0.2922 -0.1365
 3280TIP3    H134035   0.084   3.141  17.512 -0.9186 -0.8235  0.9391
 3280TIP3    H234036   0.105   3.229  17.633 -0.3671 -0.3557  0.5073
 3281TIP3   OH234037   4.343   6.472  17.696  0.2662 -0.2110 -0.2242
 3281TIP3    H134038   4.291   6.493  17.619  1.2578 -0.9537 -1.1307
 3281TIP3    H234039   4.398   6.549  17.710 -0.5345  0.2804  0.2971
 3282TIP3   OH234040   7.381   0.987  18.733 -0.2318  0.0078 -0.2009
 3282TIP3    H134041   7.311   0.986  18.667  0.1292 -0.2891 -0.5825
 3282TIP3    H234042   7.386   0.896  18.762  1.1275 -0.3468 -1.3936
 3283TIP3   OH234043   6.625   3.607  17.220  0.2196 -0.0829 -0.1036
 3283TIP3    H134044   6.655   3.552  17.293  0.1133 -0.2986 -0.2209
 3283TIP3    H234045   6.585   3.683  17.263  1.3324  0.4286  0.0453
 3284TIP3   OH234046   0.497   3.811  18.972 -0.3182 -0.3104 -0.3310
 3284TIP3    H134047   0.533   3.796  19.059  0.4646 -0.7500 -0.7226
 3284TIP3    H234048   0.405   3.787  18.980 -0.6666  1.2289  0.7907
 3285TIP3   OH234049   2.025   5.378  17.407 -0.5144  0.4390  0.3023
 3285TIP3    H134050   1.953   5.337  17.454 -1.0746  0.3738 -0.5748
 3285TIP3    H234051   1.983   5.425  17.335  0.0592  2.8294  1.4152
 3286TIP3   OH234052   3.541   0.556  17.076  0.1857  0.2792  0.3270
 3286TIP3    H134053   3.548   0.608  16.996  1.3034  0.3360  0.4357
 3286TIP3    H234054   3.475   0.601  17.129  0.5088  1.0875  0.0531
 3287TIP3   OH234055   7.347   6.864  17.545  0.1103  0.1418  0.3650
 3287TIP3    H134056   7.415   6.927  17.522  2.1090 -2.1673 -0.5516
 3287TIP3    H234057   7.299   6.850  17.463  0.4894 -0.4193  0.2318
 3288TIP3   OH234058   6.018   2.290  18.085  0.4736 -0.2244 -0.0480
 3288TIP3    H134059   6.068   2.209  18.095  0.2896 -0.4381 -0.7987
 3288TIP3    H234060   5.926   2.263  18.094  0.4148 -0.0947 -0.2513
 3289TIP3   OH234061   0.313   1.165  18.249 -0.1030 -0.7691  0.2406
 3289TIP3    H134062   0.385   1.229  18.248  0.0845 -0.8247  2.9444
 3289TIP3    H234063   0.350   1.088  18.293 -1.3324 -1.4179  0.1668
 3290TIP3   OH234064   5.585   3.539  16.692 -0.1137 -0.1066  0.2042
 3290TIP3    H134065   5.558   3.584  16.773 -0.0069  0.7201 -0.2063
 3290TIP3    H234066   5.681   3.542  16.694 -0.0934 -0.7267  0.3901
 3291TIP3   OH234067   1.980   1.692  19.450 -0.0779  0.5742 -0.4386
 3291TIP3    H134068   1.945   1.717  19.536  2.1124  1.0524  0.3735
 3291TIP3    H234069   2.006   1.775  19.410  1.2382  0.1574 -0.4778
 3292TIP3   OH234070   2.896   2.668  18.312 -0.0607 -0.6888  0.3096
 3292TIP3    H134071   2.832   2.600  18.330 -0.1661 -0.5644  0.4051
 3292TIP3    H234072   2.948   2.674  18.392  0.0332 -0.7501  0.2537
 3293TIP3   OH234073   4.927   3.332  17.428  0.1157  0.4524 -0.1523
 3293TIP3    H134074   5.001   3.274  17.407  0.0487  0.6058 -0.8336
 3293TIP3    H234075   4.849   3.281  17.407  0.0184  0.1809  0.8561
 3294TIP3   OH234076   0.928   3.628  16.659  0.2016 -0.6783 -0.2124
 3294TIP3    H134077   0.870   3.601  16.587 -0.6017 -0.3579  0.2990
 3294TIP3    H234078   0.961   3.546  16.694 -1.3165 -0.9922  0.5866
 3295TIP3   OH234079   2.353   4.194  19.423 -0.2834  0.1496  0.2442
 3295TIP3    H134080   2.406   4.247  19.483 -0.5427  0.5763  0.1041
 3295TIP3    H234081   2.268   4.237  19.422  0.4191  1.7305 -2.3835
 3296TIP3   OH234082   4.573   2.704  17.197  0.6072  0.4135  0.2697
 3296TIP3    H134083   4.502   2.649  17.163  0.8287  0.3273 -0.0567
 3296TIP3    H234084   4.603   2.753  17.121  1.2710  0.0436  0.2880
 3297TIP3   OH234085   1.178   3.725  16.652 -0.6989 -0.2604 -0.0440
 3297TIP3    H134086   1.085   3.703  16.650 -0.8546  0.4202 -1.8143
 3297TIP3    H234087   1.211   3.699  16.566  0.7039 -0.2714  0.4757
 3298TIP3   OH234088   1.505   0.058  18.591 -0.5094  0.4635  0.4373
 3298TIP3    H134089   1.552   0.112  18.654 -0.3446  0.4576  0.3193
 3298TIP3    H234090   1.434   0.018  18.641  1.7653 -2.5156  1.5877
 3299TIP3   OH234091   0.159   2.477  18.197 -0.3910  0.2960  0.6670
 3299TIP3    H134092   0.182   2.469  18.105  0.4985 -1.0767  0.9808
 3299TIP3    H234093   0.190   2.396  18.237 -1.4598  0.5199  2.0374
 3300TIP3   OH234094   2.770   7.514  17.728 -0.5618  0.7348 -0.8545
 3300TIP3    H134095   2.701   7.577  17.749  0.2674  1.5281 -0.4645
 3300TIP3    H234096   2.732   7.429  17.751 -1.4719  1.1333 -0.8231
 3301TIP3   OH234097   1.702   6.548  19.427  0.0946  0.0886 -0.8159
 3301TIP3    H134098   1.663   6.585  19.347 -3.9618 -1.2637  0.3157
 3301TIP3    H234099   1.686   6.614  19.494  1.0614  0.0818 -0.5721
 3302TIP3   OH234100   3.210   0.114  17.326  0.1217 -1.0605 -0.5612
 3302TIP3    H134101   3.207   0.071  17.241  3.4424 -1.6996 -0.4748
 3302TIP3    H234102   3.249   0.200  17.308 -1.8643  0.0050 -0.0366
 3303TIP3   OH234103   4.663   2.418  18.496  0.3124  0.1610 -0.0117
 3303TIP3    H134104   4.586   2.363  18.514 -2.3352  3.1626 -1.1569
 3303TIP3    H234105   4.679   2.463  18.579 -0.2188  0.6530 -0.1635
 3304TIP3   OH234106   3.307   5.119  16.881  0.0360 -0.2067 -0.0757
 3304TIP3    H134107   3.371   5.100  16.950  0.5767 -0.7209 -0.7146
 3304TIP3    H234108   3.358   5.162  16.813 -0.2273 -0.9674 -0.7556
 3305TIP3   OH234109   4.141   3.874  17.692 -0.1965 -0.0758 -0.4296
 3305TIP3    H134110   4.082   3.909  17.625 -0.2451  1.8076  0.5375
 3305TIP3    H234111   4.084   3.826  17.752 -0.2471 -1.1388 -1.2811
 3306TIP3   OH234112   4.039   4.657  18.845  0.1288 -0.0347 -0.4819
 3306TIP3    H134113   3.980   4.710  18.899  0.5418  1.1557 -1.1541
 3306TIP3    H234114   3.992   4.647  18.762  1.5707  2.5458 -1.7220
 3307TIP3   OH234115   6.724   6.114  16.827 -0.4834 -0.5339 -0.1383
 3307TIP3    H134116   6.743   6.197  16.871  1.5446 -0.8012 -0.3888
 3307TIP3    H234117   6.681   6.140  16.745  0.3827  0.3234 -0.3456
 3308TIP3   OH234118   1.800   0.260  17.803 -0.1314  0.4088  0.2852
 3308TIP3    H134119   1.745   0.253  17.881  0.8289  0.9104  1.0206
 3308TIP3    H234120   1.862   0.187  17.810  0.1436  0.6275  0.1396
 3309TIP3   OH234121   0.313   5.890  18.450 -0.4780  0.1397  0.0454
 3309TIP3    H134122   0.264   5.971  18.442 -0.5792 -0.0381 -1.3732
 3309TIP3    H234123   0.271   5.843  18.523  0.8818  2.2056  2.3215
 3310TIP3   OH234124   4.438   3.096  18.068  0.1292 -0.5131  0.1701
 3310TIP3    H134125   4.388   3.067  18.144 -1.2268 -0.1228 -0.5380
 3310TIP3    H234126   4.503   3.027  18.054  0.2308 -0.7173  1.5012
 3311TIP3   OH234127   3.763   6.792  18.023 -0.2149  0.3142  0.1553
 3311TIP3    H134128   3.815   6.783  17.943  0.3952 -2.0310  0.7459
 3311TIP3    H234129   3.674   6.807  17.991  0.2749  1.1429 -0.9013
 3312TIP3   OH234130   5.850   4.892  17.848 -0.0961 -0.7673 -0.2531
 3312TIP3    H134131   5.818   4.878  17.937 -3.0339  1.6678 -0.7664
 3312TIP3    H234132   5.897   4.975  17.852  0.2041 -0.9012 -0.8810
 3313TIP3   OH234133   5.668   6.448  18.132  0.4272  0.2574 -0.1182
 3313TIP3    H134134   5.664   6.544  18.142 -1.6317  0.2677 -0.5972
 3313TIP3    H234135   5.579   6.423  18.110 -0.1658 -2.2817  4.1088
 3314TIP3   OH234136   3.017   0.559  17.681 -0.0979  0.4978  0.1277
 3314TIP3    H134137   3.096   0.612  17.670  1.1055 -1.4263 -1.0623
 3314TIP3    H234138   3.026   0.489  17.617 -1.0320 -1.8047  2.3465
 3315TIP3   OH234139   0.542   5.524  17.861 -0.2409 -0.1936  0.2796
 3315TIP3    H134140   0.620   5.579  17.866  0.1726 -0.4703 -1.9819
 3315TIP3    H234141   0.571   5.444  17.816 -1.9754  0.0897 -1.4951
 3316TIP3   OH234142   3.030   0.796  16.779 -0.2180 -0.2862  0.2515
 3316TIP3    H134143   3.089   0.762  16.712 -0.4913 -2.6481  1.1356
 3316TIP3    H234144   3.087   0.840  16.842  0.2813 -0.2023 -0.2530
 3317TIP3   OH234145   7.527   3.681  17.540  0.4291  0.1892  0.5388
 3317TIP3    H134146   7.450   3.638  17.577  0.1921  1.4241  1.5636
 3317TIP3    H234147   7.495   3.766  17.510  0.7532 -0.5159 -2.0390
 3318TIP3   OH234148   0.421   2.992  18.969 -0.3109  0.6976 -0.3458
 3318TIP3    H134149   0.376   2.936  19.032 -0.7803 -2.1966 -3.0440
 3318TIP3    H234150   0.358   3.062  18.950 -1.4961 -0.2554 -0.0596
 3319TIP3   OH234151   4.723   2.553  17.379  0.2143  0.2878 -0.4127
 3319TIP3    H134152   4.667   2.482  17.408  0.0590 -0.2013 -1.8460
 3319TIP3    H234153   4.671   2.601  17.314  0.3127  1.7414  0.5169
 3320TIP3   OH234154   7.039   4.535  16.816  0.0235  0.1946 -0.4109
 3320TIP3    H134155   6.976   4.558  16.884  0.1287  0.6008 -0.4508
 3320TIP3    H234156   7.006   4.453  16.780 -0.0724  0.0112  0.0820
 3321TIP3   OH234157   7.251   1.561  17.833 -0.1282 -0.4663  0.7017
 3321TIP3    H134158   7.291   1.484  17.792  0.3687 -0.6838  1.5816
 3321TIP3    H234159   7.248   1.540  17.926  0.3579  0.7311  1.0056
 3322TIP3   OH234160   3.207   2.445  17.398 -0.1896 -0.3312 -0.4605
 3322TIP3    H134161   3.224   2.514  17.333  0.7966 -1.1761 -1.1258
 3322TIP3    H234162   3.171   2.373  17.346  2.9627 -1.9747 -0.5615
 3323TIP3   OH234163   7.480   5.042  17.284 -0.2400 -0.2978 -0.5599
 3323TIP3    H134164   7.425   5.096  17.341 -1.6671 -0.3244 -1.8325
 3323TIP3    H234165   7.421   4.972  17.254  1.0859 -1.5557 -0.3316
 3324TIP3   OH234166   7.049   6.902  17.928 -0.0710 -0.3653 -0.2781
 3324TIP3    H134167   7.077   6.853  18.006 -1.2822 -0.2315  0.2512
 3324TIP3    H234168   6.956   6.885  17.921  0.0545 -0.5325 -1.8365
 3325TIP3   OH234169   2.030   3.268  18.632 -0.2128  0.1435 -0.0041
 3325TIP3    H134170   2.012   3.351  18.589  2.2691  0.3850 -0.7187
 3325TIP3    H234171   2.042   3.291  18.724 -1.6355  0.2009  0.1994
 3326TIP3   OH234172   4.363   0.151  18.110  0.2553 -0.1021  0.1101
 3326TIP3    H134173   4.427   0.079  18.111  0.4625  0.0761  1.0234
 3326TIP3    H234174   4.278   0.107  18.108  0.2914 -0.4964  2.8824
 3327TIP3   OH234175   5.991   0.060  19.450  0.2758  0.1909 -0.4483
 3327TIP3    H134176   5.951   0.139  19.485  0.3020 -0.0891  0.2298
 3327TIP3    H234177   5.998   0.076  19.356 -1.6858  0.1404 -0.6334
 3328TIP3   OH234178   0.644   7.459  17.710  0.9186 -1.2752 -0.1470
 3328TIP3    H134179   0.655   7.408  17.791  0.7390 -2.6046 -0.9233
 3328TIP3    H234180   0.733   7.483  17.685  0.9071  0.0615  0.9782
 3329TIP3   OH234181   2.525   3.041  19.155 -1.0914 -0.1283 -0.2897
 3329TIP3    H134182   2.551   3.109  19.217  1.2175 -1.6018  0.4758
 3329TIP3    H234183   2.599   3.035  19.095 -1.2590 -1.9295 -0.3551
 3330TIP3   OH234184   6.139   4.500  18.591 -0.0237  0.3445  0.3725
 3330TIP3    H134185   6.100   4.565  18.533 -0.2060 -0.4762 -0.4495
 3330TIP3    H234186   6.166   4.549  18.668 -0.2934  1.3639 -0.1695
 3331TIP3   OH234187   1.757   1.827  19.565  0.5749 -0.1921  0.0381
 3331TIP3    H134188   1.671   1.815  19.604  0.8651  0.1265  0.8116
 3331TIP3    H234189   1.743   1.816  19.471 -0.6457  1.5901 -0.0393
 3332TIP3   OH234190   4.179   6.377  18.266 -0.6719 -0.1163 -0.4434
 3332TIP3    H134191   4.136   6.291  18.267 -1.5662  0.3001 -1.2034
 3332TIP3    H234192   4.180   6.405  18.357 -0.2272 -0.9958 -0.1680
 3333TIP3   OH234193   5.610   5.571  18.930 -0.0704  0.3512  0.0139
 3333TIP3    H134194   5.555   5.648  18.942 -1.8828 -1.1033  1.9390
 3333TIP3    H234195   5.568   5.503  18.983  2.7538 -1.3341  0.3173
 3334TIP3   OH234196   5.609   0.818  19.422 -0.4264  0.0610 -0.4556
 3334TIP3    H134197   5.533   0.759  19.422 -0.8531  0.5626 -1.9271
 3334TIP3    H234198   5.685   0.760  19.419 -0.6437 -0.4939  2.2908
 3335TIP3   OH234199   5.188   1.438  17.720  0.3094 -0.1933 -0.0773
 3335TIP3    H134200   5.228   1.430  17.634  1.8386 -1.2542  0.6797
 3335TIP3    H234201   5.261   1.423  17.782 -0.1324  3.0924  1.4750
 3336TIP3   OH234202   4.573   5.546  19.200  0.1485 -0.1223 -0.1332
 3336TIP3    H134203   4.613   5.571  19.283 -1.7849  1.8208  0.2924
 3336TIP3    H234204   4.622   5.595  19.134  0.5983 -0.3587  0.0201
 3337TIP3   OH234205   4.370   0.471  19.337  0.3437  0.2287 -0.0215
 3337TIP3    H134206   4.305   0.412  19.376  0.0903  1.5487  1.6810
 3337TIP3    H234207   4.449   0.456  19.388 -0.0945  2.2632  1.3826
 3338TIP3   OH234208   4.113   1.964  18.914 -0.4156  0.6787 -0.0517
 3338TIP3    H134209   4.141   1.991  18.826 -1.0262 -0.9657 -0.7858
 3338TIP3    H234210   4.168   2.016  18.973  2.5081 -0.6166 -1.3991
 3339TIP3   OH234211   5.693   2.725  17.551 -0.2674  0.2201  0.1437
 3339TIP3    H134212   5.610   2.680  17.538  0.7367 -2.0943  1.1748
 3339TIP3    H234213   5.669   2.816  17.571 -2.5327 -0.3996  0.4413
 3340TIP3   OH234214   3.905   3.490  18.847 -0.3275  0.1498 -0.5998
 3340TIP3    H134215   3.904   3.578  18.809 -0.3928  0.9000  1.0409
 3340TIP3    H234216   3.919   3.505  18.941  0.2720 -1.6307 -0.3696
 3341TIP3   OH234217   5.196   5.644  18.049  0.3221  0.3339  0.0013
 3341TIP3    H134218   5.179   5.701  17.974 -1.6740 -0.5005 -0.2524
 3341TIP3    H234219   5.110   5.610  18.073  0.7220  1.2993  3.3079
 3342TIP3   OH234220   2.572   0.128  18.801 -0.1667 -0.1461  0.4793
 3342TIP3    H134221   2.493   0.105  18.753  0.9843 -0.8389 -1.1487
 3342TIP3    H234222   2.541   0.147  18.890 -2.2972  0.7443 -0.3940
 3343TIP3   OH234223   3.809   5.577  17.560 -0.5183 -0.7379 -0.2998
 3343TIP3    H134224   3.828   5.512  17.492 -1.0118 -1.3809  0.1699
 3343TIP3    H234225   3.834   5.660  17.520  0.1409 -1.2134 -0.9002
 3344TIP3   OH234226   2.561   6.869  19.154 -0.0414 -0.6687 -0.2911
 3344TIP3    H134227   2.626   6.807  19.122 -0.6850 -1.4972 -0.0283
 3344TIP3    H234228   2.488   6.861  19.093 -0.4697 -0.8072  0.2283
 3345TIP3   OH234229   6.121   5.967  16.939 -0.5345  0.4772  0.0288
 3345TIP3    H134230   6.134   5.873  16.925  0.0505  0.5144  0.3201
 3345TIP3    H234231   6.199   5.996  16.986 -0.6928  1.1219 -0.0935
 3346TIP3   OH234232   3.267   5.882  18.875 -0.0324 -0.8140  0.0535
 3346TIP3    H134233   3.255   5.818  18.946 -0.2598 -1.2162 -0.3409
 3346TIP3    H234234   3.185   5.931  18.873 -0.5545 -1.6816 -0.7849
 3347TIP3   OH234235   5.371   7.145  18.440  0.2505 -0.1408 -0.2213
 3347TIP3    H134236   5.396   7.162  18.349 -1.0538  1.1678 -0.3839
 3347TIP3    H234237   5.388   7.227  18.485 -2.2900  0.3866 -0.0654
 3348TIP3   OH234238   5.878   0.113  16.953 -0.0801  0.2725  0.4135
 3348TIP3    H134239   5.968   0.082  16.959  0.3680  1.5104  0.3282
 3348TIP3    H234240   5.885   0.199  16.913 -1.3159  0.3441  0.3181
 3349TIP3   OH234241   5.347   3.990  17.933  0.8235  0.0281 -0.2282
 3349TIP3    H134242   5.360   3.940  18.014  1.3006  0.9203  0.2608
 3349TIP3    H234243   5.435   4.017  17.907  0.7489 -0.8365 -1.4397
 3350TIP3   OH234244   6.738   3.732  18.208  0.6976  0.4977  0.0147
 3350TIP3    H134245   6.643   3.736  18.217  0.3389 -0.3891 -2.6227
 3350TIP3    H234246   6.753   3.690  18.124  3.4553 -2.2724  1.6496
 3351TIP3   OH234247   3.100   6.912  16.601 -0.6056 -0.0036 -0.0089
 3351TIP3    H134248   3.164   6.871  16.544 -0.1011  0.3368  0.3046
 3351TIP3    H234249   3.062   6.839  16.650 -0.4370 -0.2064 -0.1788
 3352TIP3   OH234250   0.858   5.932  19.859  0.1477  0.4422 -0.7000
 3352TIP3    H134251   0.865   6.022  19.890 -0.0479 -0.1192  1.0589
 3352TIP3    H234252   0.774   5.930  19.813 -0.2773  0.9378  0.0309
 3353TIP3   OH234253   5.586   0.938  18.912 -0.1917  0.4361  0.1914
 3353TIP3    H134254   5.504   0.970  18.874 -0.1323  0.3973  0.0338
 3353TIP3    H234255   5.654   0.970  18.854 -0.0263  1.2245  0.7992
 3354TIP3   OH234256   0.147   0.546  19.037  0.0836  0.1886  0.1242
 3354TIP3    H134257   0.117   0.494  18.963 -1.2133  0.5934  0.3344
 3354TIP3    H234258   0.073   0.544  19.099  0.5902  1.0244  0.7779
 3355TIP3   OH234259   7.565   5.318  19.231  0.0811 -0.5904 -0.1348
 3355TIP3    H134260   7.555   5.230  19.195  1.9683 -1.1870  0.6802
 3355TIP3    H234261   7.583   5.304  19.324  1.6667  0.5590 -0.2311
 3356TIP3   OH234262   6.589   4.569  18.585  0.6386 -0.0361  0.1850
 3356TIP3    H134263   6.640   4.606  18.656  1.2086  1.7221 -1.0537
 3356TIP3    H234264   6.518   4.632  18.571  0.9122 -0.0073 -1.2049
 3357TIP3   OH234265   1.220   0.018  19.333 -0.5889  0.0317  0.2315
 3357TIP3    H134266   1.230  -0.065  19.287 -0.7268  0.7160 -1.0834
 3357TIP3    H234267   1.138   0.054  19.300  0.0485  1.2210 -0.1165
 3358TIP3   OH234268   4.271   6.495  16.963  0.4479  0.4921 -0.5027
 3358TIP3    H134269   4.218   6.471  16.888  0.8765  0.1466 -0.7010
 3358TIP3    H234270   4.300   6.585  16.944  2.4989 -0.3727 -1.9273
 3359TIP3   OH234271   2.445   5.576  18.344 -0.1080  0.3652 -0.2473
 3359TIP3    H134272   2.538   5.560  18.333 -0.1624 -0.3523  0.2697
 3359TIP3    H234273   2.439   5.646  18.408  0.0597 -1.0597  1.4034
 3360TIP3   OH234274   7.594   5.265  19.761 -0.2513 -0.1574 -0.0420
 3360TIP3    H134275   7.505   5.296  19.752 -0.1461  0.0155 -0.5053
 3360TIP3    H234276   7.588   5.170  19.748 -0.6128 -0.4033  1.6529
 3361TIP3   OH234277   2.828   6.626  17.613  0.4059  0.7829 -0.7460
 3361TIP3    H134278   2.865   6.538  17.620  1.5968  1.3956  1.5586
 3361TIP3    H234279   2.734   6.611  17.599  0.7556 -0.8339 -1.5285
 3362TIP3   OH234280   6.174   1.058  18.644 -0.2134 -0.3946  0.0968
 3362TIP3    H134281   6.240   1.113  18.685  1.5886 -0.3323 -2.6241
 3362TIP3    H234282   6.209   1.040  18.557 -4.0796  0.1870 -1.7810
 3363TIP3   OH234283   7.505   3.304  18.055 -0.0754 -0.1618  0.3720
 3363TIP3    H134284   7.489   3.261  17.971 -0.3596  1.2470 -0.3198
 3363TIP3    H234285   7.600   3.300  18.067 -0.0685 -0.6735  0.1621
 3364TIP3   OH234286   3.836   4.024  17.264 -0.1654  0.1992  0.2904
 3364TIP3    H134287   3.902   3.967  17.223  1.0602  1.3830  0.5236
 3364TIP3    H234288   3.824   4.095  17.200 -0.0285  0.8102  0.9337
 3365TIP3   OH234289   0.451   6.225  18.437  0.2479  0.4224 -0.0951
 3365TIP3    H134290   0.402   6.264  18.509  2.9919  1.0298  1.6269
 3365TIP3    H234291   0.473   6.137  18.468  0.3351  0.1904 -0.7909
 3366TIP3   OH234292   0.746   0.901  17.612 -0.5796  0.6127  0.2593
 3366TIP3    H134293   0.667   0.949  17.637 -0.0144  0.5077  2.3603
 3366TIP3    H234294   0.750   0.827  17.672  0.3811 -0.2076 -0.7536
 3367TIP3   OH234295   5.075   7.281  18.684  0.7388 -0.2486  0.0977
 3367TIP3    H134296   4.997   7.333  18.662 -1.3397 -1.9147  2.8771
 3367TIP3    H234297   5.121   7.332  18.750  0.1853 -0.6858  0.8345
 3368TIP3   OH234298   3.451   6.922  16.584  0.0543 -0.5227 -0.0261
 3368TIP3    H134299   3.407   6.995  16.628 -1.1219 -1.7816  0.9760
 3368TIP3    H234300   3.504   6.881  16.652 -0.9151 -1.8254 -0.0176
 3369TIP3   OH234301   5.642   5.808  17.613  0.6233 -0.7330 -0.1054
 3369TIP3    H134302   5.694   5.887  17.627  2.0550 -1.4564 -1.1900
 3369TIP3    H234303   5.683   5.764  17.539 -1.0100 -1.7930 -0.4403
 3370TIP3   OH234304   4.282   4.708  19.362 -0.3442 -0.4787  0.0492
 3370TIP3    H134305   4.299   4.784  19.306 -0.6620 -1.4772 -1.4802
 3370TIP3    H234306   4.191   4.718  19.389 -0.2574 -0.1006  0.2066
 3371TIP3   OH234307   3.754   5.167  18.678  0.1457  0.4110  0.1040
 3371TIP3    H134308   3.833   5.115  18.665  0.8368  1.6621 -0.8855
 3371TIP3    H234309   3.764   5.205  18.766  0.8873  0.9464 -0.2059
 3372TIP3   OH234310   3.074   5.448  19.466 -0.3157 -0.2921 -0.3119
 3372TIP3    H134311   3.127   5.436  19.387 -0.7226 -1.0833 -0.4812
 3372TIP3    H234312   3.137   5.448  19.537 -0.0623 -1.0123 -0.5290
 3373TIP3   OH234313   1.188   0.975  17.138 -0.0546  0.6558 -0.2065
 3373TIP3    H134314   1.170   1.012  17.052  0.1300 -0.6430 -0.8235
 3373TIP3    H234315   1.101   0.958  17.176 -0.1366  0.9201 -0.2777
 3374TIP3   OH234316   5.483   1.265  18.122  0.0494  0.1041  0.2667
 3374TIP3    H134317   5.396   1.229  18.139 -0.3982 -0.0507 -1.9701
 3374TIP3    H234318   5.543   1.208  18.169 -1.0962  1.3039  3.4184
 3375TIP3   OH234319   3.783   7.662  18.947 -1.1303 -0.2251  0.7300
 3375TIP3    H134320   3.783   7.583  18.894  0.4226  0.6931 -0.7473
 3375TIP3    H234321   3.701   7.706  18.927 -0.9531 -0.3316 -0.2650
 3376TIP3   OH234322   2.587   3.731  17.899  0.0035 -0.2637 -0.4050
 3376TIP3    H134323   2.624   3.819  17.899 -0.9375  0.1969  1.5234
 3376TIP3    H234324   2.660   3.673  17.921  0.2734  0.2387  0.0276
 3377TIP3   OH234325   4.942   2.476  17.930  0.3968 -0.1716  0.0540
 3377TIP3    H134326   5.002   2.549  17.918  1.2787 -0.9780 -0.5973
 3377TIP3    H234327   4.900   2.493  18.014  0.1478  1.3813 -0.3518
 3378TIP3   OH234328   5.018   4.174  17.401 -0.0359 -0.4136 -0.3134
 3378TIP3    H134329   5.000   4.170  17.307 -0.9726 -0.5479 -0.1311
 3378TIP3    H234330   4.939   4.141  17.443 -0.8481  2.4571  0.6382
 3379TIP3   OH234331   0.750   5.898  19.256 -0.6274 -0.4286 -0.3067
 3379TIP3    H134332   0.757   5.855  19.341 -0.1253  0.6492  0.2237
 3379TIP3    H234333   0.688   5.970  19.271 -0.4982 -0.2002 -0.8398
 3380TIP3   OH234334   0.287   5.065  17.786 -0.1081  0.0982 -0.6379
 3380TIP3    H134335   0.232   4.987  17.786  0.9188 -0.7587  2.6462
 3380TIP3    H234336   0.228   5.136  17.761 -2.2780 -1.0412  0.9852
 3381TIP3   OH234337   7.280   0.776  17.687  1.0409  0.9169  0.1922
 3381TIP3    H134338   7.254   0.685  17.705  0.3962  1.1465  0.4333
 3381TIP3    H234339   7.339   0.769  17.612  0.5130  0.3595 -0.1791
 3382TIP3   OH234340   7.511   6.524  18.965  0.2228  0.6885 -0.1677
 3382TIP3    H134341   7.525   6.431  18.983  0.2417  0.9923  1.5140
 3382TIP3    H234342   7.510   6.530  18.869 -0.9982 -1.2153 -0.3180
 3383TIP3   OH234343   1.880   2.382  17.839 -0.7085 -0.2343 -0.7565
 3383TIP3    H134344   1.953   2.321  17.828  0.7229  1.4233 -0.8492
 3383TIP3    H234345   1.918   2.456  17.887 -2.3173  0.7071 -0.8739
 3384TIP3   OH234346   1.961   2.863  19.277 -0.2395  0.3366 -0.5962
 3384TIP3    H134347   2.025   2.932  19.294  1.0657 -0.9024 -0.2420
 3384TIP3    H234348   1.968   2.847  19.183  0.6335 -0.3830 -0.4238
 3385TIP3   OH234349   0.630   3.766  17.615  0.2695 -0.4250  0.3622
 3385TIP3    H134350   0.553   3.799  17.569  0.5907  0.5172  0.4747
 3385TIP3    H234351   0.595   3.714  17.688 -0.3052  1.3383  1.3945
 3386TIP3   OH234352   1.256   6.299  18.381  0.1353  0.4951 -0.4445
 3386TIP3    H134353   1.224   6.208  18.385  1.6850 -0.2228 -2.4290
 3386TIP3    H234354   1.177   6.352  18.386 -0.6618 -0.7187  3.7703
 3387TIP3   OH234355   6.277   5.595  18.377 -0.2566 -0.1296 -0.3523
 3387TIP3    H134356   6.199   5.651  18.380 -0.3867 -0.3256  0.1104
 3387TIP3    H234357   6.341   5.646  18.328 -0.9010 -0.2532 -1.3497
 3388TIP3   OH234358   5.765   2.827  19.034 -0.4237 -0.1337  0.0664
 3388TIP3    H134359   5.831   2.860  18.973 -0.7830  0.1174 -0.1892
 3388TIP3    H234360   5.809   2.757  19.081  0.3981  0.7625  0.6843
 3389TIP3   OH234361   6.121   1.882  17.167  0.5837  0.3434 -0.0567
 3389TIP3    H134362   6.054   1.817  17.186  1.9593 -0.6864  1.6033
 3389TIP3    H234363   6.173   1.844  17.096  2.4397 -1.3259  2.0338
 3390TIP3   OH234364   7.354   1.959  18.168 -0.4385  0.1343  0.4733
 3390TIP3    H134365   7.418   2.016  18.211  0.2244 -0.2859  0.0810
 3390TIP3    H234366   7.407   1.905  18.110 -1.0373 -0.9868  0.9507
 3391TIP3   OH234367   6.602   5.178  18.619  0.3012  0.2986 -0.1884
 3391TIP3    H134368   6.694   5.161  18.601  0.4635  0.4785  0.4164
 3391TIP3    H234369   6.568   5.096  18.654  0.2302  0.2266 -0.4300
 3392TIP3   OH234370   5.465   1.940  18.945 -0.4476 -0.1517 -0.1192
 3392TIP3    H134371   5.374   1.958  18.920 -0.2883 -0.9942 -1.4080
 3392TIP3    H234372   5.515   2.012  18.907 -0.4030 -0.5423 -0.8215
 3393TIP3   OH234373   5.946   5.862  18.684  0.2266 -0.0440 -0.1952
 3393TIP3    H134374   6.032   5.892  18.712  0.9831 -0.1096 -2.2481
 3393TIP3    H234375   5.963   5.782  18.635 -1.2680 -1.2666  1.1800
 3394TIP3   OH234376   1.243   4.741  18.476 -0.1830  0.1328  0.0790
 3394TIP3    H134377   1.310   4.717  18.540  1.1554 -1.6496 -1.8571
 3394TIP3    H234378   1.167   4.767  18.529  1.1287 -0.3935  2.3478
 3395TIP3   OH234379   6.769   4.396  17.984 -0.1759  0.1880  0.1932
 3395TIP3    H134380   6.732   4.381  17.897  0.6991 -0.0775 -0.1475
 3395TIP3    H234381   6.777   4.308  18.021  0.0143  0.2454  0.2913
 3396TIP3   OH234382   1.262   0.560  19.043 -0.0551  0.5795  0.3959
 3396TIP3    H134383   1.189   0.582  18.985  0.0627  1.3242  0.5271
 3396TIP3    H234384   1.338   0.552  18.985 -0.0867  0.5801  0.3554
 3397TIP3   OH234385   4.807   5.461  17.590  0.3258 -0.4325 -0.3849
 3397TIP3    H134386   4.771   5.514  17.519  0.7179  1.3586  0.6692
 3397TIP3    H234387   4.879   5.412  17.550  0.0266 -0.0778 -1.3934
 3398TIP3   OH234388   0.251   4.146  18.609 -0.4039 -0.1208  0.2693
 3398TIP3    H134389   0.317   4.213  18.589 -0.4763 -0.1878 -0.2169
 3398TIP3    H234390   0.194   4.146  18.532 -1.2759  0.2883  0.9031
 3399TIP3   OH234391   2.596   6.523  17.227 -0.8766  0.3073 -0.8774
 3399TIP3    H134392   2.666   6.466  17.192  0.2352  0.3917  1.0692
 3399TIP3    H234393   2.610   6.607  17.183  0.7007  0.5140 -0.0657
 3400TIP3   OH234394   5.746   1.595  18.454 -0.3454 -0.4783  0.0808
 3400TIP3    H134395   5.806   1.666  18.431  0.1065 -0.3665  1.5626
 3400TIP3    H234396   5.717   1.615  18.543 -0.9229 -1.6784  0.1816
 3401TIP3   OH234397   6.583   2.288  16.836 -0.0113 -0.5079  0.3391
 3401TIP3    H134398   6.627   2.216  16.791 -1.8076 -2.1959  1.1096
 3401TIP3    H234399   6.651   2.329  16.889  0.8903 -2.2744  0.6110
 3402TIP3   OH234400   2.995   6.974  18.837  0.1772  0.0177 -0.1913
 3402TIP3    H134401   2.984   7.051  18.781 -0.1211  0.2812  0.2240
 3402TIP3    H234402   3.076   6.933  18.807 -0.1749 -0.0579 -1.0694
 3403TIP3   OH234403   3.180   3.601  19.391 -0.6219 -0.0906  0.4828
 3403TIP3    H134404   3.246   3.656  19.348 -0.8010  0.6918  1.1703
 3403TIP3    H234405   3.224   3.571  19.471 -1.2800  0.9282  1.2492
 3404TIP3   OH234406   4.624   3.164  19.348  0.4492  0.4247 -0.0841
 3404TIP3    H134407   4.539   3.163  19.392  0.0990  0.7663 -0.7313
 3404TIP3    H234408   4.679   3.219  19.404 -0.1993  1.4704 -0.4294
 3405TIP3   OH234409   2.661   4.468  16.874  0.1879 -0.4785 -0.5205
 3405TIP3    H134410   2.680   4.390  16.822  2.5420 -0.0837 -0.3639
 3405TIP3    H234411   2.740   4.482  16.927 -0.8292  1.0608  0.6765
 3406TIP3   OH234412   2.360   0.536  18.468  0.9505 -0.5770 -0.4804
 3406TIP3    H134413   2.330   0.570  18.384  1.3293 -2.2933 -1.3430
 3406TIP3    H234414   2.292   0.563  18.530  0.2399 -0.0082 -1.4675
 3407TIP3   OH234415   2.911   4.856  17.461  0.1520  0.4457  0.2641
 3407TIP3    H134416   2.881   4.785  17.518  0.2685  0.4307  0.3059
 3407TIP3    H234417   2.972   4.906  17.514  0.2558  0.4359  0.1548
 3408TIP3   OH234418   6.431   6.239  18.064 -0.6626 -0.0431  0.1945
 3408TIP3    H134419   6.353   6.198  18.027 -0.2566 -1.0562  0.4257
 3408TIP3    H234420   6.401   6.281  18.145 -1.1819  0.5747 -0.3084
 3409TIP3   OH234421   2.251   7.668  17.819 -0.1516  0.3780  0.6554
 3409TIP3    H134422   2.210   7.650  17.904  1.3404  0.3171  1.3947
 3409TIP3    H234423   2.305   7.745  17.834  1.3132 -0.5153  0.1932
 3410TIP3   OH234424   6.731   0.614  19.563  0.1385  0.4226  1.1392
 3410TIP3    H134425   6.806   0.672  19.553 -0.3788  1.1420  1.2767
 3410TIP3    H234426   6.767   0.530  19.589  0.8645  0.8398  1.4838
 3411TIP3   OH234427   7.160   2.940  19.350  0.0665 -0.1923  0.0275
 3411TIP3    H134428   7.180   2.942  19.443 -0.4166 -0.8405  0.1450
 3411TIP3    H234429   7.169   3.032  19.322 -1.0741  0.2286  0.9782
 3412TIP3   OH234430   4.350   5.520  19.020  0.2740 -0.7558 -0.2325
 3412TIP3    H134431   4.406   5.511  19.097  1.2764  1.0598 -0.6820
 3412TIP3    H234432   4.346   5.615  19.005 -0.3566 -1.0406 -2.0862
 3413TIP3   OH234433   3.263   5.966  19.216 -0.3681  0.0266 -0.3495
 3413TIP3    H134434   3.172   5.988  19.231  0.1861  3.7110 -1.3594
 3413TIP3    H234435   3.261   5.902  19.145 -2.1205 -1.8708  1.2555
 3414TIP3   OH234436   0.128   3.866  17.518 -0.2733  0.2483  0.7079
 3414TIP3    H134437   0.106   3.781  17.479  1.6998 -0.0676  0.2070
 3414TIP3    H234438   0.141   3.925  17.444  3.9333 -0.4634  0.6206
 3415TIP3   OH234439   7.183   1.318  18.369 -0.0888 -0.2642  0.1001
 3415TIP3    H134440   7.224   1.242  18.328 -2.1439 -2.0495  1.1248
 3415TIP3    H234441   7.140   1.364  18.297 -1.1648 -1.6943 -0.2213
 3416TIP3   OH234442   5.967   2.145  18.350  0.0902 -0.1187 -0.2132
 3416TIP3    H134443   6.016   2.123  18.429 -0.5278 -0.7174  0.0122
 3416TIP3    H234444   5.922   2.227  18.373  0.5993  0.1777 -0.2563
 3417TIP3   OH234445   3.634   5.751  19.255 -0.0421 -0.1706  0.3420
 3417TIP3    H134446   3.724   5.776  19.275 -0.0758 -0.8672  1.4073
 3417TIP3    H234447   3.607   5.697  19.328 -0.9316 -0.9825 -0.5591
 3418TIP3   OH234448   0.561   1.738  17.691  0.3153  0.2262  0.7273
 3418TIP3    H134449   0.611   1.660  17.666  0.0604  0.6441 -1.2812
 3418TIP3    H234450   0.488   1.741  17.629 -0.6672  1.1267  1.8721
 3419TIP3   OH234451   6.047   7.262  19.429 -0.0959  0.3369 -0.1503
 3419TIP3    H134452   6.115   7.287  19.366 -0.0661  1.1109  0.1833
 3419TIP3    H234453   6.021   7.344  19.470 -0.8028 -0.0382  0.1603
 3420TIP3   OH234454   0.224   3.607  18.295 -0.0421 -0.2855  0.0588
 3420TIP3    H134455   0.144   3.554  18.295  0.1651 -0.6005  0.5834
 3420TIP3    H234456   0.193   3.697  18.302 -0.4217 -0.2804 -1.2583
 3421TIP3   OH234457   3.533   3.546  18.772  0.0455 -0.3683 -0.1736
 3421TIP3    H134458   3.485   3.477  18.818 -0.7031  0.5043  0.3954
 3421TIP3    H234459   3.487   3.626  18.796  0.8705  0.3239 -0.8662
 3422TIP3   OH234460   7.206   4.981  19.401  0.2099  0.0781 -0.3445
 3422TIP3    H134461   7.290   5.010  19.437 -0.2686  0.0884  0.8038
 3422TIP3    H234462   7.141   5.012  19.465 -0.7190  0.5442 -1.4783
 3423TIP3   OH234463   6.352   0.402  17.961  0.2380  0.5015 -0.5627
 3423TIP3    H134464   6.357   0.436  17.872  1.5214 -0.5685 -0.9316
 3423TIP3    H234465   6.437   0.423  17.999  0.2397 -0.3379 -0.0781
 3424TIP3   OH234466   6.941   3.476  18.615  0.2562  0.1969  0.3404
 3424TIP3    H134467   6.893   3.436  18.688  2.3697 -0.5928  1.3812
 3424TIP3    H234468   6.911   3.427  18.538 -1.5317  0.6159  0.7141
 3425TIP3   OH234469   1.002   4.470  19.578 -0.1917  0.1459  0.1644
 3425TIP3    H134470   0.916   4.506  19.556 -0.3606 -0.4210 -0.1200
 3425TIP3    H234471   1.042   4.537  19.633  0.2162  1.5880 -1.7937
 3426TIP3   OH234472   5.023   1.034  19.439 -0.3119  0.5800  0.1278
 3426TIP3    H134473   5.082   1.108  19.435  1.1835 -0.6112 -3.5425
 3426TIP3    H234474   5.078   0.960  19.466 -0.0965 -0.3969 -2.6378
 3427TIP3   OH234475   2.006   1.210  18.383  0.2902 -0.2000 -0.0638
 3427TIP3    H134476   1.981   1.224  18.291  0.2609 -0.0945 -0.0394
 3427TIP3    H234477   2.077   1.145  18.378  1.0397  0.6145 -0.2484
 3428TIP3   OH234478   2.275   3.464  17.176  0.0982  0.0985 -0.1030
 3428TIP3    H134479   2.261   3.559  17.185 -0.7932 -0.0318 -0.1009
 3428TIP3    H234480   2.223   3.439  17.100  2.0097 -0.0383 -1.4413
 3429TIP3   OH234481   1.651   0.163  19.185 -0.0867  0.2984  0.3323
 3429TIP3    H134482   1.568   0.199  19.151  0.3814  2.8588  1.6358
 3429TIP3    H234483   1.665   0.084  19.134 -1.7615  1.4373 -2.1247
 3430TIP3   OH234484   1.800   5.010  17.721  0.2318  0.3254  0.0108
 3430TIP3    H134485   1.757   4.938  17.767  1.7119 -0.2406  0.5954
 3430TIP3    H234486   1.769   5.089  17.766 -0.9396  0.0244 -0.2391
 3431TIP3   OH234487   4.352   0.505  17.954  0.7788 -0.3272  0.3380
 3431TIP3    H134488   4.307   0.589  17.944 -2.1695 -1.9117 -1.0714
 3431TIP3    H234489   4.372   0.499  18.047 -2.0578  0.5205  1.0931
 3432TIP3   OH234490   1.319   6.798  18.979 -0.2879 -0.3336  0.0779
 3432TIP3    H134491   1.375   6.815  19.054 -2.1559  1.5326  1.1807
 3432TIP3    H234492   1.269   6.720  19.003  0.1057 -0.5561  0.1675
 3433TIP3   OH234493   4.958   4.422  17.181  0.4247 -0.7098 -0.2402
 3433TIP3    H134494   4.973   4.515  17.166 -0.3564 -0.4303  0.6131
 3433TIP3    H234495   5.045   4.384  17.191  0.7209  0.0649  0.1687
 3434TIP3   OH234496   5.975   6.234  19.311  0.0802  0.5768  0.2416
 3434TIP3    H134497   5.959   6.143  19.337 -0.7479  0.7481  0.3660
 3434TIP3    H234498   6.067   6.235  19.283  0.3468 -0.1063  1.0441
 3435TIP3   OH234499   7.530   5.223  18.715  0.7094  0.4432 -0.6795
 3435TIP3    H134500   7.518   5.147  18.772  2.6544 -1.2171 -2.3408
 3435TIP3    H234501   7.585   5.283  18.766  0.7135 -0.0881 -0.0528
 3436TIP3   OH234502   0.398   0.479  17.301  0.4208 -0.4265  0.1608
 3436TIP3    H134503   0.306   0.498  17.319  0.6482  0.0976  0.8554
 3436TIP3    H234504   0.427   0.551  17.245  0.6206 -0.1168  0.6537
 3437TIP3   OH234505   1.396   3.986  18.461  0.4645  0.4209 -0.4826
 3437TIP3    H134506   1.378   3.908  18.513  0.0837 -0.4235 -1.8180
 3437TIP3    H234507   1.311   4.010  18.424  0.6821  1.1283 -0.5335
 3438TIP3   OH234508   5.754   0.732  18.791 -0.1148  0.5507  0.0877
 3438TIP3    H134509   5.714   0.814  18.820 -1.8054 -0.2622  0.1894
 3438TIP3    H234510   5.846   0.753  18.780 -0.1615  1.9689  1.9553
 3439TIP3   OH234511   5.111   6.279  19.263  0.6127 -0.4806  0.4625
 3439TIP3    H134512   5.074   6.205  19.215 -3.2054  1.4968 -0.0320
 3439TIP3    H234513   5.095   6.258  19.355 -1.4847  0.0817  0.2787
 3440TIP3   OH234514   5.395   4.507  17.365  0.3238  0.4010  0.0628
 3440TIP3    H134515   5.429   4.594  17.387 -0.2080  0.4673  0.6388
 3440TIP3    H234516   5.473   4.454  17.349  0.8732 -0.0128  3.3901
 3441TIP3   OH234517   2.859   6.269  17.339  0.0418  0.0295  0.2393
 3441TIP3    H134518   2.869   6.180  17.307  3.1531  0.3336  0.0262
 3441TIP3    H234519   2.818   6.317  17.267 -1.4735 -1.1528  0.2863
 3442TIP3   OH234520   5.940   5.775  19.368  0.0316 -0.0916  0.4529
 3442TIP3    H134521   6.010   5.828  19.407  0.6012 -1.2924  1.1389
 3442TIP3    H234522   5.887   5.837  19.319  0.0726  1.2967  2.0551
 3443TIP3   OH234523   6.746   4.101  18.653 -0.2214 -0.2306 -0.1881
 3443TIP3    H134524   6.662   4.073  18.688  0.2642 -1.2839  0.1559
 3443TIP3    H234525   6.811   4.047  18.698  0.8088  1.7092  0.8379
 3444TIP3   OH234526   4.536   3.232  17.577  0.6551  0.6181  0.0414
 3444TIP3    H134527   4.457   3.272  17.542 -0.9893 -1.3397  1.3241
 3444TIP3    H234528   4.582   3.199  17.499  0.1119  1.5554 -0.6989
 3445TIP3   OH234529   1.254   6.980  18.489  0.1441 -0.4812 -0.4696
 3445TIP3    H134530   1.274   7.034  18.412  0.7746 -2.0944 -1.4808
 3445TIP3    H234531   1.169   6.940  18.468 -0.8380  0.8728  0.7333
 3446TIP3   OH234532   2.312   0.087  19.140 -0.0549 -0.3469 -0.0023
 3446TIP3    H134533   2.402   0.116  19.152 -0.1459  0.7976 -1.7294
 3446TIP3    H234534   2.316   0.029  19.064 -0.9366  0.6994 -0.8747
 3447TIP3   OH234535   3.454   6.408  19.345 -0.2757  0.3388  0.2475
 3447TIP3    H134536   3.443   6.433  19.437  1.3926 -0.2854  0.6469
 3447TIP3    H234537   3.540   6.367  19.341  0.1679  1.3101 -1.8013
 3448TIP3   OH234538   3.834   4.797  18.946 -0.2831  0.7385  0.2992
 3448TIP3    H134539   3.800   4.799  19.035  1.0526  0.8240  0.8294
 3448TIP3    H234540   3.758   4.776  18.891 -1.6156  2.9428  1.2036
 3449TIP3   OH234541   5.795   2.753  18.112 -0.5892 -0.2379 -0.7528
 3449TIP3    H134542   5.842   2.827  18.074 -0.3297  1.3702  2.3274
 3449TIP3    H234543   5.856   2.680  18.105  1.1437  1.0257  0.2184
 3450TIP3   OH234544   3.481   2.115  19.177 -0.2652 -0.1494 -0.1390
 3450TIP3    H134545   3.507   2.087  19.265  0.7493  1.1100 -0.0010
 3450TIP3    H234546   3.502   2.208  19.174 -0.1952 -0.1756 -1.7379
 3451TIP3   OH234547   1.769   3.790  18.658  0.6010  0.1246  0.4497
 3451TIP3    H134548   1.690   3.757  18.616  0.1647  0.3678  1.0591
 3451TIP3    H234549   1.830   3.807  18.586 -0.0614  0.3677 -0.0651
 3452TIP3   OH234550   0.107   0.942  18.004  0.6974  0.2516 -0.3098
 3452TIP3    H134551   0.085   0.894  18.084 -0.6162 -1.6630 -1.7258
 3452TIP3    H234552   0.199   0.963  18.014  0.5540  0.1329  1.7347
 3453TIP3   OH234553   3.595   6.629  18.947 -0.1995 -0.1035  0.5093
 3453TIP3    H134554   3.673   6.668  18.986 -0.2173  0.5107 -0.0447
 3453TIP3    H234555   3.542   6.703  18.919  1.0354 -0.3906 -3.1239
 3454TIP3   OH234556   4.584   7.148  18.557  0.0801 -0.5883 -0.0083
 3454TIP3    H134557   4.618   7.225  18.603  0.6124 -0.3987 -0.6944
 3454TIP3    H234558   4.563   7.085  18.626  0.7842 -0.2777  0.4931
 3455TIP3   OH234559   5.770   0.267  18.818 -0.4583 -0.5381  1.1480
 3455TIP3    H134560   5.765   0.283  18.724 -1.3491 -1.4155  1.0284
 3455TIP3    H234561   5.727   0.343  18.858  0.0392 -0.0999  0.8636
 3456TIP3   OH234562   0.730   2.457  19.656  0.0567 -0.1473  0.1672
 3456TIP3    H134563   0.704   2.497  19.573  0.0150 -0.0554  0.2242
 3456TIP3    H234564   0.736   2.531  19.717  0.2607 -0.1934  0.2029
 3457TIP3   OH234565   2.515   7.580  17.771  0.5071 -0.0102  0.2518
 3457TIP3    H134566   2.422   7.599  17.761  0.6483  0.9732  0.7001
 3457TIP3    H234567   2.520   7.529  17.853  0.3756 -0.0307  0.2463
 3458TIP3   OH234568   5.002   1.397  17.194  0.1015  0.2214  0.0791
 3458TIP3    H134569   5.078   1.422  17.142  0.3364 -1.0534 -0.2203
 3458TIP3    H234570   5.013   1.443  17.277  0.8309  0.6016 -0.2230
 3459TIP3   OH234571   6.902   0.914  17.191 -0.5206 -0.0196 -0.0518
 3459TIP3    H134572   6.907   1.010  17.194 -0.5498 -0.0245  0.1405
 3459TIP3    H234573   6.839   0.891  17.259  0.4819 -0.2550  0.8233
 3460TIP3   OH234574   6.027   2.942  18.423 -0.0657  0.1369  0.1319
 3460TIP3    H134575   6.099   2.882  18.443 -1.1623 -1.1266  0.4260
 3460TIP3    H234576   6.039   2.964  18.331 -0.3036 -1.4740 -0.3042
 3461TIP3   OH234577   0.690   3.259  19.102  0.4052  0.4101 -0.0488
 3461TIP3    H134578   0.615   3.249  19.044 -0.4028  1.2487  0.8102
 3461TIP3    H234579   0.707   3.353  19.105 -0.1444  0.4846  1.7420
 3462TIP3   OH234580   3.826   3.110  19.378 -0.4783 -0.4693 -0.3051
 3462TIP3    H134581   3.743   3.139  19.417  1.0001 -0.0882  2.9053
 3462TIP3    H234582   3.883   3.186  19.386  1.1087 -1.7042  0.6438
 3463TIP3   OH234583   7.019   1.514  18.593  0.3430  0.4798  0.0181
 3463TIP3    H134584   7.086   1.459  18.633  0.0002  1.2872  1.8052
 3463TIP3    H234585   6.987   1.462  18.519  1.6282 -0.7048  0.2441
 3464TIP3   OH234586   4.584   6.373  18.918  0.2758 -0.3036 -0.4180
 3464TIP3    H134587   4.604   6.440  18.853 -0.2306 -0.0230 -0.2911
 3464TIP3    H234588   4.656   6.310  18.911  0.0101 -0.5010 -1.5416
 3465TIP3   OH234589   5.238   7.612  18.438  0.1003 -0.2613  0.5528
 3465TIP3    H134590   5.165   7.633  18.496 -0.4064 -0.0883 -0.1338
 3465TIP3    H234591   5.235   7.679  18.370 -1.1281 -2.0644 -1.3027
 3466TIP3   OH234592   5.749   2.133  19.295  0.6546  0.0945  0.7014
 3466TIP3    H134593   5.682   2.153  19.361  2.2944 -1.5073  3.0242
 3466TIP3    H234594   5.724   2.047  19.261 -0.6330  1.2584 -1.5044
 3467TIP3   OH234595   0.251   5.392  19.541  0.0123 -0.4559  0.2082
 3467TIP3    H134596   0.212   5.479  19.541  0.5186 -0.2078 -1.0851
 3467TIP3    H234597   0.340   5.405  19.507  0.2385 -1.4126  0.3962
 3468TIP3   OH234598   5.143   7.063  18.216  0.2648  0.0976 -0.6018
 3468TIP3    H134599   5.190   7.002  18.272 -1.3385  0.5415  1.3316
 3468TIP3    H234600   5.182   7.051  18.129  1.5824 -1.9499  0.2065
 3469TIP3   OH234601   3.458   3.859  18.250 -0.0103 -0.7085 -0.5005
 3469TIP3    H134602   3.550   3.842  18.271  0.1884 -0.6258 -1.2825
 3469TIP3    H234603   3.421   3.773  18.231 -0.2161 -0.7953  0.2785
 3470TIP3   OH234604   0.346   3.071  18.385  0.3636  0.3302 -0.5688
 3470TIP3    H134605   0.258   3.066  18.348  0.0336  0.1107  0.2395
 3470TIP3    H234606   0.346   3.151  18.438 -0.1222 -0.9008  1.3810
 3471TIP3   OH234607   3.173   7.100  17.832  0.2950  0.4176  0.1522
 3471TIP3    H134608   3.203   7.184  17.867  0.4077 -0.4436  2.2369
 3471TIP3    H234609   3.079   7.100  17.848  0.6153 -0.7499  2.2333
 3472TIP3   OH234610   7.617   5.465  17.700  0.4418  0.0228 -0.1152
 3472TIP3    H134611   7.682   5.468  17.770 -0.0838 -0.1720  0.3920
 3472TIP3    H234612   7.653   5.519  17.631  0.9044  0.3385  0.3686
 3473TIP3   OH234613   6.052   4.350  17.246 -0.3811  0.0786 -0.8120
 3473TIP3    H134614   5.970   4.375  17.290  0.6479  1.6239  0.3829
 3473TIP3    H234615   6.067   4.260  17.273 -0.0462  0.8010  1.7875
 3474TIP3   OH234616   1.340   6.099  19.331 -0.2079  0.0147  0.2988
 3474TIP3    H134617   1.306   6.015  19.361  0.4508 -0.4479 -0.2118
 3474TIP3    H234618   1.262   6.148  19.302 -0.7256  0.0361  1.6266
 3475TIP3   OH234619   0.740   1.264  17.473  0.5513  0.4801  0.6059
 3475TIP3    H134620   0.689   1.251  17.553  0.3706 -0.2540  0.3821
 3475TIP3    H234621   0.702   1.203  17.410 -0.9751  2.7939 -0.8549
 3476TIP3   OH234622   3.616   0.989  19.273 -0.6680 -0.4645 -0.3105
 3476TIP3    H134623   3.649   0.982  19.362  0.2457 -2.4110 -0.7480
 3476TIP3    H234624   3.689   1.024  19.223 -0.7829 -0.4982 -0.5045
 3477TIP3   OH234625   6.598   5.831  17.620 -0.1921 -0.0368 -0.2234
 3477TIP3    H134626   6.689   5.839  17.592 -0.1450  0.4579  0.0682
 3477TIP3    H234627   6.555   5.781  17.550  0.1276  0.3892 -0.7240
 3478TIP3   OH234628   7.096   6.336  18.269  0.2060 -0.2827 -0.2509
 3478TIP3    H134629   7.031   6.407  18.272  0.4758 -0.0279 -0.3513
 3478TIP3    H234630   7.047   6.260  18.238  0.1879  0.1710 -1.3905
 3479TIP3   OH234631   7.352   6.741  19.529 -0.1566  0.3406  0.4317
 3479TIP3    H134632   7.274   6.789  19.503 -0.5211 -1.0522 -1.2499
 3479TIP3    H234633   7.380   6.696  19.450  1.3782 -0.5408  1.4198
 3480TIP3   OH234634   3.245   1.657  18.325  0.2011  0.1917  0.1155
 3480TIP3    H134635   3.243   1.565  18.298  0.6967  0.9225 -2.7396
 3480TIP3    H234636   3.153   1.681  18.332  0.0517 -0.0901 -0.7909
 3481TIP3   OH234637   2.096   4.921  18.049 -0.3877  0.2236 -0.5681
 3481TIP3    H134638   2.000   4.926  18.045 -0.6556 -1.4100  1.7117
 3481TIP3    H234639   2.117   4.835  18.012  0.2422  0.6014 -1.1253
 3482TIP3   OH234640   5.610   7.043  17.169  0.6494  0.4077 -0.7268
 3482TIP3    H134641   5.667   7.006  17.101  2.3058  1.6218 -0.0713
 3482TIP3    H234642   5.568   6.967  17.209  1.8896 -0.5680 -1.1918
 3483TIP3   OH234643   0.736   5.740  18.016  0.4330  0.0269 -0.1262
 3483TIP3    H134644   0.709   5.831  18.004  1.5225  0.2985 -0.6557
 3483TIP3    H234645   0.832   5.743  18.013  0.6382 -0.7441  2.6556
 3484TIP3   OH234646   0.591   5.766  19.683  0.5626 -0.3189 -0.3776
 3484TIP3    H134647   0.566   5.852  19.717  1.7347  0.1192 -0.5571
 3484TIP3    H234648   0.512   5.733  19.641  0.5959  1.5626 -2.0783
 3485TIP3   OH234649   6.110   3.785  18.125  0.5165  0.0032 -0.0479
 3485TIP3    H134650   6.115   3.757  18.216 -0.8752 -0.5353 -0.1071
 3485TIP3    H234651   6.162   3.720  18.077  0.8042 -0.0250  0.2967
 3486TIP3   OH234652   3.545   2.158  17.825  0.1307 -0.5762 -0.6221
 3486TIP3    H134653   3.494   2.184  17.748  0.4288  0.0567 -0.6081
 3486TIP3    H234654   3.614   2.224  17.832  0.4838 -0.9815 -0.1776
 3487TIP3   OH234655   6.711   6.695  16.965 -0.2762 -0.2400 -0.4704
 3487TIP3    H134656   6.653   6.623  16.937 -1.0456  0.1812  0.0131
 3487TIP3    H234657   6.659   6.774  16.950  0.4830  0.2056 -0.7791
 3488TIP3   OH234658   2.512   1.428  19.486 -0.1573  0.0600  0.8001
 3488TIP3    H134659   2.430   1.447  19.440 -0.0789 -0.2744  0.5191
 3488TIP3    H234660   2.550   1.514  19.503 -1.5374  0.3499  2.7324
 3489TIP3   OH234661   5.616   6.191  17.824 -0.5011 -0.4015  0.3959
 3489TIP3    H134662   5.631   6.154  17.737 -0.3220  2.8382 -1.0952
 3489TIP3    H234663   5.693   6.166  17.875 -0.3142 -1.7957 -0.5178
 3490TIP3   OH234664   5.920   1.613  17.316  0.0375 -0.1052  0.6906
 3490TIP3    H134665   5.909   1.615  17.221 -0.5300  0.5497  0.7645
 3490TIP3    H234666   5.947   1.523  17.335  0.6224 -0.1157 -0.1365
 3491TIP3   OH234667   4.835   2.965  18.521 -0.4694  0.4650 -0.4804
 3491TIP3    H134668   4.850   2.979  18.428 -1.0083  0.7270 -0.5332
 3491TIP3    H234669   4.884   3.035  18.564 -1.2571  1.1171 -0.6315
 3492TIP3   OH234670   4.929   5.732  17.654  0.6607  0.3645  0.2830
 3492TIP3    H134671   4.982   5.717  17.575  2.3328 -0.3533  1.4684
 3492TIP3    H234672   4.865   5.660  17.654  1.7724 -0.6672  0.4307
 3493TIP3   OH234673   3.505   3.853  18.564 -0.0531 -0.1298  0.0994
 3493TIP3    H134674   3.578   3.800  18.530 -0.5338 -0.5130 -0.3563
 3493TIP3    H234675   3.427   3.806  18.537 -0.4784  0.3494  0.4733
 3494TIP3   OH234676   4.956   5.075  18.738  0.0550 -0.4459  0.0077
 3494TIP3    H134677   5.013   5.006  18.705  0.5589 -0.3542  0.6477
 3494TIP3    H234678   4.978   5.082  18.831  0.6362  1.1592 -0.2104
 3495TIP3   OH234679   3.839   4.047  17.715 -0.2494 -0.5041  0.9993
 3495TIP3    H134680   3.746   4.035  17.695  0.2871 -4.4618 -0.0259
 3495TIP3    H234681   3.878   4.075  17.632 -0.3850  0.2441  1.1848
 3496TIP3   OH234682   0.974   2.743  19.675 -0.0963 -0.6418 -0.0416
 3496TIP3    H134683   0.957   2.830  19.712 -0.4873 -0.0533 -1.5405
 3496TIP3    H234684   0.923   2.683  19.730 -1.3313  0.3011 -0.1137
 3497TIP3   OH234685   4.692   2.683  17.939 -0.2078  0.3630 -0.0343
 3497TIP3    H134686   4.742   2.620  17.990 -0.0620 -0.1424 -0.7804
 3497TIP3    H234687   4.606   2.642  17.928 -0.4026  0.6979  0.2430
 3498TIP3   OH234688   1.478   6.725  17.214 -0.1209  0.0142  0.0477
 3498TIP3    H134689   1.498   6.764  17.128 -0.1907  0.1276  0.0829
 3498TIP3    H234690   1.419   6.653  17.194  0.5293 -0.4926 -0.0869
 3499TIP3   OH234691   4.582   1.218  18.764  0.3038  0.8153  0.1551
 3499TIP3    H134692   4.566   1.241  18.856  2.3463 -0.6157  0.9495
 3499TIP3    H234693   4.611   1.127  18.767  1.1874  0.9866 -1.8389
 3500TIP3   OH234694   2.735   3.248  17.853  0.2852 -0.4911 -0.2996
 3500TIP3    H134695   2.683   3.244  17.934  0.4188  0.1933 -0.1778
 3500TIP3    H234696   2.675   3.221  17.784  0.1639 -1.0665  0.0240
 3501TIP3   OH234697   3.487   5.084  18.630  0.0234 -0.3831  0.2460
 3501TIP3    H134698   3.563   5.114  18.680 -0.4819  1.5878 -0.0984
 3501TIP3    H234699   3.413   5.131  18.668 -0.7410 -0.8178 -0.6704
 3502TIP3   OH234700   5.301   2.499  17.926 -0.7299 -0.0687  0.4294
 3502TIP3    H134701   5.231   2.526  17.986 -1.7206 -1.8341  0.1383
 3502TIP3    H234702   5.300   2.565  17.857 -0.0548  1.5904  1.9395
 3503TIP3   OH234703   1.789   1.564  18.558  0.4826  0.2621 -0.6258
 3503TIP3    H134704   1.729   1.491  18.547  1.3226 -0.3235 -1.4108
 3503TIP3    H234705   1.773   1.620  18.482  2.3925 -0.9907 -2.0610
 3504TIP3   OH234706   5.979   6.546  16.377 -0.0461 -0.0140 -0.4503
 3504TIP3    H134707   6.015   6.488  16.310 -0.7943 -0.3310 -0.5820
 3504TIP3    H234708   5.915   6.492  16.423  0.4694  0.1924  0.5351
 3505TIP3   OH234709   2.843   0.396  19.087  0.7178 -0.0303 -0.3912
 3505TIP3    H134710   2.822   0.340  19.161 -0.3256  0.6560 -0.1596
 3505TIP3    H234711   2.763   0.443  19.068  0.9342 -0.2534 -2.0273
 3506TIP3   OH234712   5.846   1.144  19.050 -0.0278  0.0910  0.2629
 3506TIP3    H134713   5.858   1.050  19.064  1.0226  0.3245  1.0851
 3506TIP3    H234714   5.915   1.168  18.988 -0.8509  0.1835 -0.6561
 3507TIP3   OH234715   1.530   0.042  17.885 -0.2769 -0.7843  0.0619
 3507TIP3    H134716   1.565  -0.047  17.886  0.2676 -0.5797  1.3831
 3507TIP3    H234717   1.577   0.087  17.956 -1.4108  0.2087  0.2192
 3508TIP3   OH234718   3.439   1.074  18.608 -0.7524 -0.5097 -0.0447
 3508TIP3    H134719   3.458   1.096  18.699 -0.3285 -0.0120 -0.2511
 3508TIP3    H234720   3.468   0.983  18.599  0.9735  0.0260 -0.1804
 3509TIP3   OH234721   0.563   6.684  17.320  0.0865 -0.4011 -0.7585
 3509TIP3    H134722   0.615   6.721  17.248  0.9348 -0.7337 -0.3301
 3509TIP3    H234723   0.504   6.622  17.277  1.2198 -1.2820 -1.1016
 3510TIP3   OH234724   3.556   3.444  18.532 -0.5689 -0.2430 -0.5014
 3510TIP3    H134725   3.630   3.387  18.512 -0.4782 -0.5315  0.6014
 3510TIP3    H234726   3.549   3.442  18.627 -1.5673  0.3311 -0.5470
 3511TIP3   OH234727   4.270   4.912  17.794  0.0496  0.0136  0.0123
 3511TIP3    H134728   4.235   4.891  17.707 -0.2335  0.0357  0.1215
 3511TIP3    H234729   4.351   4.959  17.776  1.6432 -2.5983 -0.2817
 3512TIP3   OH234730   0.840   1.414  18.888  0.1248  0.7373  0.1535
 3512TIP3    H134731   0.935   1.410  18.875 -0.0548 -0.5702 -1.1823
 3512TIP3    H234732   0.811   1.323  18.876 -1.0615  0.6621  2.8880
 3513TIP3   OH234733   2.307   3.390  17.854  0.0653 -0.8407 -0.1468
 3513TIP3    H134734   2.400   3.367  17.853  0.2866  0.0226 -0.7549
 3513TIP3    H234735   2.306   3.486  17.857 -0.8050 -0.8432 -0.0280
 3514TIP3   OH234736   1.208   3.593  17.469  0.7870 -0.3560 -0.3222
 3514TIP3    H134737   1.207   3.613  17.376  0.5787 -2.3406 -0.7899
 3514TIP3    H234738   1.264   3.515  17.477 -0.8760 -1.5195  0.8850
 3515TIP3   OH234739   7.568   4.334  17.562 -0.0973 -0.5913  0.2548
 3515TIP3    H134740   7.566   4.420  17.521  0.6055  0.2744  1.9360
 3515TIP3    H234741   7.476   4.309  17.567 -0.4657  0.7926  1.1352
 3516TIP3   OH234742   3.902   2.676  18.217 -0.3221  0.5070 -0.7296
 3516TIP3    H134743   3.982   2.719  18.189 -0.7670  0.6418 -1.8410
 3516TIP3    H234744   3.867   2.732  18.287  1.5325 -0.5818  1.1935
 3517TIP3   OH234745   4.196   4.310  18.417 -0.2043  0.1447 -0.1975
 3517TIP3    H134746   4.117   4.322  18.365  0.7449  2.2112 -1.2808
 3517TIP3    H234747   4.166   4.302  18.507 -1.5977  2.5361 -0.3772
 3518TIP3   OH234748   1.492   6.763  18.435 -0.2178 -0.3404  0.3634
 3518TIP3    H134749   1.447   6.683  18.410 -0.5189  0.5934 -2.4206
 3518TIP3    H234750   1.582   6.751  18.404 -0.4822  0.6841 -0.9008
 3519TIP3   OH234751   6.312   3.907  17.900 -0.2790 -0.4714 -0.0351
 3519TIP3    H134752   6.319   3.816  17.928  0.2219  0.3833  3.0932
 3519TIP3    H234753   6.395   3.947  17.928 -0.0122  0.7547 -2.3443
 3520TIP3   OH234754   5.652   3.597  19.062  0.3188  0.1548  0.1832
 3520TIP3    H134755   5.728   3.639  19.102  0.8941  0.0070 -0.7246
 3520TIP3    H234756   5.638   3.518  19.115  2.2073 -1.0181 -0.9405
 3521TIP3   OH234757   0.163   4.172  18.082 -0.4902 -0.1819 -0.4742
 3521TIP3    H134758   0.089   4.231  18.063 -1.7137 -0.4940  2.6369
 3521TIP3    H234759   0.211   4.217  18.152 -0.9071 -2.3045  1.3128
 3522TIP3   OH234760   1.456   3.217  18.936  0.0337  0.7291 -0.1759
 3522TIP3    H134761   1.544   3.194  18.905  0.0349  1.6485 -0.9189
 3522TIP3    H234762   1.420   3.135  18.968  0.4869 -0.0475 -1.5454
 3523TIP3   OH234763   3.293   1.172  19.059  0.4547 -0.2636  0.1991
 3523TIP3    H134764   3.222   1.112  19.084 -0.9525  1.5789  0.9234
 3523TIP3    H234765   3.372   1.118  19.059 -0.8210 -2.2310  0.1625
 3524TIP3   OH234766   2.625   6.779  19.409 -0.0833  0.2669 -0.2424
 3524TIP3    H134767   2.559   6.818  19.467 -0.0263  0.4198 -0.2790
 3524TIP3    H234768   2.605   6.816  19.323 -0.7358 -0.6426 -0.5078
 3525TIP3   OH234769   3.722   2.636  19.307  0.3692  0.5585 -0.1462
 3525TIP3    H134770   3.741   2.713  19.360  0.8758 -0.7425  1.6807
 3525TIP3    H234771   3.628   2.622  19.318  0.3529  0.6725 -0.1391
 3526TIP3   OH234772   5.795   4.838  18.369  0.1022 -0.0199 -0.1566
 3526TIP3    H134773   5.782   4.799  18.282  0.5721  1.3866 -0.8900
 3526TIP3    H234774   5.770   4.930  18.358 -3.6140 -0.5575  2.2012
 3527TIP3   OH234775   3.422   3.853  18.824 -0.3154 -0.1416  0.0462
 3527TIP3    H134776   3.513   3.883  18.830  0.1127 -1.0964 -1.2867
 3527TIP3    H234777   3.399   3.863  18.731 -1.8057  0.7105  0.4709
 3528TIP3   OH234778   6.466   5.385  17.842  0.0707 -0.0471  0.4651
 3528TIP3    H134779   6.523   5.336  17.901  0.6082  0.6752  0.5518
 3528TIP3    H234780   6.431   5.456  17.895 -0.2824 -0.0135  0.1938
 3529TIP3   OH234781   6.522   7.253  16.378 -0.1407 -0.3279 -0.0269
 3529TIP3    H134782   6.555   7.273  16.290 -0.1108  0.2845  0.1189
 3529TIP3    H234783   6.448   7.195  16.363 -0.2074 -0.1346 -0.4644
 3530TIP3   OH234784   0.481   5.475  19.133  0.4228  0.8425  0.3555
 3530TIP3    H134785   0.550   5.439  19.188  1.1632 -0.2870 -1.2300
 3530TIP3    H234786   0.516   5.558  19.101 -0.1710  1.6996  1.8396
 3531TIP3   OH234787   1.625   3.030  17.790 -0.1649  0.6352  0.0354
 3531TIP3    H134788   1.668   3.111  17.817 -0.6076  1.0476 -0.4910
 3531TIP3    H234789   1.537   3.056  17.762 -0.2785 -0.0059 -0.2455
 3532TIP3   OH234790   5.666   4.473  18.240  0.3022  0.5665 -0.1090
 3532TIP3    H134791   5.626   4.389  18.265 -1.0963  1.0247 -0.7382
 3532TIP3    H234792   5.760   4.456  18.243  0.0547 -0.8541  0.3752
 3533TIP3   OH234793   1.980   4.191  17.682  0.0056 -0.6092  0.4857
 3533TIP3    H134794   1.919   4.265  17.675  2.8790  1.8263 -1.6503
 3533TIP3    H234795   1.926   4.119  17.715 -3.4687  1.8547  0.8204
 3534TIP3   OH234796   4.108   5.508  17.530  0.4828  0.6873 -0.0925
 3534TIP3    H134797   4.073   5.596  17.515  0.1496  0.6851  0.5905
 3534TIP3    H234798   4.046   5.450  17.486 -0.7844  0.6421  1.6385
 3535TIP3   OH234799   5.944   3.186  18.801  0.1497 -0.3440  0.1104
 3535TIP3    H134800   5.911   3.114  18.748  0.8411  0.0384 -0.8787
 3535TIP3    H234801   5.895   3.181  18.882 -0.3537 -1.4568 -0.2464
 3536TIP3   OH234802   7.123   2.138  17.048  0.1669  0.0505  0.0227
 3536TIP3    H134803   7.211   2.155  17.016  0.5250  1.5624  1.6488
 3536TIP3    H234804   7.089   2.225  17.071 -0.9505 -0.7027  1.3619
 3537TIP3   OH234805   4.496   3.932  17.320 -0.8418  0.5669 -0.1381
 3537TIP3    H134806   4.489   3.898  17.409 -1.6962  0.6893 -0.1435
 3537TIP3    H234807   4.430   4.001  17.316 -0.2926  1.0777 -0.6397
 3538TIP3   OH234808   1.248   6.201  18.811  0.7956  0.4239 -0.5016
 3538TIP3    H134809   1.182   6.262  18.778 -0.3731  1.0170  2.6457
 3538TIP3    H234810   1.206   6.115  18.805  0.5005  0.5551 -0.3162
 3539TIP3   OH234811   6.476   1.073  16.720  1.1481  0.8584 -0.1585
 3539TIP3    H134812   6.492   1.128  16.643  1.0697  0.3842 -0.5190
 3539TIP3    H234813   6.381   1.074  16.730  1.2554  4.1451  2.3210
 3540TIP3   OH234814   1.597   3.611  17.878  0.3717  0.1866 -0.0313
 3540TIP3    H134815   1.622   3.625  17.969 -0.0609 -0.9210  0.2793
 3540TIP3    H234816   1.619   3.693  17.834  1.5256  0.3862  0.8599
 3541TIP3   OH234817   0.032   2.093  17.209  0.0225  0.4910  0.5638
 3541TIP3    H134818   0.035   2.101  17.114 -0.9630 -0.2552  0.4481
 3541TIP3    H234819   0.123   2.099  17.237  1.0548 -4.0782 -0.8983
 3542TIP3   OH234820   1.534   1.926  19.112 -0.1297 -0.2660 -0.2618
 3542TIP3    H134821   1.606   1.926  19.176 -0.4272  1.0151  0.0866
 3542TIP3    H234822   1.515   2.018  19.097 -1.2067 -0.5828 -0.9241
 3543TIP3   OH234823   4.110   6.812  18.004  0.1762  0.3619  0.1479
 3543TIP3    H134824   4.089   6.868  18.078 -1.4357 -0.5048  0.3983
 3543TIP3    H234825   4.158   6.738  18.042 -1.6727 -0.6779  0.5694
 3544TIP3   OH234826   4.558   1.080  17.483  0.3568 -0.6750  0.4249
 3544TIP3    H134827   4.637   1.070  17.536 -0.3390  0.4573  1.7527
 3544TIP3    H234828   4.588   1.073  17.393  2.0020 -0.0844  0.8858
 3545TIP3   OH234829   5.369   1.992  18.627 -0.0681 -0.4945 -0.0773
 3545TIP3    H134830   5.350   2.026  18.540  0.3828  1.1138  0.4212
 3545TIP3    H234831   5.283   1.987  18.670 -0.2088 -0.6077 -0.3710
 3546TIP3   OH234832   0.706   4.867  18.272  0.3444 -0.4023  0.4916
 3546TIP3    H134833   0.616   4.849  18.243  1.2188 -1.8521 -1.5861
 3546TIP3    H234834   0.726   4.954  18.237  0.6542 -1.2590 -1.6281
 3547TIP3   OH234835   0.256   2.116  19.251  0.4600 -0.2016  0.3272
 3547TIP3    H134836   0.248   2.083  19.341  1.5778  0.1429  0.5804
 3547TIP3    H234837   0.350   2.135  19.242 -0.0413  2.7145  0.1399
 3548TIP3   OH234838   6.498   7.339  17.658  0.4484  0.2898  0.1319
 3548TIP3    H134839   6.433   7.297  17.715 -0.6845 -0.3594 -1.5720
 3548TIP3    H234840   6.457   7.421  17.632 -0.2909 -0.6812 -1.9437
 3549TIP3   OH234841   4.481   5.103  19.444  0.6724 -0.1687  0.3522
 3549TIP3    H134842   4.525   5.152  19.375  3.4707 -1.7497  0.8730
 3549TIP3    H234843   4.501   5.152  19.524  2.2085 -1.2459  0.6778
 3550TIP3   OH234844   3.456   6.933  17.639 -0.0073  0.8703 -0.0149
 3550TIP3    H134845   3.529   6.880  17.607 -0.5853 -1.0693  1.6047
 3550TIP3    H234846   3.446   7.003  17.575  1.3734 -0.4981 -1.8326
 3551TIP3   OH234847   5.657   1.081  19.457  0.0756 -0.1907 -0.3516
 3551TIP3    H134848   5.619   0.994  19.444  1.7851 -0.7259 -2.2402
 3551TIP3    H234849   5.752   1.066  19.456  0.3984  1.6810 -0.5418
 3552TIP3   OH234850   1.805   3.861  17.401 -0.0347  0.0832  0.5290
 3552TIP3    H134851   1.726   3.861  17.456  1.2353  0.3976  2.4396
 3552TIP3    H234852   1.836   3.771  17.404  0.1700  0.1530  0.5244
 3553TIP3   OH234853   3.124   6.420  19.621 -0.0039 -0.0198 -0.4303
 3553TIP3    H134854   3.090   6.466  19.697 -1.3012  2.6022 -2.4420
 3553TIP3    H234855   3.216   6.445  19.617  0.0214 -0.0056  0.1423
 3554TIP3   OH234856   4.919   5.426  18.816 -0.0220 -0.0518 -0.0503
 3554TIP3    H134857   5.002   5.414  18.770 -0.9091 -1.4934 -1.4174
 3554TIP3    H234858   4.860   5.363  18.773 -1.6013  0.3917  1.3930
 3555TIP3   OH234859   3.229   6.585  18.284  0.0370  0.0259  0.0329
 3555TIP3    H134860   3.159   6.611  18.344 -0.2969 -0.2115 -0.2498
 3555TIP3    H234861   3.192   6.597  18.197 -0.4718 -2.2420 -0.1317
 3556TIP3   OH234862   2.628   4.897  17.422 -0.0053 -0.1117 -0.1012
 3556TIP3    H134863   2.602   4.966  17.484 -0.3647  0.7069 -1.1249
 3556TIP3    H234864   2.724   4.898  17.423  0.0077  0.9298 -0.6332
 3557TIP3   OH234865   1.848   6.406  19.002  0.5013  0.3651  0.0461
 3557TIP3    H134866   1.866   6.359  19.084  1.8248 -1.0501 -1.0082
 3557TIP3    H234867   1.793   6.480  19.029 -0.4401 -0.9587  1.9749
 3558TIP3   OH234868   2.037   2.070  19.557  0.3761  0.2679  0.6119
 3558TIP3    H134869   1.985   2.138  19.514 -1.2087 -1.8305 -1.0408
 3558TIP3    H234870   1.975   2.024  19.613  0.4569 -1.9320 -0.9610
 3559TIP3   OH234871   6.755   4.016  17.359 -0.3014 -0.0312 -0.1370
 3559TIP3    H134872   6.816   4.090  17.361  0.5708 -0.6770  2.7898
 3559TIP3    H234873   6.800   3.948  17.310 -0.5603  0.8929 -1.7236
 3560TIP3   OH234874   5.646   1.863  19.150  1.4203 -0.0108  0.1605
 3560TIP3    H134875   5.585   1.861  19.224  1.0380 -0.1237 -0.1545
 3560TIP3    H234876   5.596   1.902  19.078  0.7055 -2.8456 -0.9939
 3561TIP3   OH234877   2.990   0.083  19.494 -0.3024 -0.1231  0.1502
 3561TIP3    H134878   2.909   0.040  19.520 -0.7249  0.6817  0.2007
 3561TIP3    H234879   3.037   0.098  19.577 -0.0553 -0.6556  0.1156
 3562TIP3   OH234880   0.266   1.566  17.217  0.7696  0.0118  0.1184
 3562TIP3    H134881   0.321   1.488  17.209  0.2315 -0.2932 -0.7612
 3562TIP3    H234882   0.232   1.580  17.128 -1.4127 -0.4198  0.8339
 3563TIP3   OH234883   2.837   2.996  18.503 -0.0484 -0.1573  0.1410
 3563TIP3    H134884   2.903   2.933  18.531  1.1247  0.4677 -1.0839
 3563TIP3    H234885   2.801   2.958  18.422  0.0344  0.3187 -0.1216
 3564TIP3   OH234886   2.342   7.139  18.703 -0.2556  0.1133 -0.5338
 3564TIP3    H134887   2.396   7.122  18.626 -0.3207  1.6820 -0.9587
 3564TIP3    H234888   2.401   7.130  18.777  0.3850  0.8889 -0.9362
 3565TIP3   OH234889   4.624   7.440  17.516 -0.7403  0.1781  0.6015
 3565TIP3    H134890   4.539   7.484  17.522  0.3697  3.1809 -2.4908
 3565TIP3    H234891   4.652   7.453  17.425  3.0593 -0.5978  1.4615
 3566TIP3   OH234892   7.518   0.475  17.630  0.2701 -0.0169 -0.0876
 3566TIP3    H134893   7.531   0.448  17.539 -0.9439  1.4430 -0.7329
 3566TIP3    H234894   7.438   0.429  17.658  0.4421 -0.1857  0.1341
 3567TIP3   OH234895   1.884   7.008  16.759 -0.1497 -0.1193 -0.5407
 3567TIP3    H134896   1.883   6.941  16.691 -2.7067 -0.8622  0.1319
 3567TIP3    H234897   1.973   7.003  16.795 -0.0677 -2.8164 -0.8800
 3568TIP3   OH234898   6.759   4.337  17.182 -0.2981  0.0501  0.3310
 3568TIP3    H134899   6.696   4.293  17.239  0.4917 -0.5029  0.7873
 3568TIP3    H234900   6.716   4.420  17.159 -0.6286  0.2921  1.7413
 3569TIP3   OH234901   7.533   6.806  18.370  0.6333 -0.0263  0.0712
 3569TIP3    H134902   7.490   6.727  18.337  0.2503  0.7053 -1.2818
 3569TIP3    H234903   7.592   6.775  18.439  0.2566 -1.4392 -0.2092
 3570TIP3   OH234904   2.462   0.911  18.599  0.2958  0.3942 -0.0368
 3570TIP3    H134905   2.452   0.891  18.693  0.5978 -1.1812 -0.3082
 3570TIP3    H234906   2.409   0.990  18.586 -0.3445  0.2294  1.3123
 3571TIP3   OH234907   3.578   4.739  18.199 -0.6533  0.4655  0.2767
 3571TIP3    H134908   3.585   4.809  18.264  1.0861  0.7825 -0.2003
 3571TIP3    H234909   3.572   4.785  18.115 -0.1814  0.0453  0.0114
 3572TIP3   OH234910   3.364   6.051  17.550 -0.2599  0.1014 -0.3131
 3572TIP3    H134911   3.287   6.005  17.518  0.6413 -1.3004 -0.5770
 3572TIP3    H234912   3.423   5.982  17.579  0.7444  1.1540  0.2697
 3573TIP3   OH234913   0.545   0.859  18.216 -0.0585  0.3763 -0.4199
 3573TIP3    H134914   0.630   0.902  18.215  0.8215 -1.2802 -0.2572
 3573TIP3    H234915   0.503   0.890  18.297 -0.3054  2.3975 -1.2544
 3574TIP3   OH234916   2.224   6.619  18.510  0.0968  0.1928  0.1902
 3574TIP3    H134917   2.247   6.560  18.581  1.2432  2.3358  1.6840
 3574TIP3    H234918   2.305   6.633  18.462 -0.0054  1.0800  0.2633
 3575TIP3   OH234919   5.067   2.787  19.060  0.1156 -0.0611 -0.0355
 3575TIP3    H134920   5.160   2.767  19.067  0.0932 -0.5092 -0.8639
 3575TIP3    H234921   5.053   2.860  19.121  0.5251 -1.4842  1.8283
 3576TIP3   OH234922   3.632   0.106  18.228 -0.1211 -0.4579 -0.2940
 3576TIP3    H134923   3.680   0.031  18.264 -2.0415 -1.2246  0.8726
 3576TIP3    H234924   3.549   0.068  18.197 -0.6494  1.0172 -0.7740
 3577TIP3   OH234925   1.784   4.991  18.075  0.2814  0.2257  0.2748
 3577TIP3    H134926   1.747   4.957  18.157  1.2313 -2.4171 -0.3100
 3577TIP3    H234927   1.726   4.957  18.007  0.0480  1.6225 -0.2683
 3578TIP3   OH234928   6.328   5.578  17.956 -0.0378  0.2282  0.2250
 3578TIP3    H134929   6.349   5.670  17.972  0.3000  0.1982 -0.0247
 3578TIP3    H234930   6.232   5.577  17.950 -0.0120  0.6812 -0.4319
 3579TIP3   OH234931   3.624   1.253  17.292  0.2672 -0.1565 -0.4311
 3579TIP3    H134932   3.663   1.212  17.216  0.0705  1.0840 -1.2215
 3579TIP3    H234933   3.635   1.347  17.278 -1.1088  0.1533  0.3268
 3580TIP3   OH234934   4.363   6.149  18.458 -0.4686 -0.1691  0.3568
 3580TIP3    H134935   4.360   6.231  18.509 -0.3949  1.1306 -1.6014
 3580TIP3    H234936   4.443   6.158  18.406  1.1436 -2.8586  2.1446
 3581TIP3   OH234937   7.236   3.954  19.446  1.0683 -0.0407  0.1647
 3581TIP3    H134938   7.321   3.956  19.401  1.2983  3.1663  0.5069
 3581TIP3    H234939   7.228   4.041  19.485 -1.9856 -0.5706  0.9436
 3582TIP3   OH234940   6.380   0.621  17.677  0.0281 -0.3533 -0.0100
 3582TIP3    H134941   6.409   0.649  17.589 -2.0055  2.1646 -0.0020
 3582TIP3    H234942   6.358   0.529  17.667  0.6152 -0.3358 -1.9190
 3583TIP3   OH234943   4.426   5.125  17.069  0.1691  0.0889 -0.1562
 3583TIP3    H134944   4.429   5.106  17.162  1.3734 -0.5969 -0.3062
 3583TIP3    H234945   4.337   5.155  17.053  0.0255  0.4978  1.2604
 3584TIP3   OH234946   4.708   6.338  17.059  0.3986 -0.4094 -0.1145
 3584TIP3    H134947   4.714   6.246  17.033 -0.6168 -0.8451  1.0772
 3584TIP3    H234948   4.644   6.376  16.998 -2.2887 -1.5217  1.7904
 3585TIP3   OH234949   0.831   6.499  16.645  0.0013 -0.1671  0.5412
 3585TIP3    H134950   0.813   6.561  16.716  1.3103  0.2056  0.5709
 3585TIP3    H234951   0.914   6.459  16.668  0.4099 -0.1003 -0.7365
 3586TIP3   OH234952   6.560   4.039  17.712  0.4452  0.0473 -0.0841
 3586TIP3    H134953   6.510   4.117  17.688  0.7915 -0.2342 -1.8347
 3586TIP3    H234954   6.558   4.038  17.808 -0.0367  1.8839 -0.0400
 3587TIP3   OH234955   2.564   3.977  18.134  0.1149 -0.8771 -0.0001
 3587TIP3    H134956   2.619   3.912  18.179  1.3537 -0.3903 -0.7792
 3587TIP3    H234957   2.598   3.980  18.045 -1.1390 -0.4915 -0.4913
 3588TIP3   OH234958   4.977   6.797  18.055 -0.3688 -0.3758 -0.3994
 3588TIP3    H134959   4.958   6.888  18.079  2.1307 -0.0225  0.6021
 3588TIP3    H234960   5.036   6.803  17.980  1.6482 -0.9942  1.0354
 3589TIP3   OH234961   3.523   3.660  17.825 -0.2953 -0.1231  0.2253
 3589TIP3    H134962   3.543   3.724  17.757 -0.5699 -1.4492 -1.1571
 3589TIP3    H234963   3.583   3.681  17.896  0.4495  0.9133 -0.6736
 3590TIP3   OH234964   1.104   6.961  18.182 -0.3745  0.0001  0.5214
 3590TIP3    H134965   1.047   7.032  18.151  0.5716  1.2037  1.4673
 3590TIP3    H234966   1.077   6.947  18.273  1.1056  0.9103  1.1343
 3591TIP3   OH234967   6.290   5.488  16.956  0.9964  0.3450  0.0571
 3591TIP3    H134968   6.346   5.435  17.013  1.8107  0.0313 -1.0151
 3591TIP3    H234969   6.350   5.541  16.904  0.3110  0.1187 -1.0065
 3592TIP3   OH234970   4.954   6.434  19.021  0.2929  0.5271 -0.5701
 3592TIP3    H134971   4.938   6.345  18.990 -2.4462  0.7872 -0.1897
 3592TIP3    H234972   5.037   6.429  19.068 -0.3326 -2.1141  0.4209
 3593TIP3   OH234973   0.370   5.050  19.677 -0.5633  1.1076  0.0939
 3593TIP3    H134974   0.309   5.095  19.735 -0.5495  1.6585 -0.3189
 3593TIP3    H234975   0.456   5.072  19.712 -0.4712  2.9299 -1.1845
 3594TIP3   OH234976   6.599   0.033  17.326  0.0967 -0.7176  0.0489
 3594TIP3    H134977   6.571  -0.055  17.351  3.7032 -2.2012 -0.5631
 3594TIP3    H234978   6.605   0.031  17.231 -1.1007  0.7430 -0.1133
 3595TIP3   OH234979   0.472   6.904  18.103  0.5932 -0.0747 -0.8444
 3595TIP3    H134980   0.511   6.985  18.136  3.6252 -0.9237 -1.9112
 3595TIP3    H234981   0.419   6.931  18.028 -1.1897  1.1870  0.8086
 3596TIP3   OH234982   2.920   4.223  16.876  0.3075 -0.4672  0.4342
 3596TIP3    H134983   2.933   4.314  16.901  1.3961 -0.5405  0.1781
 3596TIP3    H234984   2.911   4.225  16.781  0.7164 -0.6549  0.3865
 3597TIP3   OH234985   2.324   4.068  18.055  0.2941 -0.1470 -0.8032
 3597TIP3    H134986   2.269   3.991  18.046 -0.2932  0.0326  0.8509
 3597TIP3    H234987   2.398   4.038  18.108 -0.5760  0.6743  0.9539
 3598TIP3   OH234988   0.303   4.295  18.278 -0.8452 -0.4440  0.1439
 3598TIP3    H134989   0.312   4.342  18.361 -1.3301 -1.1250  0.5891
 3598TIP3    H234990   0.392   4.287  18.245 -0.7449  0.6814  0.1203
 3599TIP3   OH234991   3.017   1.181  17.862 -0.1938  0.4828  0.0702
 3599TIP3    H134992   3.042   1.232  17.785  0.0636 -1.9623 -1.5997
 3599TIP3    H234993   2.922   1.167  17.852 -0.2952  0.7819  0.6008
 3600TIP3   OH234994   3.723   5.739  18.307 -0.2238 -0.0753  0.3633
 3600TIP3    H134995   3.706   5.832  18.295  1.0884  0.2530  0.8335
 3600TIP3    H234996   3.782   5.735  18.382 -1.0880 -1.3777  1.0140
 3601TIP3   OH234997   6.870   7.124  18.726 -0.1471  0.1697  0.1382
 3601TIP3    H134998   6.784   7.111  18.766 -0.8215  0.1571 -1.2853
 3601TIP3    H234999   6.865   7.210  18.685  0.7665  0.4701  0.6305
 3602TIP3   OH235000   4.428   6.194  18.745  0.7363  0.7364  0.1393
 3602TIP3    H135001   4.458   6.178  18.834 -0.3782  0.2838  0.4440
 3602TIP3    H235002   4.497   6.159  18.689 -0.2842 -2.6971  0.7933
 3603TIP3   OH235003   5.902   5.512  18.880  0.6055 -0.4968 -0.2702
 3603TIP3    H135004   5.968   5.552  18.936  1.2855 -2.6732  0.5826
 3603TIP3    H235005   5.820   5.555  18.906  1.5821  2.3615 -1.4707
 3604TIP3   OH235006   5.335   2.964  18.806 -0.7223 -0.2076 -0.5541
 3604TIP3    H135007   5.397   2.933  18.740 -0.3416  1.0259 -0.8136
 3604TIP3    H235008   5.391   3.005  18.873 -1.2433  1.2610 -0.9712
 3605TIP3   OH235009   2.033   4.723  17.791  0.0585 -0.0561  0.2654
 3605TIP3    H135010   2.038   4.659  17.862  1.3224 -1.4150 -0.9890
 3605TIP3    H235011   1.941   4.721  17.763 -0.7097  1.2398  2.4456
 3606TIP3   OH235012   2.262   0.395  16.953 -0.4259  0.0884 -0.6593
 3606TIP3    H135013   2.282   0.471  16.898  0.4326 -0.2349 -0.8125
 3606TIP3    H235014   2.346   0.351  16.965 -1.0719 -1.4810 -1.5185
 3607TIP3   OH235015   0.130   2.817  19.309  0.4847  0.5310  0.1352
 3607TIP3    H135016   0.094   2.831  19.396 -0.4144 -0.5426 -0.0363
 3607TIP3    H235017   0.191   2.745  19.319  0.0255  0.0840 -0.1892
 3608TIP3   OH235018   0.783   4.006  17.678 -0.3513  0.2089 -0.3619
 3608TIP3    H135019   0.753   3.950  17.606 -0.9508  0.7263 -0.5293
 3608TIP3    H235020   0.848   4.064  17.638  0.1860 -0.2849 -0.2129
 3609TIP3   OH235021   0.761   2.191  17.491 -0.3650 -0.2326 -0.2409
 3609TIP3    H135022   0.759   2.110  17.440 -1.2013  0.1494 -0.8442
 3609TIP3    H235023   0.669   2.213  17.505 -0.1682  1.0614 -0.8110
 3610TIP3   OH235024   6.065   5.195  19.431  0.2171  0.0903 -0.3028
 3610TIP3    H135025   5.994   5.257  19.450  1.0410  0.3277  2.4542
 3610TIP3    H235026   6.142   5.233  19.474  1.1639 -1.9964 -0.0515
 3611TIP3   OH235027   0.245   2.077  17.830 -0.2828 -0.4964 -0.6676
 3611TIP3    H135028   0.202   2.134  17.766  0.0556 -0.6342 -1.0145
 3611TIP3    H235029   0.225   1.988  17.801 -0.7067 -0.5617 -0.1938
 3612TIP3   OH235030   5.215   0.284  19.313  0.4379  0.7120 -0.1309
 3612TIP3    H135031   5.226   0.225  19.238  1.7227  0.6394  0.0970
 3612TIP3    H235032   5.120   0.291  19.324  0.2292 -1.3903 -0.1074
 3613TIP3   OH235033   1.863   6.276  19.286  0.1415  0.5369  0.0061
 3613TIP3    H135034   1.836   6.276  19.378  0.2553 -0.5840  0.0583
 3613TIP3    H235035   1.926   6.204  19.280 -2.1472 -1.4878 -1.5743
 3614TIP3   OH235036   1.669   1.907  17.422 -0.2833  0.3044  0.4433
 3614TIP3    H135037   1.662   2.000  17.400 -0.0169  0.7291  2.0249
 3614TIP3    H235038   1.752   1.900  17.469 -0.6865 -0.5869  1.0429
 3615TIP3   OH235039   1.908   1.401  19.202 -0.3008 -0.3808 -0.2707
 3615TIP3    H135040   1.960   1.445  19.135  0.0822 -3.2789 -2.0701
 3615TIP3    H235041   1.970   1.383  19.273 -0.0742  0.4447 -0.2514
 3616TIP3   OH235042   7.458   4.291  19.051 -0.5984 -0.0062 -0.1911
 3616TIP3    H135043   7.449   4.364  19.113 -1.1546  0.2104 -0.5233
 3616TIP3    H235044   7.484   4.332  18.969  1.1828 -0.3913  0.1408
 3617TIP3   OH235045   6.829   0.916  18.408 -0.0830 -0.1049 -0.2555
 3617TIP3    H135046   6.903   0.865  18.442  1.5732  3.0741  1.3707
 3617TIP3    H235047   6.781   0.944  18.487 -1.5922 -0.0604 -1.1445
 3618TIP3   OH235048   1.711   6.297  19.551 -0.0285  0.1025  0.9611
 3618TIP3    H135049   1.701   6.379  19.502 -1.0561 -1.1377 -1.0462
 3618TIP3    H235050   1.622   6.276  19.581  0.3455  0.0513  2.0916
 3619TIP3   OH235051   3.268   0.766  19.076 -0.1833  0.4769 -0.4210
 3619TIP3    H135052   3.352   0.755  19.032 -0.4217 -0.2442 -0.7150
 3619TIP3    H235053   3.219   0.824  19.018 -0.0105  0.6241 -0.4207
 3620TIP3   OH235054   7.309   3.938  18.281  0.5814  0.6781  0.2381
 3620TIP3    H135055   7.358   3.997  18.224  0.1074  1.0751  0.2337
 3620TIP3    H235056   7.223   3.980  18.291 -0.4568 -0.9205 -1.2997
 3621TIP3   OH235057   4.543   6.025  17.445 -0.2143 -0.4664 -0.2348
 3621TIP3    H135058   4.567   6.023  17.538 -0.7308 -1.7241 -0.1053
 3621TIP3    H235059   4.624   6.003  17.400 -0.2416 -1.0627 -0.0042
 3622TIP3   OH235060   6.511   3.376  19.305 -0.5748  0.0979  0.8388
 3622TIP3    H135061   6.486   3.467  19.285 -0.2296  0.3295  1.4191
 3622TIP3    H235062   6.604   3.382  19.328  0.1634 -0.7910 -1.6006
 3623TIP3   OH235063   5.527   6.746  19.286  0.4178 -0.2630 -0.2098
 3623TIP3    H135064   5.555   6.764  19.196  3.5708  1.2209  0.9295
 3623TIP3    H235065   5.533   6.651  19.294  1.4168 -0.3065 -1.2052
 3624TIP3   OH235066   2.019   0.173  18.928  0.0704 -0.9496 -0.2047
 3624TIP3    H135067   2.009   0.087  18.888 -1.9636 -0.5913 -0.5739
 3624TIP3    H235068   1.944   0.224  18.895  1.0730  0.8895  0.1898
 3625TIP3   OH235069   5.485   7.626  19.055  0.1309 -0.2902  0.4652
 3625TIP3    H135070   5.511   7.552  19.001 -1.9869 -0.7449  0.0102
 3625TIP3    H235071   5.497   7.702  18.998  2.1075 -0.2220  0.8691
 3626TIP3   OH235072   6.481   1.660  17.289 -0.0488  0.2303  0.4440
 3626TIP3    H135073   6.419   1.693  17.353  0.7109  0.4934  1.0659
 3626TIP3    H235074   6.566   1.669  17.331  0.3832 -0.4551 -0.2443
 3627TIP3   OH235075   7.331   0.286  17.714  0.1957 -0.2948 -0.0837
 3627TIP3    H135076   7.267   0.276  17.784  1.2865  2.2827  1.3979
 3627TIP3    H235077   7.347   0.196  17.683 -1.1395 -1.3903  2.1833
 3628TIP3   OH235078   0.162   7.471  17.411 -0.2385 -0.0516  0.4020
 3628TIP3    H135079   0.073   7.463  17.445 -0.2566 -1.2231  0.1167
 3628TIP3    H235080   0.218   7.456  17.488 -0.2215  3.1521  1.1448
 3629TIP3   OH235081   1.879   0.850  17.744  0.4788 -0.0591 -0.2416
 3629TIP3    H135082   1.825   0.840  17.666 -0.9948  1.1776  0.5757
 3629TIP3    H235083   1.838   0.794  17.810 -0.1809  1.2939  0.5415
 3630TIP3   OH235084   5.336   6.963  19.386 -0.2763  1.0027  0.7369
 3630TIP3    H135085   5.396   6.899  19.349  0.9666  1.0036  2.5943
 3630TIP3    H235086   5.306   6.923  19.468 -1.4871  1.7359  0.6761
 3631TIP3   OH235087   3.892   2.272  17.664  0.0863  0.2252  0.0569
 3631TIP3    H135088   3.799   2.251  17.671  0.3637 -1.3377 -0.6590
 3631TIP3    H235089   3.936   2.212  17.724  0.7356  0.1250 -0.5033
 3632TIP3   OH235090   2.094   1.160  19.116 -0.0902 -0.2213  0.4462
 3632TIP3    H135091   2.107   1.209  19.035  0.6583 -1.0552  0.0446
 3632TIP3    H235092   2.178   1.164  19.161 -0.2904 -0.3631  0.8465
 3633TIP3   OH235093   6.095   0.286  17.775 -0.2267 -0.1301  0.0245
 3633TIP3    H135094   6.087   0.240  17.691  1.4796 -2.3541  0.9639
 3633TIP3    H235095   6.185   0.318  17.776 -0.0670 -0.5900  1.2023
 3634TIP3   OH235096   5.155   7.411  18.924 -0.3351  0.7260  0.2015
 3634TIP3    H135097   5.129   7.423  19.015 -0.8900 -1.8774  0.4768
 3634TIP3    H235098   5.156   7.499  18.887 -0.7885  1.7834  2.5229
 3635TIP3   OH235099   0.613   1.673  18.297  0.8300 -0.3070  0.3608
 3635TIP3    H135100   0.577   1.599  18.247 -0.1265  0.0375  0.5078
 3635TIP3    H235101   0.608   1.747  18.236 -0.4669  0.1453  0.9851
 3636TIP3   OH235102   2.447   3.609  17.416  0.3478 -0.8558 -0.5009
 3636TIP3    H135103   2.426   3.677  17.479  0.9069 -0.6892 -0.4905
 3636TIP3    H235104   2.527   3.640  17.372  0.6914 -1.5594 -0.3930
 3637TIP3   OH235105   3.623   7.447  17.505 -0.1648 -0.3764 -0.7265
 3637TIP3    H135106   3.544   7.397  17.524  0.1585 -0.7658 -0.3685
 3637TIP3    H235107   3.649   7.484  17.590  1.3805 -2.2548 -0.3106
 3638TIP3   OH235108   6.719   5.357  19.376 -0.1281  0.1438  0.0243
 3638TIP3    H135109   6.811   5.355  19.350 -0.7187 -0.0939 -2.1886
 3638TIP3    H235110   6.688   5.444  19.349 -0.5140  0.3366  1.0196
 3639TIP3   OH235111   0.719   2.399  18.058 -0.6365 -0.2701 -0.0264
 3639TIP3    H135112   0.807   2.385  18.022 -1.1322 -0.5225 -1.1718
 3639TIP3    H235113   0.713   2.493  18.071  0.5786 -0.4257  2.1481
 3640TIP3   OH235114   4.491   6.502  17.310  0.3481 -0.2232 -0.1138
 3640TIP3    H135115   4.415   6.544  17.350 -0.0929  0.9340 -2.0669
 3640TIP3    H235116   4.513   6.431  17.371  0.2058  1.8536  2.5441
 3641TIP3   OH235117   7.391   2.759  18.136 -0.2715 -0.4430  0.0306
 3641TIP3    H135118   7.438   2.682  18.105 -0.5406 -1.2268  1.5048
 3641TIP3    H235119   7.308   2.725  18.169  0.2101  0.2494  2.0808
 3642TIP3   OH235120   1.339   3.427  18.776 -0.4133  0.1006 -0.0872
 3642TIP3    H135121   1.382   3.345  18.803 -0.4007  0.3775  0.7694
 3642TIP3    H235122   1.245   3.409  18.785 -0.3851  0.7729  2.0011
 3643TIP3   OH235123   1.609   2.837  16.939 -0.7112  0.1905  0.1110
 3643TIP3    H135124   1.672   2.859  16.871  0.5704 -0.3254  1.0883
 3643TIP3    H235125   1.659   2.839  17.020 -2.2925  1.2472  1.1266
 3644TIP3   OH235126   2.876   5.853  18.167  0.0699  0.0895 -0.4617
 3644TIP3    H135127   2.891   5.885  18.255 -0.0364  1.2242 -0.8444
 3644TIP3    H235128   2.782   5.838  18.162 -0.3883  2.7405 -1.2289
 3645TIP3   OH235129   6.081   0.696  17.027  0.2371  0.3139 -0.0274
 3645TIP3    H135130   6.101   0.764  16.963 -0.9884  0.8234  0.1001
 3645TIP3    H235131   6.163   0.648  17.038  0.1946 -0.5126 -2.8045
 3646TIP3   OH235132   5.400   7.397  18.563  0.1511 -0.3794 -0.4303
 3646TIP3    H135133   5.332   7.463  18.549  1.8258  1.4932 -0.2124
 3646TIP3    H235134   5.437   7.419  18.648 -0.8815 -3.2208  0.8870
 3647TIP3   OH235135   1.353   5.798  17.325  0.8784  0.3868 -0.3431
 3647TIP3    H135136   1.276   5.850  17.301  1.1185  1.9416  1.9036
 3647TIP3    H235137   1.318   5.710  17.338 -0.2787  0.7699 -0.6783
 3648TIP3   OH235138   0.490   6.046  18.683 -0.3069  0.1328 -0.4677
 3648TIP3    H135139   0.486   5.967  18.737  1.4459 -0.1488 -0.7090
 3648TIP3    H235140   0.516   6.014  18.596 -1.3459  0.7947 -1.0464
 3649TIP3   OH235141   5.468   2.364  18.128 -0.3477 -0.5981 -0.3239
 3649TIP3    H135142   5.406   2.387  18.059 -0.3853 -1.5428 -0.6315
 3649TIP3    H235143   5.414   2.322  18.196 -0.4688  1.2502  0.7749
 3650TIP3   OH235144   4.149   1.951  18.637  0.0683 -0.1028  0.0466
 3650TIP3    H135145   4.157   1.967  18.542 -1.3804 -2.1274 -0.4808
 3650TIP3    H235146   4.238   1.932  18.665  0.2098 -2.3656 -1.5685
 3651TIP3   OH235147   2.943   3.411  17.809 -0.0018  0.1072 -0.1127
 3651TIP3    H135148   2.881   3.342  17.830 -1.2498  0.6899 -1.7490
 3651TIP3    H235149   2.893   3.475  17.759  1.6748  1.0885 -0.6301
 3652TIP3   OH235150   3.196   3.448  17.426  0.2287  0.0385  0.4292
 3652TIP3    H135151   3.101   3.448  17.417  0.1719  1.7787  0.7339
 3652TIP3    H235152   3.227   3.397  17.351 -0.9484 -1.2632  0.7751
 3653TIP3   OH235153   0.336   0.046  17.593  0.1788  0.0366  0.1227
 3653TIP3    H135154   0.320   0.137  17.619 -1.9542  0.0265 -0.8977
 3653TIP3    H235155   0.360   0.002  17.674 -0.7967  1.1171  1.0397
 3654TIP3   OH235156   7.457   6.619  17.836  0.5007  0.2228 -0.1722
 3654TIP3    H135157   7.399   6.689  17.809  0.1666  0.5382  1.2630
 3654TIP3    H235158   7.402   6.541  17.840  0.8100 -0.0932 -1.4856
 3655TIP3   OH235159   5.174   4.144  17.796  0.3645  0.3542 -0.0350
 3655TIP3    H135160   5.145   4.200  17.869  1.0754 -0.5670  0.9913
 3655TIP3    H235161   5.233   4.081  17.837 -0.7003 -1.3918 -1.0945
 3656TIP3   OH235162   0.304   6.718  19.605  0.1897 -0.0546 -0.2668
 3656TIP3    H135163   0.341   6.770  19.676  1.2436  0.9329 -1.5033
 3656TIP3    H235164   0.369   6.721  19.536 -0.5485 -1.5063 -1.0762
 3657TIP3   OH235165   2.756   1.087  17.740  0.2109  0.2454  0.1974
 3657TIP3    H135166   2.756   1.021  17.809  0.3720  0.4729  0.4179
 3657TIP3    H235167   2.671   1.077  17.697  0.5924 -0.7157 -0.3648
 3658TIP3   OH235168   1.137   2.484  18.625 -0.1739 -0.5144 -0.2223
 3658TIP3    H135169   1.178   2.558  18.580  1.3803 -1.0254  0.2949
 3658TIP3    H235170   1.172   2.488  18.714 -0.8683 -1.2882  0.0963
 3659TIP3   OH235171   4.663   4.667  19.219 -0.2910  0.7397 -0.0844
 3659TIP3    H135172   4.571   4.666  19.192  0.2020  1.0926 -1.9347
 3659TIP3    H235173   4.662   4.634  19.309 -2.2589  1.1087  0.0752
 3660TIP3   OH235174   0.684   7.434  18.418 -0.1036  0.9232  0.4022
 3660TIP3    H135175   0.726   7.520  18.418  0.7763  0.5057  0.5047
 3660TIP3    H235176   0.619   7.440  18.347 -0.3077  1.7807  0.6453
 3661TIP3   OH235177   6.879   7.585  17.377 -0.2390 -0.1030 -0.4481
 3661TIP3    H135178   6.886   7.538  17.460  0.1666  0.4969 -0.1387
 3661TIP3    H235179   6.789   7.618  17.376 -0.0003  0.5881  0.1394
 3662TIP3   OH235180   7.625   1.737  19.279 -0.3703 -0.1708 -0.2199
 3662TIP3    H135181   7.635   1.648  19.313 -3.0936 -2.1943 -3.9647
 3662TIP3    H235182   7.533   1.759  19.297 -0.3486  0.9188 -1.3309
 3663TIP3   OH235183   1.153   6.133  17.462  0.0597 -0.2163  0.8476
 3663TIP3    H135184   1.149   6.075  17.385  0.2324  0.0629  0.6256
 3663TIP3    H235185   1.245   6.159  17.467 -0.5347  2.7563 -1.1041
 3664TIP3   OH235186   7.283   6.627  19.048 -0.8726  0.2804  0.0331
 3664TIP3    H135187   7.274   6.715  19.011  0.0793  0.9557  1.2982
 3664TIP3    H235188   7.364   6.594  19.010 -1.6041 -0.3739 -1.0087
 3665TIP3   OH235189   6.979   2.821  19.033  0.3430  0.0225  0.4365
 3665TIP3    H135190   6.975   2.822  18.937 -2.2572 -1.3864  0.4605
 3665TIP3    H235191   7.067   2.788  19.053  0.1339 -1.9171 -1.5141
 3666TIP3   OH235192   6.040   1.228  18.880  0.6146 -0.2461  0.1826
 3666TIP3    H135193   5.989   1.267  18.809 -1.0760  0.5810  1.7713
 3666TIP3    H235194   6.123   1.277  18.880  0.6743 -0.3140 -1.2382
 3667TIP3   OH235195   1.897   1.976  18.595  0.6983  0.2723  0.0417
 3667TIP3    H135196   1.901   2.060  18.548  0.3286  0.9001  1.1021
 3667TIP3    H235197   1.987   1.959  18.622  0.8187  0.1820 -0.3957
 3668TIP3   OH235198   5.076   5.259  19.011 -0.5694  0.5368  0.0027
 3668TIP3    H135199   4.998   5.310  18.989 -1.3135 -0.6534 -0.1730
 3668TIP3    H235200   5.042   5.176  19.045  0.6104  0.4496  1.0609
 3669TIP3   OH235201   3.627   4.911  18.447  0.1369  0.2424  0.6051
 3669TIP3    H135202   3.563   4.977  18.473 -3.1246 -1.9843 -1.1938
 3669TIP3    H235203   3.650   4.867  18.529 -0.4219  1.2208  1.3153
 3670TIP3   OH235204   3.885   0.542  19.507 -0.7702 -0.1747 -0.2132
 3670TIP3    H135205   3.935   0.521  19.586 -2.4158 -0.4993  0.7867
 3670TIP3    H235206   3.864   0.457  19.468  0.3467 -0.0113 -1.2584
 3671TIP3   OH235207   2.378   6.665  17.875  0.1032 -0.2165  0.2525
 3671TIP3    H135208   2.353   6.703  17.790  1.9773  0.2539 -0.1501
 3671TIP3    H235209   2.345   6.727  17.940 -1.8366 -0.8596 -0.0633
 3672TIP3   OH235210   3.039   4.979  18.354  0.5946 -0.0348 -0.6029
 3672TIP3    H135211   3.090   4.922  18.296  1.1485  0.5847 -0.7250
 3672TIP3    H235212   3.103   5.017  18.413  0.0151 -0.7602  0.5252
 3673TIP3   OH235213   6.416   3.156  18.187 -0.1784  0.3187  0.0876
 3673TIP3    H135214   6.421   3.252  18.192 -2.3741  0.6568 -1.9202
 3673TIP3    H235215   6.377   3.140  18.101  1.2899 -2.4731 -0.1527
 3674TIP3   OH235216   2.933   0.420  18.070  0.4150  0.4237 -0.1318
 3674TIP3    H135217   2.966   0.491  18.126  0.9225 -0.9569  1.3991
 3674TIP3    H235218   2.902   0.464  17.991  1.9683  2.2166  0.1922
 3675TIP3   OH235219   3.884   3.105  18.012 -0.0286  0.7427  0.0316
 3675TIP3    H135220   3.884   3.181  17.954  0.3582  1.0339  0.4072
 3675TIP3    H235221   3.898   3.142  18.099 -1.9503  0.4455  0.5075
 3676TIP3   OH235222   2.047   0.367  19.188  0.4974 -0.1253 -0.4473
 3676TIP3    H135223   2.026   0.318  19.109 -1.4599 -1.2733  0.6993
 3676TIP3    H235224   2.090   0.304  19.245  1.7547  0.6510 -0.5143
 3677TIP3   OH235225   1.974   7.258  18.209  0.3287  0.1989  0.1444
 3677TIP3    H135226   1.908   7.325  18.229  2.5752  2.3240  0.9107
 3677TIP3    H235227   2.035   7.302  18.150  0.1786 -2.2773 -2.0380
 3678TIP3   OH235228   6.393   0.843  18.048  0.0340  0.7465 -0.5199
 3678TIP3    H135229   6.469   0.814  18.098 -0.3079  0.9855  0.1499
 3678TIP3    H235230   6.318   0.817  18.101 -0.3331  1.1228 -0.8478
 3679TIP3   OH235231   0.112   2.032  19.032 -0.0232  0.1866  0.4536
 3679TIP3    H135232   0.023   2.010  19.059  0.3032 -0.0813  1.3572
 3679TIP3    H235233   0.159   2.047  19.114  0.5410  1.2379 -0.0372
 3680TIP3   OH235234   0.611   2.954  17.498  1.0557 -0.2018  0.1074
 3680TIP3    H135235   0.668   2.999  17.560  0.1751  0.0804  0.7278
 3680TIP3    H235236   0.531   3.006  17.496 -0.1569 -1.9263  1.1409
 3681TIP3   OH235237   7.176   2.272  16.771 -0.1632  0.0990  0.5312
 3681TIP3    H135238   7.191   2.276  16.677  1.8969  1.3513  0.8500
 3681TIP3    H235239   7.225   2.195  16.800  0.2641  0.4340  0.7192
 3682TIP3   OH235240   7.557   2.218  16.588 -0.2875  1.2394  0.1926
 3682TIP3    H135241   7.623   2.156  16.617  0.9197  0.3572 -3.8128
 3682TIP3    H235242   7.491   2.165  16.543  0.7511  2.6529 -3.3068
 3683TIP3   OH235243   6.281   7.570  19.168  0.2046 -0.4468  0.5890
 3683TIP3    H135244   6.194   7.530  19.165  0.7227 -1.6294  0.7900
 3683TIP3    H235245   6.311   7.555  19.257  0.2616  0.7741  0.7893
 3684TIP3   OH235246   4.131   2.671  18.848 -0.1836 -0.6238 -0.1294
 3684TIP3    H135247   4.101   2.672  18.757 -0.0254 -0.2144 -0.1775
 3684TIP3    H235248   4.086   2.595  18.887 -1.3124 -0.0132 -0.1954
 3685TIP3   OH235249   7.639   6.146  18.368 -0.4545 -0.0117 -0.4183
 3685TIP3    H135250   7.556   6.193  18.368  0.5699  1.9141 -0.5228
 3685TIP3    H235251   7.653   6.123  18.276 -0.4266  0.5451 -0.5600
 3686TIP3   OH235252   1.669   2.207  17.392  0.4859 -0.6069 -0.2278
 3686TIP3    H135253   1.698   2.227  17.303  1.5108 -0.4912  0.1112
 3686TIP3    H235254   1.592   2.261  17.405  0.8847  0.1056 -0.7201
 3687TIP3   OH235255   0.516   6.636  18.321  0.2501  0.0699  0.2895
 3687TIP3    H135256   0.454   6.698  18.358 -2.2125 -2.3868  0.6643
 3687TIP3    H235257   0.507   6.647  18.226 -0.6918 -0.1544  0.3432
 3688TIP3   OH235258   1.784   1.951  17.072 -0.4509  0.6089  0.7618
 3688TIP3    H135259   1.827   1.921  17.152  0.1181  1.5478  0.8221
 3688TIP3    H235260   1.856   1.965  17.010 -0.9607 -1.1199 -0.2848
 3689TIP3   OH235261   7.074   1.656  17.464 -0.6109  0.3752  0.7171
 3689TIP3    H135262   7.008   1.589  17.444 -0.6335 -0.1946  2.5604
 3689TIP3    H235263   7.157   1.610  17.455 -0.5948  0.3132  1.1465
 3690TIP3   OH235264   0.810   2.472  18.666 -0.1295  0.1217  0.6397
 3690TIP3    H135265   0.813   2.559  18.625  2.2958 -0.8811 -1.6056
 3690TIP3    H235266   0.830   2.488  18.758  1.1803  1.9197  0.1085
 3691TIP3   OH235267   2.976   0.747  19.200  0.3056 -0.2697 -0.1147
 3691TIP3    H135268   3.054   0.693  19.185  0.1274 -0.5972  0.0984
 3691TIP3    H235269   2.985   0.821  19.141  0.5488 -0.5471 -0.4265
 3692TIP3   OH235270   4.119   4.687  18.431  0.0053  0.8812  0.1770
 3692TIP3    H135271   4.040   4.646  18.466  0.1304 -0.2134 -0.7921
 3692TIP3    H235272   4.191   4.643  18.475  0.1825 -0.8500 -1.7249
 3693TIP3   OH235273   6.199   6.786  19.261  0.0155 -0.1156 -0.1915
 3693TIP3    H135274   6.259   6.859  19.243 -1.3521  0.7049 -1.7367
 3693TIP3    H235275   6.119   6.827  19.293 -0.8328 -0.8964 -1.2181
 3694TIP3   OH235276   2.758   4.063  17.275  0.3227  0.3844 -0.2754
 3694TIP3    H135277   2.778   4.137  17.333  0.4725 -0.2227  0.4670
 3694TIP3    H235278   2.844   4.033  17.244  0.4286 -0.6613  0.9420
 3695TIP3   OH235279   6.177   0.641  18.060 -0.4180 -0.4925 -0.0426
 3695TIP3    H135280   6.097   0.593  18.037 -0.9111 -0.0701  0.7524
 3695TIP3    H235281   6.235   0.575  18.098 -1.0087 -0.5116  0.8445
 3696TIP3   OH235282   0.286   3.285  19.306 -0.6454 -0.0107 -0.0686
 3696TIP3    H135283   0.320   3.360  19.258  0.6030 -1.2945 -1.2340
 3696TIP3    H235284   0.200   3.268  19.267 -1.2982  1.2552  0.7362
 3697TIP3   OH235285   0.085   6.561  19.738  0.0006  0.1760 -0.5923
 3697TIP3    H135286   0.004   6.607  19.716 -0.1898  0.9017  1.3849
 3697TIP3    H235287   0.153   6.611  19.693 -0.4323  1.0046 -0.3511
 3698TIP3   OH235288   6.584   5.414  18.752  0.1971  0.1355 -0.2874
 3698TIP3    H135289   6.569   5.375  18.666  1.3140 -0.0130 -0.4363
 3698TIP3    H235290   6.548   5.350  18.813  1.5981 -0.9582 -0.5517
 3699TIP3   OH235291   5.725   3.234  18.057 -0.4351  0.2412  0.4483
 3699TIP3    H135292   5.681   3.275  17.982 -0.6655 -0.1399  0.3686
 3699TIP3    H235293   5.755   3.307  18.110 -1.0196  0.5159  0.4170
 3700TIP3   OH235294   5.420   7.214  18.155 -0.2109 -0.1584  0.4938
 3700TIP3    H135295   5.376   7.147  18.102 -0.7397  0.7675 -0.2644
 3700TIP3    H235296   5.360   7.288  18.155  1.1186  0.9750 -0.1786
 3701TIP3   OH235297   1.056   0.044  17.940  0.5463 -0.2950  0.2760
 3701TIP3    H135298   1.133   0.024  17.888  0.4858  1.8079 -0.7261
 3701TIP3    H235299   1.054  -0.023  18.008  3.5820 -0.0882  0.6839
 3702TIP3   OH235300   0.653   2.137  19.517 -0.3684 -0.6370 -0.5702
 3702TIP3    H135301   0.712   2.211  19.529  0.7015 -1.5108 -0.3131
 3702TIP3    H235302   0.578   2.157  19.574  0.6466 -0.5019  0.7662
 3703TIP3   OH235303   6.281   6.729  18.759 -0.4963  0.5303 -0.5668
 3703TIP3    H135304   6.373   6.709  18.777  0.3249  2.7070 -1.9315
 3703TIP3    H235305   6.270   6.713  18.666 -1.4402  0.5795 -0.4799
 3704TIP3   OH235306   3.984   3.723  17.424  0.0614  0.0115  0.5064
 3704TIP3    H135307   3.984   3.792  17.357  0.6137 -0.3916  0.0839
 3704TIP3    H235308   3.893   3.718  17.453 -0.3100 -0.2242 -0.6413
 3705TIP3   OH235309   0.809   0.668  18.568 -0.1998  0.4075 -0.1018
 3705TIP3    H135310   0.853   0.706  18.644 -0.0261  1.8125 -0.8706
 3705TIP3    H235311   0.828   0.729  18.497 -2.6682  0.6301 -0.6663
 3706TIP3   OH235312   2.898   4.180  16.603 -0.2510  0.4686 -0.5229
 3706TIP3    H135313   2.802   4.187  16.606 -0.2595  0.1012  0.4151
 3706TIP3    H235314   2.914   4.090  16.574 -0.1975  0.2715  0.1081
 3707TIP3   OH235315   7.039   2.705  17.575 -0.4791 -0.7257  0.1320
 3707TIP3    H135316   7.026   2.795  17.606  1.5380 -0.8851  1.6174
 3707TIP3    H235317   7.124   2.708  17.530 -0.5612 -1.8141 -0.1216
 3708TIP3   OH235318   2.896   2.237  17.926 -0.2774 -0.7405  0.0183
 3708TIP3    H135319   2.898   2.314  17.868 -1.9600 -0.8940 -0.3189
 3708TIP3    H235320   2.935   2.268  18.008  2.0590 -0.4896 -1.1081
 3709TIP3   OH235321   6.852   4.502  19.196 -0.2717 -0.1034 -0.3991
 3709TIP3    H135322   6.760   4.515  19.171  0.1338  1.3468 -1.2877
 3709TIP3    H235323   6.870   4.574  19.257 -0.0642 -1.1453  0.8047
 3710TIP3   OH235324   3.827   0.387  16.961 -0.4168 -0.3830  0.3102
 3710TIP3    H135325   3.897   0.323  16.970 -1.3824 -1.5964 -0.4967
 3710TIP3    H235326   3.769   0.370  17.034 -0.7345 -0.5025  0.0320
 3711TIP3   OH235327   4.019   2.172  18.710  0.2963 -0.0003  0.0430
 3711TIP3    H135328   4.036   2.240  18.645 -0.3008 -1.1931 -1.4385
 3711TIP3    H235329   4.083   2.103  18.690  0.0180 -0.4437  0.6385
 3712TIP3   OH235330   1.679   4.031  18.043  0.3728  0.6561 -0.1025
 3712TIP3    H135331   1.703   4.098  18.107  0.9715  0.7735 -0.4446
 3712TIP3    H235332   1.588   4.010  18.063  0.2507  1.4097  0.1524
 3713TIP3   OH235333   0.222   7.565  18.804  0.1184 -0.2061  0.4163
 3713TIP3    H135334   0.231   7.481  18.850 -0.9917 -0.3889  0.3307
 3713TIP3    H235335   0.236   7.544  18.712 -0.1936 -0.3144  0.3914
 3714TIP3   OH235336   4.891   7.657  17.462  0.0893 -0.5852  0.3988
 3714TIP3    H135337   4.836   7.608  17.401  1.2402 -1.6462  0.1654
 3714TIP3    H235338   4.831   7.685  17.531 -0.8723 -1.0657 -0.2158
 3715TIP3   OH235339   4.278   5.624  17.985  0.1805  0.5557  0.4089
 3715TIP3    H135340   4.207   5.669  18.030 -1.7754  0.1572 -2.0165
 3715TIP3    H235341   4.234   5.567  17.922  2.6643 -0.7648 -0.2736
 3716TIP3   OH235342   3.250   7.097  19.003  0.0715  0.0538 -0.4917
 3716TIP3    H135343   3.200   7.173  19.034  0.8043 -0.5693  2.4925
 3716TIP3    H235344   3.265   7.115  18.910 -0.1035  3.3671  0.0045
 3717TIP3   OH235345   3.075   0.285  19.034  0.3696  0.2466  0.3010
 3717TIP3    H135346   3.138   0.357  19.042  1.1241 -0.3678  0.0455
 3717TIP3    H235347   2.989   0.328  19.034  0.6853  0.9930  2.2926
 3718TIP3   OH235348   7.365   4.528  17.805  0.3683 -0.1263  0.0067
 3718TIP3    H135349   7.316   4.519  17.887  0.0175  1.2237 -0.0402
 3718TIP3    H235350   7.337   4.453  17.752 -0.7411 -0.0447  0.4473
 3719TIP3   OH235351   7.092   1.267  17.452 -1.0951 -0.6561  0.0312
 3719TIP3    H135352   7.018   1.323  17.474 -0.9872 -0.1509 -0.8250
 3719TIP3    H235353   7.165   1.328  17.441 -0.4462 -1.1796  1.2534
 3720TIP3   OH235354   5.873   3.203  17.065 -0.5537 -0.0272 -0.7483
 3720TIP3    H135355   5.958   3.240  17.041  0.2693 -0.5711  1.1154
 3720TIP3    H235356   5.819   3.214  16.987  0.9460  1.1649 -1.6757
 3721TIP3   OH235357   2.953   2.774  19.054  0.2456 -0.1536  0.3117
 3721TIP3    H135358   2.999   2.732  19.127  0.9478 -0.3483 -0.2279
 3721TIP3    H235359   2.991   2.861  19.049  1.2357 -0.6180 -0.7056
 3722TIP3   OH235360   4.342   2.898  17.543 -0.2647 -0.1540  0.2180
 3722TIP3    H135361   4.313   2.820  17.590 -0.7897  0.6045  1.2022
 3722TIP3    H235362   4.284   2.968  17.574  0.2032  0.6399 -0.6194
 3723TIP3   OH235363   0.422   4.418  18.918 -0.0586 -0.1261 -0.3228
 3723TIP3    H135364   0.353   4.393  18.857 -0.8650  1.6080 -0.1766
 3723TIP3    H235365   0.490   4.455  18.863 -0.4189  0.6459 -0.2629
 3724TIP3   OH235366   2.995   4.565  18.953 -0.4258  0.3838  0.6915
 3724TIP3    H135367   3.018   4.574  19.046  3.5440 -0.6216  0.0071
 3724TIP3    H235368   3.076   4.587  18.907 -0.9865 -3.0358 -2.3582
 3725TIP3   OH235369   5.963   6.411  18.464  0.6755  0.2894  0.0934
 3725TIP3    H135370   6.016   6.332  18.476  0.4768 -0.1052 -1.5158
 3725TIP3    H235371   5.997   6.472  18.530  0.5726 -1.2401  1.6395
 3726TIP3   OH235372   0.572   3.901  18.419  1.0470 -0.5196 -0.2157
 3726TIP3    H135373   0.557   3.967  18.487  0.5125  0.6169 -1.3909
 3726TIP3    H235374   0.521   3.826  18.447  0.2068  0.2076  0.2586
 3727TIP3   OH235375   2.164   3.056  18.117  0.5509 -0.0440  0.1060
 3727TIP3    H135376   2.138   3.144  18.145  1.5627  0.7226 -1.2119
 3727TIP3    H235377   2.213   3.071  18.036  0.8444 -1.8261 -0.0786
 3728TIP3   OH235378   7.239   6.799  18.644 -0.4130  0.4563  0.5591
 3728TIP3    H135379   7.177   6.837  18.707  0.0614  1.2811  0.5383
 3728TIP3    H235380   7.323   6.840  18.666 -0.3073  1.0307 -0.8239
 3729TIP3   OH235381   4.383   0.941  17.148  0.0227  0.0896 -0.3955
 3729TIP3    H135382   4.378   0.888  17.068 -0.6278  0.0292 -0.3226
 3729TIP3    H235383   4.476   0.938  17.173 -0.1129 -1.6545  0.0416
 3730TIP3   OH235384   0.201   5.179  19.003  0.7680  0.2711  0.2449
 3730TIP3    H135385   0.274   5.122  19.029  1.2193 -0.2620 -1.9710
 3730TIP3    H235386   0.226   5.266  19.033  2.1465  0.0109 -0.0873
 3731TIP3   OH235387   4.818   6.570  18.083 -0.1372 -1.3662 -0.0202
 3731TIP3    H135388   4.844   6.661  18.066  1.4968 -1.6175  0.9271
 3731TIP3    H235389   4.736   6.577  18.133  0.3360 -0.3928  0.6378
 3732TIP3   OH235390   5.863   7.493  17.810  0.2101 -0.3667 -0.6014
 3732TIP3    H135391   5.784   7.507  17.759 -0.7897  0.5953  1.1133
 3732TIP3    H235392   5.882   7.578  17.850  0.3709 -1.2503  1.3354
 3733TIP3   OH235393   5.834   5.287  17.052 -0.3590  0.2473 -0.4191
 3733TIP3    H135394   5.815   5.334  17.134  1.9110  2.3598 -0.9838
 3733TIP3    H235395   5.796   5.344  16.984  1.0334  0.4771 -1.0271
 3734TIP3   OH235396   1.120   4.677  19.067 -0.4960 -0.0524  0.0562
 3734TIP3    H135397   1.028   4.663  19.091 -1.0349  1.4765 -0.9865
 3734TIP3    H235398   1.142   4.599  19.016 -0.7862 -1.0440  1.3712
 3735TIP3   OH235399   7.252   3.099  18.108 -0.3141  0.4079 -0.4978
 3735TIP3    H135400   7.283   3.057  18.029 -1.0446 -0.3869 -0.3723
 3735TIP3    H235401   7.186   3.162  18.078 -1.0700 -0.3608 -0.4765
 3736TIP3   OH235402   4.893   5.515  17.850 -0.2108  0.0918  0.4100
 3736TIP3    H135403   4.866   5.507  17.759  1.2704  3.2556 -0.4691
 3736TIP3    H235404   4.955   5.444  17.864  2.1922  1.4682 -2.2624
 3737TIP3   OH235405   1.066   6.631  18.533 -0.3879 -0.4329  0.1156
 3737TIP3    H135406   0.971   6.637  18.535 -0.2958  1.4861  0.8578
 3737TIP3    H235407   1.091   6.670  18.449 -0.2315 -0.3128  0.2168
 3738TIP3   OH235408   6.385   3.806  18.520 -0.0897 -0.1137 -0.6611
 3738TIP3    H135409   6.375   3.864  18.595 -1.4655 -3.3137  1.8980
 3738TIP3    H235410   6.477   3.811  18.497  0.3037  1.2283  1.0579
 3739TIP3   OH235411   3.974   5.361  18.356  0.0769  0.6788  0.0130
 3739TIP3    H135412   4.001   5.307  18.282 -1.3097  0.1570 -0.1411
 3739TIP3    H235413   3.935   5.439  18.317 -2.9305 -0.6890  0.0522
 3740TIP3   OH235414   1.443   0.870  18.413 -0.0741 -0.0345 -0.4985
 3740TIP3    H135415   1.423   0.873  18.507  0.3835 -1.3008 -0.3475
 3740TIP3    H235416   1.358   0.856  18.371  0.0714 -3.2837  0.0067
 3741TIP3   OH235417   0.481   4.979  17.056 -0.5892 -0.0166 -1.3378
 3741TIP3    H135418   0.478   4.884  17.068  1.8349  0.1160  1.2798
 3741TIP3    H235419   0.434   4.994  16.973 -1.4822 -3.3956 -1.5941
 3742TIP3   OH235420   6.497   1.090  17.937 -0.3477  0.0227 -0.8418
 3742TIP3    H135421   6.427   1.144  17.973 -0.1408  0.2721 -0.8145
 3742TIP3    H235422   6.463   1.000  17.944 -0.0117 -0.0111  0.7089
 3743TIP3   OH235423   2.914   4.709  19.303  0.7656 -0.1134 -0.1155
 3743TIP3    H135424   2.874   4.760  19.374 -0.3819 -2.0951  0.7553
 3743TIP3    H235425   2.847   4.644  19.280  1.1686  0.3421 -2.9191
 3744TIP3   OH235426   4.403   1.898  18.712  0.1168  0.1911 -0.1507
 3744TIP3    H135427   4.453   1.851  18.645 -1.1815 -0.8454 -0.4341
 3744TIP3    H235428   4.423   1.852  18.793 -1.6127 -1.3124 -0.5164
 3745TIP3   OH235429   6.699   5.428  18.281  0.8625 -0.0537  0.0726
 3745TIP3    H135430   6.635   5.371  18.324  0.3351  0.4507 -0.0411
 3745TIP3    H235431   6.756   5.368  18.234  0.4103 -0.5012  0.0877
 3746TIP3   OH235432   0.964   1.147  18.249  1.0164  0.3215 -0.4552
 3746TIP3    H135433   0.984   1.238  18.272  1.4220  0.2097 -0.3566
 3746TIP3    H235434   0.963   1.147  18.153  0.4231  0.5543 -0.4500
 3747TIP3   OH235435   6.804   1.119  19.300  0.0147 -0.3035  0.3527
 3747TIP3    H135436   6.783   1.173  19.224  1.1002  0.2606  0.4399
 3747TIP3    H235437   6.822   1.032  19.264 -0.7060 -0.3577  0.1065
 3748TIP3   OH235438   0.455   6.404  19.249 -0.4341 -0.0270 -0.4644
 3748TIP3    H135439   0.377   6.452  19.273  0.9302  2.6367 -0.9472
 3748TIP3    H235440   0.462   6.416  19.154 -0.0006 -1.1338 -0.5846
 3749TIP3   OH235441   1.408   5.231  18.984 -0.4381  0.9641 -0.0372
 3749TIP3    H135442   1.353   5.306  18.961 -1.2585  0.1247 -0.9354
 3749TIP3    H235443   1.367   5.194  19.062 -0.5551  0.9321 -0.1134
 3750TIP3   OH235444   3.538   0.214  19.044  0.2881 -0.1710  0.0476
 3750TIP3    H135445   3.548   0.296  19.093  2.6521  0.0193 -0.6328
 3750TIP3    H235446   3.526   0.147  19.110 -0.0998  0.5150  0.6859
 3751TIP3   OH235447   4.033   1.900  17.190 -0.2495  0.1756  0.2055
 3751TIP3    H135448   4.115   1.862  17.221  0.0126 -0.4413 -1.1579
 3751TIP3    H235449   4.059   1.981  17.147 -0.2603 -0.3153 -0.7541
 3752TIP3   OH235450   6.539   1.179  19.373  0.5358  0.5248  0.4578
 3752TIP3    H135451   6.561   1.088  19.351  0.7563  0.3386  1.4241
 3752TIP3    H235452   6.568   1.190  19.463  0.9312  1.7061  0.2023
 3753TIP3   OH235453   4.811   5.879  19.395 -0.9045  0.4395  0.4825
 3753TIP3    H135454   4.882   5.854  19.336  0.5835  2.8319  1.1187
 3753TIP3    H235455   4.794   5.800  19.446  2.8022  0.2377  1.7058
 3754TIP3   OH235456   3.263   2.729  18.340 -0.2542  0.4265  0.0002
 3754TIP3    H135457   3.306   2.767  18.416 -1.2750  0.9876  0.3132
 3754TIP3    H235458   3.214   2.655  18.376  0.5128 -0.2857 -0.3738
 3755TIP3   OH235459   3.183   0.035  17.815  0.0123  0.0052 -0.1268
 3755TIP3    H135460   3.150   0.092  17.885  0.0089  1.4904 -1.2808
 3755TIP3    H235461   3.129  -0.043  17.820  0.2002 -0.0664  1.7049
 3756TIP3   OH235462   0.147   3.875  16.799 -0.3439 -0.4462 -0.4486
 3756TIP3    H135463   0.131   3.788  16.835  0.1171 -0.3975 -0.1193
 3756TIP3    H235464   0.232   3.868  16.756 -0.7239 -0.4083 -1.2317
 3757TIP3   OH235465   0.810   6.642  19.547 -0.3773 -0.5717  0.1599
 3757TIP3    H135466   0.890   6.649  19.496 -1.3746 -0.7848 -1.4915
 3757TIP3    H235467   0.840   6.617  19.635  1.3437 -0.6544 -0.4151
 3758TIP3   OH235468   6.325   0.327  19.498  0.0756  0.1078  0.0397
 3758TIP3    H135469   6.241   0.368  19.514 -0.1678 -0.7508  1.0861
 3758TIP3    H235470   6.308   0.260  19.431 -0.4184 -1.0686  1.2931
 3759TIP3   OH235471   2.003   1.228  17.737  0.6083 -0.1737 -0.1495
 3759TIP3    H135472   2.076   1.249  17.794 -0.0750 -0.9861  1.0582
 3759TIP3    H235473   2.029   1.261  17.651  2.0113  0.3113  0.4451
 3760TIP3   OH235474   3.634   6.369  19.018 -0.1007  0.7658 -0.1102
 3760TIP3    H135475   3.624   6.314  18.940  0.7256  1.6769 -0.8821
 3760TIP3    H235476   3.612   6.457  18.989  0.4597  1.1650  0.6144
 3761TIP3   OH235477   6.604   6.545  17.678 -0.0149 -0.1943 -0.7117
 3761TIP3    H135478   6.647   6.585  17.754  0.0749  1.0840 -1.4014
 3761TIP3    H235479   6.652   6.579  17.603 -1.0742 -0.1794 -1.4106
 3762TIP3   OH235480   4.451   0.795  16.881 -0.3322  0.5212 -0.2274
 3762TIP3    H135481   4.385   0.725  16.874 -0.2984  0.4333  0.2923
 3762TIP3    H235482   4.532   0.755  16.850 -0.1451  0.0853  0.7751
 3763TIP3   OH235483   7.132   7.033  18.782  0.2585  0.3933  0.3211
 3763TIP3    H135484   7.042   7.058  18.763 -0.0077  0.3684  1.4748
 3763TIP3    H235485   7.186   7.098  18.738 -0.3082  0.1759 -0.7136
 3764TIP3   OH235486   3.596   3.410  17.738  0.2661  0.2991 -0.0024
 3764TIP3    H135487   3.530   3.379  17.676 -1.0993 -1.7256  2.2796
 3764TIP3    H235488   3.562   3.494  17.768  0.8665  1.2299 -1.7833
 3765TIP3   OH235489   5.777   0.859  18.507 -0.1218 -0.0122  0.5155
 3765TIP3    H135490   5.829   0.869  18.427 -0.5433  4.1728  0.5709
 3765TIP3    H235491   5.840   0.828  18.572  1.4871  1.4405 -0.2619
 3766TIP3   OH235492   6.493   4.443  18.066 -0.9519 -1.0341  0.0286
 3766TIP3    H135493   6.508   4.457  18.160 -2.2713  0.9111 -0.0040
 3766TIP3    H235494   6.581   4.445  18.028 -0.3921 -1.8816  1.2113
 3767TIP3   OH235495   1.996   6.559  18.373 -0.2521 -0.0977 -0.2391
 3767TIP3    H135496   1.960   6.471  18.378 -1.0283  0.2667  1.4431
 3767TIP3    H235497   2.082   6.553  18.416  0.5928 -0.4001 -1.8680
 3768TIP3   OH235498   1.590   5.394  18.763  0.1670  0.0815 -0.0093
 3768TIP3    H135499   1.505   5.351  18.753  0.5533 -0.6637 -0.1436
 3768TIP3    H235500   1.632   5.383  18.678  0.7871 -0.4068  0.3592
 3769TIP3   OH235501   0.406   1.722  17.457  0.3260 -0.3614  0.4498
 3769TIP3    H135502   0.487   1.751  17.415 -0.0177  1.1162  0.7543
 3769TIP3    H235503   0.337   1.742  17.394  0.0990 -0.7859  0.5570
 3770TIP3   OH235504   4.113   7.171  18.570 -0.8463  0.2567 -0.1419
 3770TIP3    H135505   4.140   7.257  18.601  1.3144 -1.1048  2.0099
 3770TIP3    H235506   4.103   7.182  18.475  0.6109  2.5699 -0.0952
 3771TIP3   OH235507   2.162   5.678  17.723  0.1790  0.6298 -0.9215
 3771TIP3    H135508   2.241   5.681  17.669  0.4319 -2.2345 -0.8814
 3771TIP3    H235509   2.092   5.708  17.665  0.9711  1.1859 -1.6169
 3772TIP3   OH235510   7.601   4.983  17.995  0.1560  0.1624 -0.0775
 3772TIP3    H135511   7.578   4.963  18.086 -0.0453 -0.7072 -0.3117
 3772TIP3    H235512   7.519   5.014  17.956 -0.2982 -1.4390 -0.4926
 3773TIP3   OH235513   0.981   0.349  17.780 -0.2005 -0.4098  0.8387
 3773TIP3    H135514   0.953   0.267  17.819 -1.5984 -0.2629  0.2063
 3773TIP3    H235515   1.033   0.392  17.848  0.0825 -1.5566  1.3637
 3774TIP3   OH235516   0.528   1.061  17.453 -0.8899  0.2244 -0.3488
 3774TIP3    H135517   0.473   1.095  17.523 -0.6717  0.8565 -0.4814
 3774TIP3    H235518   0.485   0.979  17.426 -1.5371  0.5077 -0.1806
 3775TIP3   OH235519   5.731   4.768  18.067  0.0518  0.2078 -0.5067
 3775TIP3    H135520   5.642   4.754  18.099  0.4315 -0.2456  0.4079
 3775TIP3    H235521   5.752   4.688  18.018  0.7257 -0.6929  1.1683
 3776TIP3   OH235522   2.215   7.678  16.742 -0.7520  0.9585  0.3303
 3776TIP3    H135523   2.211   7.667  16.647 -3.5468 -1.2659  0.5945
 3776TIP3    H235524   2.161   7.755  16.760 -1.6478  0.3768  0.1972
 3777TIP3   OH235525   5.012   0.452  16.838  0.6955  0.0698 -0.4652
 3777TIP3    H135526   4.927   0.492  16.824  0.8237  0.3950 -0.3312
 3777TIP3    H235527   5.008   0.418  16.927  0.4139 -0.6549 -0.7514
 3778TIP3   OH235528   6.573   3.375  17.766 -0.0119 -0.6048  0.7084
 3778TIP3    H135529   6.621   3.331  17.837  0.2808 -1.4143  0.0195
 3778TIP3    H235530   6.601   3.466  17.772  1.9323 -1.1082  0.1141
 3779TIP3   OH235531   5.477   1.608  18.289 -0.1635 -0.8394 -0.6287
 3779TIP3    H135532   5.551   1.565  18.332 -0.2886  0.7533  1.3152
 3779TIP3    H235533   5.404   1.547  18.299 -0.1330 -0.6098  1.2880
 3780TIP3   OH235534   7.615   0.476  18.662  0.0638  0.5682 -0.0933
 3780TIP3    H135535   7.623   0.381  18.660  1.2799  0.6161  1.2883
 3780TIP3    H235536   7.637   0.504  18.573  3.4232 -0.2373  0.3737
 3781TIP3   OH235537   2.677   4.689  17.785  0.3294 -0.8493 -0.4086
 3781TIP3    H135538   2.731   4.761  17.817  0.8074 -1.6960  0.8104
 3781TIP3    H235539   2.726   4.610  17.810 -1.4041 -1.6510  0.6440
 3782TIP3   OH235540   2.981   1.583  18.341 -0.0878  0.2479  0.1984
 3782TIP3    H135541   2.949   1.494  18.332 -2.0512  0.6620  2.0361
 3782TIP3    H235542   2.919   1.636  18.291  0.8772  0.6229 -0.6235
 3783TIP3   OH235543   0.474   2.454  19.243  0.3627 -0.3568  0.0121
 3783TIP3    H135544   0.470   2.359  19.235  3.2104 -0.6370  1.0451
 3783TIP3    H235545   0.497   2.485  19.155  0.4579 -0.7011 -0.0835
 3784TIP3   OH235546   6.684   5.217  17.967 -0.4525 -0.3392  0.1402
 3784TIP3    H135547   6.774   5.216  17.998 -0.6535 -0.3156  0.7282
 3784TIP3    H235548   6.633   5.177  18.037 -0.7598 -1.3919 -0.6440
 3785TIP3   OH235549   4.391   4.008  19.207 -0.1711 -0.0799 -0.0791
 3785TIP3    H135550   4.429   4.002  19.120 -1.2755  1.8661 -0.7565
 3785TIP3    H235551   4.450   4.067  19.255  0.0075 -0.5167  0.2396
 3786TIP3   OH235552   6.860   3.505  19.089  0.3473 -0.3296 -0.5595
 3786TIP3    H135553   6.868   3.562  19.165 -1.2904 -0.7689 -0.0063
 3786TIP3    H235554   6.950   3.476  19.071  1.2225  2.3286 -0.8508
 3787TIP3   OH235555   6.663   0.315  18.241  0.4168  0.6987 -0.8215
 3787TIP3    H135556   6.616   0.232  18.252 -1.1003  1.2927 -2.2218
 3787TIP3    H235557   6.666   0.328  18.146  0.4992  2.2978 -0.6276
 3788TIP3   OH235558   7.344   4.100  18.079 -0.0875  0.0456 -0.2873
 3788TIP3    H135559   7.277   4.165  18.056 -0.4600 -0.8894 -2.0042
 3788TIP3    H235560   7.398   4.093  18.001  0.7558 -0.7468  0.3482
 3789TIP3   OH235561   7.614   4.263  16.936 -0.1438  0.2164 -0.0551
 3789TIP3    H135562   7.643   4.229  16.851  0.6436  0.6397  0.0330
 3789TIP3    H235563   7.632   4.357  16.931 -1.2453  0.4455  0.1213
 3790TIP3   OH235564   0.673   3.555  19.162 -0.0368 -0.1121  0.6575
 3790TIP3    H135565   0.694   3.588  19.075 -0.1211  1.6170  1.2615
 3790TIP3    H235566   0.580   3.534  19.158 -0.1806  0.5470  0.4995
 3791TIP3   OH235567   2.795   2.087  18.929 -0.3393 -0.3530  0.0492
 3791TIP3    H135568   2.728   2.155  18.944  0.2538  0.2217  0.1270
 3791TIP3    H235569   2.744   2.009  18.904 -0.9953  0.3316 -0.8384
 3792TIP3   OH235570   1.862   1.741  18.165 -0.2524 -0.4076  0.0550
 3792TIP3    H135571   1.814   1.749  18.247  0.1692 -0.7849  0.3452
 3792TIP3    H235572   1.933   1.680  18.184  1.7120  1.8035  0.2855
 3793TIP3   OH235573   3.925   5.721  19.229  0.5673  0.4989  0.0242
 3793TIP3    H135574   3.968   5.641  19.260  0.6842  0.7471  0.5027
 3793TIP3    H235575   3.970   5.742  19.147 -1.8726 -1.9838 -2.1509
 3794TIP3   OH235576   4.867   1.915  19.014  0.4878  0.3475  0.0085
 3794TIP3    H135577   4.811   1.983  18.976 -1.0693  0.2522  1.9844
 3794TIP3    H235578   4.911   1.958  19.087 -0.6212 -0.7609  1.3718
 3795TIP3   OH235579   3.636   0.847  18.584 -0.3949 -0.2946 -0.1261
 3795TIP3    H135580   3.695   0.776  18.610 -0.7666 -0.8572 -0.7719
 3795TIP3    H235581   3.685   0.895  18.517 -0.3414 -0.2583 -0.0602
 3796TIP3   OH235582   5.032   6.253  19.533 -0.4885 -0.8427  0.2972
 3796TIP3    H135583   5.078   6.178  19.571 -1.1788 -2.8303 -2.4776
 3796TIP3    H235584   4.941   6.227  19.530 -0.8729  0.4414 -0.0481
 3797TIP3   OH235585   6.499   0.898  18.419  0.3389 -0.2148 -0.2403
 3797TIP3    H135586   6.520   0.990  18.403  0.3538 -0.2230 -0.2699
 3797TIP3    H235587   6.559   0.850  18.362  0.1608 -0.2355 -0.4132
 3798TIP3   OH235588   0.558   0.580  18.275 -0.3531 -0.0865  0.1480
 3798TIP3    H135589   0.569   0.674  18.262  1.4523 -0.4312 -1.3795
 3798TIP3    H235590   0.645   0.549  18.299 -0.4049 -1.6168 -1.4390
 3799TIP3   OH235591   6.885   0.501  18.085  0.3529  0.5513  0.2786
 3799TIP3    H135592   6.928   0.423  18.119 -2.2284 -0.5332  1.3158
 3799TIP3    H235593   6.856   0.476  17.997 -1.8665 -0.3361  1.1873
 3800TIP3   OH235594   3.655   0.871  16.887 -0.4260  0.3230  0.1239
 3800TIP3    H135595   3.578   0.928  16.896 -0.2628  0.4755  0.6302
 3800TIP3    H235596   3.641   0.824  16.805 -1.9919 -1.0350  1.1076
 3801TIP3   OH235597   5.887   0.865  17.767  0.0403  0.6556  0.1598
 3801TIP3    H135598   5.875   0.882  17.860  1.5646  0.9759  0.3283
 3801TIP3    H235599   5.979   0.839  17.759 -0.0431  0.7152 -1.2567
 3802TIP3   OH235600   0.489   5.826  19.049 -0.6455  0.5762 -0.4063
 3802TIP3    H135601   0.472   5.809  18.957 -1.2995  0.3737 -0.2563
 3802TIP3    H235602   0.430   5.898  19.071 -0.3951  0.7126 -0.1809
 3803TIP3   OH235603   0.413   4.325  17.128  0.1727  0.2547 -0.4313
 3803TIP3    H135604   0.349   4.395  17.135  0.9783  0.9603  0.2425
 3803TIP3    H235605   0.425   4.294  17.218  0.3469 -0.2589 -0.6259
 3804TIP3   OH235606   5.721   4.777  17.631  0.3824 -0.4944  0.7976
 3804TIP3    H135607   5.779   4.830  17.686 -1.1969  0.7746  1.3396
 3804TIP3    H235608   5.642   4.765  17.683 -1.0027  0.3702 -0.9642
 3805TIP3   OH235609   1.911   3.574  19.509 -0.7437 -0.4129  0.0418
 3805TIP3    H135610   1.835   3.606  19.461  0.9378  0.9653 -1.9354
 3805TIP3    H235611   1.930   3.643  19.573 -1.0075 -0.6379  0.3629
 3806TIP3   OH235612   3.836   6.692  19.052 -0.4113 -0.3927  0.5164
 3806TIP3    H135613   3.909   6.676  18.991 -1.2264  0.1187 -0.6212
 3806TIP3    H235614   3.857   6.638  19.128  0.3479 -1.5305 -0.4515
 3807TIP3   OH235615   6.086   1.019  17.010 -0.1105  0.1121  0.4160
 3807TIP3    H135616   6.014   0.986  17.064 -0.4317  0.6058  0.3006
 3807TIP3    H235617   6.043   1.066  16.939  0.3267  0.2665  0.2513
 3808TIP3   OH235618   4.618   6.672  17.126 -0.0627 -0.0639  0.5545
 3808TIP3    H135619   4.570   6.609  17.180 -1.5408  1.3160  0.9323
 3808TIP3    H235620   4.690   6.702  17.182  0.3128 -0.9578  0.5713
 3809TIP3   OH235621   2.191   7.305  17.294 -0.0320 -0.3357 -0.5737
 3809TIP3    H135622   2.136   7.256  17.355 -0.3290  0.3436 -0.2919
 3809TIP3    H235623   2.131   7.337  17.226 -0.2300  1.4590  0.3892
 3810TIP3   OH235624   1.685   4.903  18.553  0.8160 -0.2564 -0.1989
 3810TIP3    H135625   1.607   4.943  18.591  0.3105 -1.4727  0.0690
 3810TIP3    H235626   1.754   4.917  18.618 -0.0643 -2.4239  1.3050
 3811TIP3   OH235627   3.956   6.233  18.398  0.3431 -0.3343  0.1266
 3811TIP3    H135628   3.947   6.317  18.443 -0.5018  0.5841 -1.6609
 3811TIP3    H235629   3.935   6.252  18.307  1.6061 -2.1995 -0.6156
 3812TIP3   OH235630   3.077   1.486  17.050 -0.2142  0.6944 -0.1273
 3812TIP3    H135631   3.124   1.568  17.071  0.0604  0.7594 -0.9630
 3812TIP3    H235632   3.112   1.460  16.965  0.6506 -0.9974  0.6926
 3813TIP3   OH235633   1.505   7.314  18.642 -0.3965  0.0683 -0.5158
 3813TIP3    H135634   1.496   7.239  18.701 -0.1532 -0.4679 -1.1513
 3813TIP3    H235635   1.585   7.296  18.593 -0.6066  0.4985 -1.0206
 3814TIP3   OH235636   6.173   2.861  17.318  0.0477 -0.4235  0.3073
 3814TIP3    H135637   6.095   2.914  17.335 -0.0226  0.5385 -2.4948
 3814TIP3    H235638   6.149   2.808  17.242  1.3643 -1.8609  0.8483
 3815TIP3   OH235639   2.913   4.482  17.000 -0.2688 -0.0426 -0.2370
 3815TIP3    H135640   2.870   4.479  17.086  1.1970 -1.7450  0.4941
 3815TIP3    H235641   2.947   4.571  16.993  1.7538 -0.5225  2.1261
 3816TIP3   OH235642   2.814   3.635  17.684  0.0482 -0.0312 -0.0658
 3816TIP3    H135643   2.853   3.632  17.597 -0.4116 -0.1256 -0.2748
 3816TIP3    H235644   2.860   3.706  17.729  0.7357 -0.4146 -0.1601
 3817TIP3   OH235645   2.002   6.346  18.687 -0.0141 -0.3005  0.3364
 3817TIP3    H135646   1.960   6.432  18.691  3.2171  1.4269  0.2343
 3817TIP3    H235647   1.980   6.305  18.771 -1.6091  0.5687  0.3910
 3818TIP3   OH235648   7.377   7.668  18.221  0.6014  0.1255  0.2460
 3818TIP3    H135649   7.427   7.650  18.300  0.5660  0.9005  0.4491
 3818TIP3    H235650   7.432   7.635  18.150  0.8127 -0.2011  0.5586
 3819TIP3   OH235651   3.966   6.668  16.824 -0.1638  0.0140 -0.0710
 3819TIP3    H135652   3.973   6.572  16.827  0.4171  0.0690  0.4220
 3819TIP3    H235653   3.874   6.686  16.842 -0.6903 -0.5206 -1.9284
 3820TIP3   OH235654   0.750   0.747  17.922 -0.3313 -0.3866  0.3661
 3820TIP3    H135655   0.791   0.705  17.846 -1.9154 -0.3334 -0.5636
 3820TIP3    H235656   0.734   0.674  17.983  0.6793 -0.4727  0.5499
 3821TIP3   OH235657   5.340   5.453  17.928  0.4214 -0.2299  0.5598
 3821TIP3    H135658   5.419   5.492  17.890 -0.1720 -1.2533 -1.9431
 3821TIP3    H235659   5.281   5.527  17.940  0.0913  0.0332 -2.0972
 3822TIP3   OH235660   0.047   3.063  18.311  0.3694 -0.4307  0.1892
 3822TIP3    H135661   0.064   2.969  18.302 -0.1269 -0.3479 -2.4099
 3822TIP3    H235662  -0.042   3.074  18.278  0.5684  1.0090  0.0713
 3823TIP3   OH235663   1.497   5.897  18.630 -0.6996 -0.0773  0.4114
 3823TIP3    H135664   1.472   5.916  18.720  0.3516  0.4612  0.5950
 3823TIP3    H235665   1.482   5.979  18.583  1.7228  0.6175  0.7519
 3824TIP3   OH235666   4.446   4.357  19.232 -0.2701  0.1523 -0.0047
 3824TIP3    H135667   4.455   4.414  19.308 -1.0553 -0.9896  0.9758
 3824TIP3    H235668   4.514   4.291  19.243 -0.7157 -0.3128 -0.0246
 3825TIP3   OH235669   2.224   3.545  16.541  0.7817 -0.4279 -0.0932
 3825TIP3    H135670   2.302   3.501  16.576  1.4848  1.0453  0.3073
 3825TIP3    H235671   2.167   3.556  16.617 -0.0252 -1.8411 -0.4558
 3826TIP3   OH235672   6.307   1.009  19.299 -0.6851  0.9744  1.0648
 3826TIP3    H135673   6.359   0.966  19.367  1.9394 -0.2365 -1.4483
 3826TIP3    H235674   6.358   1.087  19.277 -1.4187  1.2856  0.4263
 3827TIP3   OH235675   4.598   1.066  19.436 -0.2643 -0.0845 -0.2422
 3827TIP3    H135676   4.582   0.983  19.482  0.5304 -1.3167 -2.0460
 3827TIP3    H235677   4.529   1.125  19.467 -0.1752 -1.0345  1.9434
 3828TIP3   OH235678   0.752   0.173  16.870 -0.1453  0.1531  0.2417
 3828TIP3    H135679   0.776   0.265  16.879  0.7069 -0.1449  1.1942
 3828TIP3    H235680   0.713   0.149  16.954  0.0918 -0.4800  0.1805
 3829TIP3   OH235681   4.164   3.896  18.715 -0.6090  0.7526 -0.4682
 3829TIP3    H135682   4.105   3.959  18.674  0.3944 -0.1032 -3.5135
 3829TIP3    H235683   4.249   3.912  18.673  0.3450 -0.7495  0.7786
 3830TIP3   OH235684   0.022   0.060  18.063  0.5212  0.2651  0.1460
 3830TIP3    H135685   0.028   0.100  17.976  1.2360  2.2674  1.0591
 3830TIP3    H235686   0.095   0.098  18.112  0.0652 -0.7254  1.6674
 3831TIP3   OH235687   5.098   2.696  17.613  0.3163 -0.0730 -0.9051
 3831TIP3    H135688   5.163   2.680  17.682 -0.6454  0.3253  0.1152
 3831TIP3    H235689   5.142   2.754  17.551  0.5663  1.1687  0.3838
 3832TIP3   OH235690   0.204   4.174  19.283  0.3975 -0.0402 -0.5202
 3832TIP3    H135691   0.180   4.107  19.348  1.6342 -0.6550 -0.6761
 3832TIP3    H235692   0.247   4.125  19.213  1.2514  0.9017 -0.6709
 3833TIP3   OH235693   6.313   7.412  17.254  0.4191  0.1431 -0.4403
 3833TIP3    H135694   6.361   7.367  17.324  1.5217  2.6439  0.5409
 3833TIP3    H235695   6.301   7.501  17.287 -1.0095  0.8025 -2.5501
 3834TIP3   OH235696   7.059   4.772  17.549 -0.1244 -0.1629  0.3326
 3834TIP3    H135697   7.091   4.733  17.467 -0.3747  3.1910 -1.5412
 3834TIP3    H235698   6.985   4.826  17.522 -1.1517 -0.0723  3.0717
 3835TIP3   OH235699   2.104   3.788  18.607  0.4733 -0.7489 -0.0835
 3835TIP3    H135700   2.054   3.859  18.566 -0.9332 -0.9858  1.1243
 3835TIP3    H235701   2.175   3.769  18.546  0.5319  1.2951 -0.7150
 3836TIP3   OH235702   0.037   2.328  17.406 -0.5710 -0.4881  0.0814
 3836TIP3    H135703   0.007   2.268  17.338  1.3541  0.4242 -1.6913
 3836TIP3    H235704  -0.005   2.412  17.384 -0.3588 -0.3131  0.3320
 3837TIP3   OH235705   4.312   0.706  18.286 -0.5212 -0.5535 -0.4465
 3837TIP3    H135706   4.387   0.737  18.338 -1.0313 -0.1246  0.0379
 3837TIP3    H235707   4.342   0.623  18.249 -0.0876 -0.7965  0.4061
 3838TIP3   OH235708   6.010   7.500  18.666  0.0429 -0.3531 -0.4643
 3838TIP3    H135709   5.988   7.431  18.728  0.7599  1.1507  1.6042
 3838TIP3    H235710   5.930   7.553  18.660  0.3938  0.2750  0.2841
 3839TIP3   OH235711   0.056   6.480  17.382 -0.5478 -0.0631  0.4003
 3839TIP3    H135712   0.051   6.563  17.429  0.2816  0.2538 -0.0439
 3839TIP3    H235713   0.109   6.499  17.305 -1.2707 -0.7495 -0.2906
 3840TIP3   OH235714   0.185   4.359  16.776  0.2042  0.2337  0.6604
 3840TIP3    H135715   0.156   4.443  16.742  0.2309 -0.3880 -0.9952
 3840TIP3    H235716   0.115   4.298  16.752  0.3527 -0.2786  1.5058
 3841TIP3   OH235717   3.976   4.472  19.189 -0.2311  0.4046 -0.0528
 3841TIP3    H135718   4.014   4.550  19.229  0.9154 -0.2087  0.1098
 3841TIP3    H235719   4.049   4.410  19.183 -1.3345 -1.0443  0.8186
 3842TIP3   OH235720   2.041   5.982  17.417  0.4596 -0.3037  0.2612
 3842TIP3    H135721   2.077   6.069  17.401  2.1381 -0.9439  0.4281
 3842TIP3    H235722   1.969   5.974  17.354  1.2479  0.6253 -0.7883
 3843TIP3   OH235723   6.319   5.501  17.449  0.4514  0.0486 -0.3949
 3843TIP3    H135724   6.390   5.438  17.439  0.0841 -0.3292 -0.6362
 3843TIP3    H235725   6.249   5.468  17.392 -1.6577 -2.0717  3.0737
 3844TIP3   OH235726   4.918   5.789  16.993 -1.1314  0.0328 -0.3078
 3844TIP3    H135727   4.842   5.780  17.050 -1.7568 -0.7900 -1.2221
 3844TIP3    H235728   4.913   5.713  16.934  0.8009 -0.4448  0.0625
 3845TIP3   OH235729   3.592   3.991  17.906 -0.2277 -0.2365 -0.2093
 3845TIP3    H135730   3.509   3.979  17.951  0.5464  0.6381  1.5809
 3845TIP3    H235731   3.570   4.039  17.826 -1.7958 -2.8539 -1.4599
 3846TIP3   OH235732   6.843   1.907  18.128 -0.1803  0.6271  0.3956
 3846TIP3    H135733   6.938   1.910  18.130 -0.0467 -0.1996 -2.0196
 3846TIP3    H235734   6.817   1.982  18.075 -0.8141  0.3763  0.3335
 3847TIP3   OH235735   4.132   1.152  16.984 -0.6075  0.1151 -0.2678
 3847TIP3    H135736   4.173   1.238  16.979 -1.1644  0.3856 -0.2030
 3847TIP3    H235737   4.130   1.121  16.893 -2.1162  0.9865 -0.5619
 3848TIP3   OH235738   2.402   2.155  18.317 -0.2150  0.0683  0.2409
 3848TIP3    H135739   2.385   2.069  18.357  0.7462  0.4134  1.4530
 3848TIP3    H235740   2.362   2.149  18.230  0.7678 -1.9831 -0.1323
 3849TIP3   OH235741   7.068   3.876  19.227 -0.1049 -0.2048 -0.0087
 3849TIP3    H135742   7.119   3.910  19.300  1.7014 -1.7973 -0.4262
 3849TIP3    H235743   7.102   3.922  19.150 -1.1499  0.5843 -0.0250
 3850TIP3   OH235744   7.275   0.715  18.354  0.0722  0.2695 -0.1809
 3850TIP3    H135745   7.245   0.642  18.409  3.0801  0.0708  1.3997
 3850TIP3    H235746   7.324   0.673  18.283  0.2157  0.6786 -0.3256
 3851TIP3   OH235747   2.372   3.455  18.496  0.0163 -0.1484 -0.2107
 3851TIP3    H135748   2.455   3.464  18.450 -0.7391  0.7083 -1.4693
 3851TIP3    H235749   2.396   3.442  18.588  1.5900 -2.7894 -0.9039
 3852TIP3   OH235750   5.999   7.024  18.668 -0.6616  0.1596  0.5891
 3852TIP3    H135751   6.056   7.056  18.599 -0.5563 -2.6675 -0.7652
 3852TIP3    H235752   6.026   6.933  18.682 -2.2727 -0.0885  2.6607
 3853TIP3   OH235753   0.933   6.194  19.856  0.4560 -0.0078 -0.3747
 3853TIP3    H135754   0.905   6.232  19.773  1.0997  0.5198 -0.3564
 3853TIP3    H235755   0.985   6.263  19.898  0.7796 -0.5435  0.1236
 3854TIP3   OH235756   2.551   3.270  18.062  0.1243  0.7272 -0.5033
 3854TIP3    H135757   2.474   3.311  18.101 -1.0208 -2.2671  0.6740
 3854TIP3    H235758   2.621   3.288  18.124 -0.6916 -0.2669  0.7474
 3855TIP3   OH235759   0.235   5.361  19.216  0.5792 -0.5351  0.1744
 3855TIP3    H135760   0.310   5.417  19.195  0.1230 -0.2345 -0.7276
 3855TIP3    H235761   0.245   5.341  19.309  1.6359 -0.2873  0.1327
 3856TIP3   OH235762   0.072   4.333  17.789 -0.1096  0.1909  0.0055
 3856TIP3    H135763   0.027   4.306  17.709 -0.9518  2.6315 -0.4251
 3856TIP3    H235764   0.005   4.329  17.856 -0.4338  1.7037 -0.1945
 3857TIP3   OH235765   4.833   0.497  17.667  0.0127 -0.4733  0.2215
 3857TIP3    H135766   4.744   0.495  17.704 -1.1054  1.3205 -2.0883
 3857TIP3    H235767   4.861   0.588  17.679  1.2543 -0.8458  0.2412
 3858TIP3   OH235768   7.673   5.663  17.508 -0.3259  0.1743 -0.8534
 3858TIP3    H135769   7.644   5.651  17.418 -1.2205 -0.9673 -0.4328
 3858TIP3    H235770   7.768   5.655  17.504 -0.3808 -0.1428 -1.6474
 3859TIP3   OH235771   4.628   6.640  18.795  0.3372 -0.5417  0.4344
 3859TIP3    H135772   4.629   6.733  18.818  0.8524  0.0383 -1.7230
 3859TIP3    H235773   4.719   6.613  18.798  0.3807 -0.5340 -0.5151
 3860TIP3   OH235774   2.526   1.594  18.481  0.0589  0.6885  0.3295
 3860TIP3    H135775   2.588   1.653  18.523  0.4520  0.4065  0.1542
 3860TIP3    H235776   2.509   1.634  18.395  1.2450 -0.0424 -0.2787
 3861TIP3   OH235777   6.206   3.618  19.312  0.0005  0.3937 -0.1744
 3861TIP3    H135778   6.297   3.615  19.343 -0.0606 -1.9124 -0.0401
 3861TIP3    H235779   6.157   3.571  19.379 -1.1134  0.5579 -0.8585
 3862TIP3   OH235780   3.151   7.323  19.082 -0.4552 -0.4138 -0.1753
 3862TIP3    H135781   3.073   7.328  19.138  0.7926 -0.8153  1.6973
 3862TIP3    H235782   3.168   7.414  19.058 -1.3856 -0.3048 -0.4784
 3863TIP3   OH235783   3.772   0.508  16.721  0.3402 -0.6119  0.0111
 3863TIP3    H135784   3.821   0.470  16.648 -0.5837 -1.3653 -0.2294
 3863TIP3    H235785   3.794   0.452  16.796  0.4659 -0.4651  0.0851
 3864TIP3   OH235786   1.971   6.930  17.685 -0.7507 -0.2923  0.0151
 3864TIP3    H135787   1.979   6.838  17.661 -1.4181 -0.5468  0.7080
 3864TIP3    H235788   1.992   6.978  17.605 -1.6031 -1.0666 -0.6997
 3865TIP3   OH235789   2.691   5.905  17.754 -0.2708  0.4114 -0.9236
 3865TIP3    H135790   2.614   5.962  17.761  0.2641  1.0440  0.0811
 3865TIP3    H235791   2.763   5.958  17.788  0.3645 -0.6423 -0.5885
 3866TIP3   OH235792   4.885   1.750  19.299 -0.0252 -0.4979 -0.8033
 3866TIP3    H135793   4.808   1.798  19.268  0.7132  0.4174 -1.2614
 3866TIP3    H235794   4.895   1.678  19.237 -2.2081 -2.4427  0.8893
 3867TIP3   OH235795   3.883   1.538  17.959  0.1739  0.1069  0.2646
 3867TIP3    H135796   3.806   1.591  17.940  0.0598 -0.4092 -0.7759
 3867TIP3    H235797   3.957   1.597  17.946  0.0619 -0.0423 -1.1643
 3868TIP3   OH235798   6.647   5.609  19.609  0.1125  0.0305  0.0683
 3868TIP3    H135799   6.740   5.626  19.593  0.3570 -1.3989 -0.1558
 3868TIP3    H235800   6.614   5.575  19.526 -0.2550 -0.8405  0.5532
 3869TIP3   OH235801   3.917   6.556  18.067 -0.4954  0.4199 -0.2200
 3869TIP3    H135802   3.887   6.641  18.036 -2.0051 -0.7158 -2.1011
 3869TIP3    H235803   3.977   6.524  18.000 -0.7781 -0.4406 -0.0877
 3870TIP3   OH235804   5.873   7.173  18.260  0.4236 -0.1381 -0.3245
 3870TIP3    H135805   5.863   7.212  18.347 -0.1301  0.3625 -0.6092
 3870TIP3    H235806   5.921   7.239  18.210 -1.9932  0.9959 -1.3122
 3871TIP3   OH235807   6.494   2.282  18.614  0.1091 -0.1759  0.3287
 3871TIP3    H135808   6.529   2.286  18.525 -0.3119 -2.3774  0.0174
 3871TIP3    H235809   6.492   2.374  18.643  1.0923  0.5010 -1.5756
 3872TIP3   OH235810   1.922   6.971  18.216 -0.0091  1.0643  0.6406
 3872TIP3    H135811   1.846   6.980  18.158 -1.0840 -0.9437  1.6010
 3872TIP3    H235812   1.939   7.059  18.248 -0.8881  1.8222 -0.8741
 3873TIP3   OH235813   3.750   0.411  18.014  0.3791  0.4014  0.3786
 3873TIP3    H135814   3.777   0.450  18.097  1.0981  1.2182 -0.2270
 3873TIP3    H235815   3.809   0.449  17.949 -0.4085  0.0558 -0.5614
 3874TIP3   OH235816   4.289   6.919  17.817 -0.9544  0.2196 -0.5601
 3874TIP3    H135817   4.330   7.004  17.836 -0.1120 -0.2837 -0.0410
 3874TIP3    H235818   4.245   6.896  17.899  0.3179 -0.6572 -0.0999
 3875TIP3   OH235819   1.304   2.331  17.648 -0.1732 -0.1534  0.2058
 3875TIP3    H135820   1.276   2.415  17.683 -0.8113 -0.0998 -0.4094
 3875TIP3    H235821   1.365   2.296  17.713  1.9064  1.8163 -0.5609
 3876TIP3   OH235822   5.000   1.202  17.652  0.2057 -0.1897 -0.3600
 3876TIP3    H135823   5.077   1.182  17.599  1.9487 -0.0889  1.9539
 3876TIP3    H235824   5.032   1.262  17.719 -1.8724 -0.2125  0.7502
 3877TIP3   OH235825   6.813   4.581  16.988  0.4064  0.4157 -0.6118
 3877TIP3    H135826   6.722   4.594  17.015  0.3060  0.6884 -1.0631
 3877TIP3    H235827   6.859   4.656  17.024  0.5153  0.1120 -0.1126
 3878TIP3   OH235828   4.133   3.362  18.739  0.2487 -0.7217  0.4257
 3878TIP3    H135829   4.062   3.405  18.787  0.7127  0.5567  0.0092
 3878TIP3    H235830   4.213   3.403  18.773  0.6209 -0.1879 -1.0300
 3879TIP3   OH235831   2.323   5.799  17.061  0.2793  0.1583 -0.3887
 3879TIP3    H135832   2.303   5.738  16.989  3.1230 -0.1952 -1.0221
 3879TIP3    H235833   2.331   5.743  17.138  0.5661  0.0399 -0.5014
 3880TIP3   OH235834   0.768   0.496  18.024 -0.3705 -0.6963  0.2247
 3880TIP3    H135835   0.691   0.444  18.049 -1.1444 -0.4210 -1.4464
 3880TIP3    H235836   0.843   0.445  18.055 -1.1888 -1.0061  1.8352
 3881TIP3   OH235837   2.897   2.500  18.948  0.2330 -0.0290 -0.5644
 3881TIP3    H135838   2.896   2.594  18.964  2.7069 -0.1189  0.5966
 3881TIP3    H235839   2.806   2.472  18.960 -0.2586  1.9462  0.6789
 3882TIP3   OH235840   3.226   2.082  18.986 -0.5071 -0.0964  0.2502
 3882TIP3    H135841   3.298   2.100  19.045  0.6592  1.0539 -1.4506
 3882TIP3    H235842   3.152   2.062  19.044  0.5028  1.2059  2.0865
 3883TIP3   OH235843   4.409   7.668  17.503  0.1029 -0.2764  0.9003
 3883TIP3    H135844   4.395   7.714  17.419 -0.1282 -0.4597  0.8373
 3883TIP3    H235845   4.370   7.582  17.490 -0.8317  0.0334  1.5295
 3884TIP3   OH235846   7.442   1.603  16.552  0.0854 -0.5534  0.0165
 3884TIP3    H135847   7.451   1.632  16.643 -1.3696 -0.2315  0.0765
 3884TIP3    H235848   7.499   1.663  16.503  0.0253 -0.0096  0.5918
 3885TIP3   OH235849   6.074   3.602  18.713  0.1478  0.2071 -0.8313
 3885TIP3    H135850   6.009   3.532  18.718 -1.4731  1.6617 -0.7061
 3885TIP3    H235851   6.148   3.562  18.667 -0.1780 -1.9595  0.4087
 3886TIP3   OH235852   0.706   6.232  16.705  0.5741 -0.1300  0.4490
 3886TIP3    H135853   0.801   6.239  16.713  0.4751 -0.4449  2.1934
 3886TIP3    H235854   0.675   6.323  16.710  0.6596 -0.1703  2.0903
 3887TIP3   OH235855   6.360   4.547  17.336 -0.1871  0.3845  0.3139
 3887TIP3    H135856   6.395   4.633  17.311 -0.7315  0.3612 -0.5952
 3887TIP3    H235857   6.381   4.490  17.262 -2.8059  0.5616 -0.6689
 3888TIP3   OH235858   2.306   5.144  18.915 -0.0407  0.5055  0.6502
 3888TIP3    H135859   2.284   5.098  18.996 -0.7635 -0.2548  0.0387
 3888TIP3    H235860   2.239   5.212  18.907 -0.3275  0.1929  0.3832
 3889TIP3   OH235861   7.004   5.531  17.909 -0.4615 -0.1604 -0.7178
 3889TIP3    H135862   7.044   5.614  17.932 -0.0787 -0.6024  0.2735
 3889TIP3    H235863   6.911   5.552  17.894 -0.2081  0.5665 -1.2889
 3890TIP3   OH235864   5.747   3.426  19.295 -0.3864  0.3882 -0.0600
 3890TIP3    H135865   5.708   3.338  19.292 -1.3006  0.8069 -1.1100
 3890TIP3    H235866   5.842   3.410  19.294 -0.5403 -0.5747 -0.6435
 3891TIP3   OH235867   7.420   2.675  19.374 -0.0038  0.2016  0.2119
 3891TIP3    H135868   7.439   2.732  19.299 -1.1431  2.5362  1.5832
 3891TIP3    H235869   7.348   2.619  19.343 -1.0468  1.7177 -0.2163
 3892TIP3   OH235870   3.815   2.226  16.918  0.1258  0.0959  0.3974
 3892TIP3    H135871   3.817   2.321  16.928  1.3159  0.1562 -0.1772
 3892TIP3    H235872   3.897   2.196  16.959 -0.3269 -0.7013  0.7412
 3893TIP3   OH235873   4.766   2.527  18.158 -0.1340 -0.0215 -0.1828
 3893TIP3    H135874   4.776   2.604  18.215 -1.1733  1.1833 -1.5590
 3893TIP3    H235875   4.774   2.453  18.218  1.2253  1.1076  1.1529
 3894TIP3   OH235876   5.535   0.972  18.475  0.2170  0.1000 -0.1216
 3894TIP3    H135877   5.616   0.939  18.514  1.2841 -0.7939 -2.7909
 3894TIP3    H235878   5.552   1.064  18.458  1.3916 -0.4159 -2.0915
 3895TIP3   OH235879   5.369   7.189  19.211  0.3218 -0.2592  0.1490
 3895TIP3    H135880   5.370   7.116  19.273  0.8745 -0.6868 -0.3537
 3895TIP3    H235881   5.437   7.249  19.243 -0.0202 -0.0414  0.4724
 3896TIP3   OH235882   0.308   6.024  19.063 -0.1176 -0.0987 -0.0202
 3896TIP3    H135883   0.238   5.983  19.011 -0.8467  0.5780  0.4026
 3896TIP3    H235884   0.325   6.107  19.018 -0.1675  0.1095  0.3469
 3897TIP3   OH235885   0.400   7.175  16.654  0.0154  0.3838  0.0404
 3897TIP3    H135886   0.473   7.214  16.605  1.6790  0.0421  2.0822
 3897TIP3    H235887   0.391   7.087  16.618  2.3172 -0.4598  1.2706
 3898TIP3   OH235888   4.535   4.846  18.336  0.2329 -0.5173 -0.0742
 3898TIP3    H135889   4.442   4.866  18.345  0.3706  1.2101 -1.8318
 3898TIP3    H235890   4.543   4.809  18.248  1.4421  1.2706 -0.7679
 3899TIP3   OH235891   3.201   6.917  17.620  0.4690 -0.3768 -0.3568
 3899TIP3    H135892   3.190   6.979  17.692  0.2728  0.5330 -1.1540
 3899TIP3    H235893   3.296   6.911  17.609  0.4906 -0.2878 -0.2266
 3900TIP3   OH235894   4.206   4.067  18.106  0.1222 -0.8087 -0.5670
 3900TIP3    H135895   4.208   4.018  18.189  0.4053 -0.6293 -0.4649
 3900TIP3    H235896   4.116   4.060  18.076 -0.3830  0.4343  0.5397
 3901TIP3   OH235897   0.959   1.242  19.136 -0.1019  0.2660 -0.4486
 3901TIP3    H135898   0.965   1.328  19.177  0.5637  0.3628 -0.7341
 3901TIP3    H235899   1.007   1.252  19.053 -0.2252 -0.3118 -0.5921
 3902TIP3   OH235900   4.278   6.840  16.587  0.2005  0.1796 -0.4665
 3902TIP3    H135901   4.334   6.858  16.512 -0.4022 -1.0027 -1.2460
 3902TIP3    H235902   4.189   6.849  16.553 -0.0785 -0.0512  0.1789
 3903TIP3   OH235903   3.421   1.757  19.135  0.2715 -0.2053 -0.0245
 3903TIP3    H135904   3.330   1.784  19.119  0.2315 -0.4837 -0.2691
 3903TIP3    H235905   3.439   1.693  19.066  1.3234  1.3721 -1.2792
 3904TIP3   OH235906   1.716   5.433  18.494 -0.1324  0.3212  0.0667
 3904TIP3    H135907   1.787   5.372  18.473  0.3419  1.1340 -0.7364
 3904TIP3    H235908   1.667   5.443  18.412  0.7905  2.2911 -0.2842
 3905TIP3   OH235909   2.395   4.820  16.673 -0.1135  0.0240  0.0924
 3905TIP3    H135910   2.365   4.741  16.719 -0.2307 -0.2620 -0.4633
 3905TIP3    H235911   2.323   4.882  16.683 -0.5074 -0.3399 -0.4430
 3906TIP3   OH235912   2.467   5.600  17.196 -0.2412  0.6140 -0.1487
 3906TIP3    H135913   2.415   5.650  17.259 -2.1413  1.4721 -2.2500
 3906TIP3    H235914   2.430   5.512  17.199 -0.1465  0.5806  0.0962
 3907TIP3   OH235915   5.928   4.439  18.313 -0.3237 -0.2305  0.0118
 3907TIP3    H135916   5.956   4.364  18.365 -1.6695 -0.7248  0.0709
 3907TIP3    H235917   6.005   4.462  18.261  0.1608 -1.5701  0.0884
 3908TIP3   OH235918   4.465   5.857  18.495  0.2108  0.3297 -0.4899
 3908TIP3    H135919   4.396   5.793  18.476 -0.1527  0.4721  0.3014
 3908TIP3    H235920   4.500   5.880  18.409 -0.1152 -0.4241 -0.8380
 3909TIP3   OH235921   6.137   4.055  18.079  0.7115 -0.1314 -0.0218
 3909TIP3    H135922   6.122   3.960  18.080 -0.9989  0.1147  0.9279
 3909TIP3    H235923   6.106   4.083  17.992  0.3037 -0.3226  0.0562
 3910TIP3   OH235924   2.146   3.012  17.483 -0.0130 -0.7141  0.6118
 3910TIP3    H135925   2.154   3.094  17.433 -3.5531  1.0244  2.5198
 3910TIP3    H235926   2.178   3.034  17.570  0.2079 -1.8017  0.8143
 3911TIP3   OH235927   7.355   7.094  18.245  0.5090 -0.1061 -0.3061
 3911TIP3    H135928   7.423   7.129  18.302  1.2571 -1.0826 -0.5733
 3911TIP3    H235929   7.402   7.055  18.172 -0.0992 -3.3716  0.8787
 3912TIP3   OH235930   5.273   4.085  17.353 -0.1030 -0.4052 -0.3494
 3912TIP3    H135931   5.178   4.093  17.358  0.0075  0.4101  2.2656
 3912TIP3    H235932   5.292   4.000  17.393  0.2723 -0.4233 -0.5604
 3913TIP3   OH235933   2.664   5.650  17.812  0.4333  0.6318  0.1579
 3913TIP3    H135934   2.602   5.617  17.748  0.2070  1.2738  0.0384
 3913TIP3    H235935   2.665   5.745  17.798  1.9558  0.5672 -0.3138
 3914TIP3   OH235936   3.493   2.388  19.050 -0.1772  0.3968  0.4388
 3914TIP3    H135937   3.554   2.380  19.124 -0.6023 -1.7355  0.6140
 3914TIP3    H235938   3.547   2.419  18.978  0.8235 -0.0700  0.9655
 3915TIP3   OH235939   5.690   5.093  18.233 -0.2461 -0.1017 -0.1511
 3915TIP3    H135940   5.750   5.132  18.297  1.3770  0.5131 -1.9534
 3915TIP3    H235941   5.700   5.147  18.154  0.3791 -2.7288 -2.0122
 3916TIP3   OH235942   4.668   1.046  18.511  0.0618 -0.5320 -0.2749
 3916TIP3    H135943   4.689   1.139  18.516 -1.1312 -0.2677  0.3670
 3916TIP3    H235944   4.687   1.012  18.598  1.0530 -1.0358 -0.6735
 3917TIP3   OH235945   7.029   5.643  17.590 -0.0893 -0.1908  0.7530
 3917TIP3    H135946   6.981   5.718  17.625 -0.4002 -0.4162  0.8187
 3917TIP3    H235947   6.995   5.568  17.639 -0.2336 -0.4575  0.2507
 3918TIP3   OH235948   7.424   0.667  18.711 -0.1357 -0.0886  0.0093
 3918TIP3    H135949   7.486   0.599  18.687 -0.7442 -0.8713  0.6111
 3918TIP3    H235950   7.344   0.645  18.663 -0.2470  0.3642 -0.0168
 3919TIP3   OH235951   1.150   7.553  18.379  0.6429  0.0174 -0.3474
 3919TIP3    H135952   1.216   7.497  18.420  1.8128 -1.4796 -3.9205
 3919TIP3    H235953   1.185   7.642  18.389  0.9674 -0.2841  1.5621
 3920TIP3   OH235954   5.659   7.007  18.250  0.0016  0.5954 -0.4329
 3920TIP3    H135955   5.571   7.041  18.232  0.7557  1.8772 -1.8651
 3920TIP3    H235956   5.717   7.081  18.234  1.4723 -0.6171 -0.9086
 3921TIP3   OH235957   5.805   3.689  18.828  0.3455 -0.3031 -0.1745
 3921TIP3    H135958   5.871   3.620  18.828 -1.2008 -1.8426  0.0460
 3921TIP3    H235959   5.734   3.655  18.882 -0.2357  1.7357  0.4578
 3922TIP3   OH235960   1.445   3.204  16.956 -0.1054 -0.2718  0.0674
 3922TIP3    H135961   1.520   3.177  17.010 -1.3953 -1.3790  1.3788
 3922TIP3    H235962   1.464   3.169  16.869  1.6740  0.9136 -0.0826
 3923TIP3   OH235963   1.867   0.491  17.155  0.7549 -0.3577 -0.6715
 3923TIP3    H135964   1.859   0.551  17.080  0.2764  0.5730  0.1015
 3923TIP3    H235965   1.961   0.476  17.164  0.8382 -0.2273 -1.2503
 3924TIP3   OH235966   2.873   1.523  18.590  0.1745  0.2448 -0.7367
 3924TIP3    H135967   2.902   1.563  18.508 -1.4567  0.3634 -1.2961
 3924TIP3    H235968   2.953   1.510  18.640  0.9038  3.3185 -0.9292
 3925TIP3   OH235969   5.458   5.984  17.095  0.0246  0.4574  0.4586
 3925TIP3    H135970   5.408   6.021  17.021  1.4059  1.8814  0.1843
 3925TIP3    H235971   5.418   6.024  17.172  1.4645  2.6061  0.1657
 3926TIP3   OH235972   4.628   5.613  17.857  0.4095 -0.1661 -0.0147
 3926TIP3    H135973   4.704   5.561  17.830  0.2081 -0.3251 -0.2791
 3926TIP3    H235974   4.661   5.703  17.860  0.9371 -0.3863  1.1084
 3927TIP3   OH235975   1.529   0.582  18.916 -0.4093  0.1621  0.2413
 3927TIP3    H135976   1.617   0.550  18.935 -0.6943 -0.6179  0.3164
 3927TIP3    H235977   1.507   0.543  18.832 -0.2589  1.2708 -0.3283
 3928TIP3   OH235978   1.627   6.361  17.447  0.5004 -0.4174  0.3906
 3928TIP3    H135979   1.649   6.430  17.385  0.8678 -0.3092  0.6324
 3928TIP3    H235980   1.699   6.362  17.510  0.6197 -1.1632  0.2792
 3929TIP3   OH235981   0.349   4.420  19.294  0.3832  0.3976 -0.3695
 3929TIP3    H135982   0.317   4.331  19.278  1.8388  0.0460 -1.6445
 3929TIP3    H235983   0.372   4.421  19.387 -0.9488 -0.0979 -0.0173
 3930TIP3   OH235984   4.801   4.454  18.330  0.3705  0.1647 -0.2138
 3930TIP3    H135985   4.753   4.453  18.413 -2.1565 -0.3388 -1.6010
 3930TIP3    H235986   4.890   4.428  18.354 -0.8259 -2.3087  2.0388
 3931TIP3   OH235987   2.419   1.402  18.916  0.0236  0.1664 -0.0161
 3931TIP3    H135988   2.465   1.321  18.894  1.6641  1.6074 -2.2913
 3931TIP3    H235989   2.373   1.426  18.836  1.1824  2.4728 -0.0524
 3932TIP3   OH235990   6.172   0.779  17.816  0.2903 -0.6638 -0.4958
 3932TIP3    H135991   6.166   0.742  17.904 -1.3261  0.5685 -0.0382
 3932TIP3    H235992   6.250   0.738  17.778  1.4091 -0.7627  1.7183
 3933TIP3   OH235993   1.152   0.759  18.384 -0.0649  0.8413  0.2034
 3933TIP3    H135994   1.153   0.708  18.465  0.6251  0.9601  0.2775
 3933TIP3    H235995   1.166   0.695  18.314 -0.6828  0.7358  0.1712
 3934TIP3   OH235996   1.586   4.580  17.270 -0.3622  0.1668  0.6768
 3934TIP3    H135997   1.603   4.663  17.226 -0.9823 -0.6341 -1.1616
 3934TIP3    H235998   1.510   4.598  17.326  0.8070  1.3593  1.9507
 3935TIP3   OH235999   5.148   4.340  18.764 -0.4277  0.0309 -0.0633
 3935TIP3    H136000   5.105   4.423  18.741 -0.5176 -0.2573 -0.9752
 3935TIP3    H236001   5.241   4.362  18.767 -0.4129  0.0902 -0.6993
 3936TIP3   OH236002   2.838   2.058  18.607  0.1774  0.5282  0.0002
 3936TIP3    H136003   2.916   2.062  18.663  0.6741  0.5090 -0.6806
 3936TIP3    H236004   2.849   2.131  18.546 -0.6128  0.8635  0.2510
 3937TIP3   OH236005   4.859   2.086  17.565  0.1231 -0.1515 -1.0801
 3937TIP3    H136006   4.929   2.084  17.499  0.6170 -2.5898 -0.5532
 3937TIP3    H236007   4.903   2.110  17.646 -0.2147  1.2488 -1.2793
 3938TIP3   OH236008   5.727   4.882  18.973  0.5759  0.1091  0.1223
 3938TIP3    H136009   5.734   4.943  18.900  1.2555 -0.5450 -0.3859
 3938TIP3    H236010   5.749   4.797  18.935 -0.6568 -0.5219  0.7328
 3939TIP3   OH236011   3.114   7.568  17.440 -0.0459 -0.1311 -0.3994
 3939TIP3    H136012   3.029   7.598  17.408  0.1122  0.6624 -0.0952
 3939TIP3    H236013   3.174   7.639  17.420  0.2610 -0.0720  0.6874
 3940TIP3   OH236014   7.427   2.393  16.754  0.4999 -0.1026  0.3753
 3940TIP3    H136015   7.363   2.331  16.787  0.3464 -0.7717 -1.1281
 3940TIP3    H236016   7.487   2.341  16.701  0.3856  1.0114 -0.9016
 3941TIP3   OH236017   4.645   1.647  17.998 -0.1666  0.0332  0.7444
 3941TIP3    H136018   4.726   1.631  17.950 -1.2592 -1.0380 -0.8745
 3941TIP3    H236019   4.610   1.560  18.015 -2.6773  0.4093 -1.7626
 3942TIP3   OH236020   2.397   6.576  19.111  0.4696 -0.4856 -0.2069
 3942TIP3    H136021   2.466   6.547  19.170 -0.8737  0.2375  1.8229
 3942TIP3    H236022   2.316   6.540  19.149 -0.6885  1.8507 -0.2983
 3943TIP3   OH236023   3.861   7.490  16.891  0.6375 -0.5297  0.6280
 3943TIP3    H136024   3.825   7.409  16.929 -0.5879 -0.1910  0.2409
 3943TIP3    H236025   3.955   7.474  16.884  0.4918 -1.6864  1.1332
 3944TIP3   OH236026   1.027   0.808  17.774 -0.0085 -0.2006  0.3282
 3944TIP3    H136027   1.111   0.795  17.818 -0.9432  0.2419  2.3418
 3944TIP3    H236028   1.050   0.842  17.688  1.8565  0.1804  0.9414
 3945TIP3   OH236029   3.487   0.981  19.001  0.0738  0.1899 -0.1670
 3945TIP3    H136030   3.479   0.906  18.942  1.7226  1.4757 -2.1829
 3945TIP3    H236031   3.544   0.950  19.071  1.1974 -0.3199 -1.2652
 3946TIP3   OH236032   2.355   5.889  16.769 -0.4579 -0.0317  0.1419
 3946TIP3    H136033   2.328   5.960  16.829  0.0231  0.8306 -0.6345
 3946TIP3    H236034   2.329   5.809  16.814 -0.9832  0.6355  1.0693
 3947TIP3   OH236035   1.351   2.072  17.525 -0.2858  0.2414 -0.4729
 3947TIP3    H136036   1.369   2.153  17.573  1.6986  0.7258 -1.8892
 3947TIP3    H236037   1.379   2.002  17.585 -1.6718  0.5857  0.6118
 3948TIP3   OH236038   3.817   4.165  17.033 -0.2594  0.4712  0.1994
 3948TIP3    H136039   3.742   4.195  16.982 -1.5117 -0.4135  1.4524
 3948TIP3    H236040   3.868   4.112  16.971 -1.7028 -0.5081 -0.2132
 3949TIP3   OH236041   2.487   4.064  17.397  0.3860  0.4204  0.2003
 3949TIP3    H136042   2.575   4.087  17.367 -0.0119  0.6950 -0.7975
 3949TIP3    H236043   2.436   4.054  17.316 -0.6074  0.7100  0.7796
 3950TIP3   OH236044   2.939   1.314  18.261 -0.1194  0.7111 -0.2485
 3950TIP3    H136045   2.890   1.245  18.306 -1.5408  0.7970 -1.5688
 3950TIP3    H236046   3.031   1.289  18.270 -0.6297 -2.5662 -2.4195
 3951TIP3   OH236047   4.089   3.767  19.145  0.2324 -0.0985 -0.2765
 3951TIP3    H136048   4.161   3.802  19.198  0.8952  0.1692 -1.3129
 3951TIP3    H236049   4.126   3.759  19.057 -1.3066  1.0163 -1.0770
 3952TIP3   OH236050   1.886   5.799  18.454  0.3475 -0.4252 -0.4261
 3952TIP3    H136051   1.890   5.894  18.469 -1.1554 -0.4469  0.3501
 3952TIP3    H236052   1.826   5.767  18.522 -1.3090 -1.5517 -2.3378
 3953TIP3   OH236053   0.255   2.390  16.554 -0.3133 -0.5533  0.0469
 3953TIP3    H136054   0.217   2.360  16.471 -1.1397 -0.3694  0.3559
 3953TIP3    H236055   0.338   2.342  16.560 -0.0790 -0.3170 -1.0516
 3954TIP3   OH236056   7.358   1.834  16.318 -0.4447 -0.2811 -0.8531
 3954TIP3    H136057   7.439   1.782  16.325 -0.3511 -0.0844 -0.4960
 3954TIP3    H236058   7.291   1.780  16.360 -0.3352 -0.0885 -0.4276
 3955TIP3   OH236059   6.358   2.685  18.860  0.0754  0.2706 -0.0329
 3955TIP3    H136060   6.288   2.621  18.856  0.5201 -0.2814  0.6837
 3955TIP3    H236061   6.370   2.702  18.954 -1.3798  2.9375 -0.2213
 3956TIP3   OH236062   7.118   7.100  19.264  0.8042 -0.1185  0.0104
 3956TIP3    H136063   7.114   7.020  19.211 -2.8342  1.0563 -1.8662
 3956TIP3    H236064   7.137   7.169  19.201  0.0792  0.9034  0.8830
 3957TIP3   OH236065   0.187   1.715  18.077  0.0234  0.4687 -0.1399
 3957TIP3    H136066   0.189   1.619  18.075 -3.4231  0.2402 -3.2245
 3957TIP3    H236067   0.121   1.737  18.141  0.8058  0.8372  0.5593
 3958TIP3   OH236068   0.272   1.446  17.523  0.4711 -0.3092  0.5700
 3958TIP3    H136069   0.248   1.514  17.587 -0.6145  0.3296 -0.4893
 3958TIP3    H236070   0.291   1.494  17.443  3.4789 -0.9489  0.7615
 3959TIP3   OH236071   5.321   2.744  18.344  0.5605 -0.5980  0.0994
 3959TIP3    H136072   5.280   2.811  18.289 -2.0227 -1.3535  0.9664
 3959TIP3    H236073   5.386   2.703  18.287  1.2108  1.6537 -0.8910
 3960TIP3   OH236074   1.357   4.981  17.548 -0.5259 -0.2844 -0.7062
 3960TIP3    H136075   1.436   4.997  17.497 -0.4856  0.0021 -0.5538
 3960TIP3    H236076   1.355   5.050  17.613 -1.0009 -0.1782 -0.8256
 3961TIP3   OH236077   4.867   1.176  17.380  0.1468  0.2525 -0.2963
 3961TIP3    H136078   4.878   1.210  17.291 -1.0670 -0.7678 -0.8538
 3961TIP3    H236079   4.957   1.165  17.412  0.6980 -1.6732 -2.3012
 3962TIP3   OH236080   1.579   1.650  18.045 -0.6121  0.2918 -0.5591
 3962TIP3    H136081   1.568   1.725  17.987  2.6549 -0.7892 -2.8435
 3962TIP3    H236082   1.543   1.679  18.129  0.6258  4.4808 -1.2737
 3963TIP3   OH236083   7.240   7.248  19.058 -0.5903 -0.0421 -0.4913
 3963TIP3    H136084   7.263   7.194  18.983 -0.2843 -2.0254  0.9468
 3963TIP3    H236085   7.302   7.221  19.126 -0.5263  2.0475  0.3595
 3964TIP3   OH236086   5.475   5.109  17.486  0.1210 -0.4167 -0.4355
 3964TIP3    H136087   5.440   5.189  17.526  0.9947 -0.9406  1.4859
 3964TIP3    H236088   5.400   5.050  17.479  0.1370 -0.7432  1.6053
 3965TIP3   OH236089   3.419   3.646  17.246  0.3671 -0.0676  0.2601
 3965TIP3    H136090   3.437   3.740  17.244  0.7638 -0.1428  0.1011
 3965TIP3    H236091   3.420   3.619  17.154  2.1473 -0.5605  0.3775
 3966TIP3   OH236092   5.542   7.646  18.251 -0.3431  0.1871 -0.3106
 3966TIP3    H136093   5.599   7.572  18.274 -0.3681 -0.0166 -0.8628
 3966TIP3    H236094   5.454   7.616  18.272 -0.3671 -0.0025 -0.6641
 3967TIP3   OH236095   3.593   5.101  18.963  0.3195  0.2909 -0.7080
 3967TIP3    H136096   3.581   5.031  18.899  1.5247 -0.3228 -0.3086
 3967TIP3    H236097   3.519   5.160  18.949 -0.0339 -0.4013 -1.9053
 3968TIP3   OH236098   4.824   1.446  17.557 -0.3808 -0.1061 -0.4899
 3968TIP3    H136099   4.898   1.462  17.498 -0.2861  0.9416 -0.1131
 3968TIP3    H236100   4.812   1.351  17.555 -0.1551 -0.1258 -1.9156
 3969TIP3   OH236101   0.936   0.577  17.454 -0.6107 -0.3425 -0.8862
 3969TIP3    H136102   0.967   0.487  17.453  1.4445  0.3072 -1.1693
 3969TIP3    H236103   0.942   0.606  17.363 -1.9987 -0.1366 -0.9310
 3970TIP3   OH236104   3.690   2.461  17.967  0.1278  0.6526 -0.4778
 3970TIP3    H136105   3.676   2.554  17.983  0.9154  0.5083  1.2174
 3970TIP3    H236106   3.783   2.455  17.945  0.0991  0.2621 -0.4925
 3971TIP3   OH236107   3.462   1.583  17.998 -0.3856  0.0139  0.2049
 3971TIP3    H136108   3.515   1.551  18.072  0.8328 -0.6762 -0.9234
 3971TIP3    H236109   3.495   1.671  17.982 -1.9381  0.9264  1.6200
 3972TIP3   OH236110   6.192   3.132  18.960  0.0332 -0.2121  1.0038
 3972TIP3    H136111   6.140   3.202  18.921  1.3541 -0.1820 -0.8475
 3972TIP3    H236112   6.278   3.172  18.975  0.6097 -1.2335  0.5342
 3973TIP3   OH236113   1.866   5.005  18.742 -0.3288  0.0912 -0.0250
 3973TIP3    H136114   1.857   5.095  18.774 -0.3226 -0.5300  1.8412
 3973TIP3    H236115   1.956   5.000  18.711 -0.2445  0.6709  0.1000
 3974TIP3   OH236116   7.095   0.573  19.616  0.4423 -0.2404 -0.3307
 3974TIP3    H136117   7.041   0.639  19.572  0.9800 -0.7018 -1.7163
 3974TIP3    H236118   7.184   0.590  19.584  0.5640 -1.7318 -0.8237
 3975TIP3   OH236119   6.137   4.074  19.188  0.2760 -0.7088 -0.1560
 3975TIP3    H136120   6.076   4.095  19.259 -1.3820  0.0848 -1.7315
 3975TIP3    H236121   6.191   4.152  19.179  0.4937 -0.8132  0.2327
 3976TIP3   OH236122   0.970   6.284  18.755 -0.3484 -0.5025 -0.3241
 3976TIP3    H136123   0.952   6.285  18.661 -1.2975 -1.3088 -0.1789
 3976TIP3    H236124   0.947   6.195  18.783 -0.4181 -0.1789  0.7271
 3977TIP3   OH236125   6.942   4.382  19.514  0.3155 -0.6568  0.6313
 3977TIP3    H136126   6.970   4.474  19.507  1.1468 -1.0048 -0.9910
 3977TIP3    H236127   6.876   4.373  19.445 -1.2802 -0.7820  2.1154
 3978TIP3   OH236128   5.010   6.774  18.348 -0.4971 -0.0678  0.4918
 3978TIP3    H136129   4.951   6.845  18.375 -3.0624 -2.2202  0.9278
 3978TIP3    H236130   4.979   6.747  18.262  0.5086 -0.6374  0.2831
 3979TIP3   OH236131   3.764   3.457  17.022  0.3114 -0.1226  0.1823
 3979TIP3    H136132   3.705   3.454  16.946  0.8456  0.0703 -0.2407
 3979TIP3    H236133   3.767   3.550  17.046  0.1762 -0.1777  0.4190
 3980TIP3   OH236134   7.073   3.338  19.046 -0.3104  0.1489  0.4417
 3980TIP3    H136135   7.148   3.363  18.991 -0.6165  0.0862 -0.0120
 3980TIP3    H236136   7.112   3.314  19.130  0.7899 -4.2996 -1.0686
 3981TIP3   OH236137   3.427   3.496  19.178  0.2563  0.7974 -0.5742
 3981TIP3    H136138   3.336   3.486  19.150 -0.3578  0.1831  1.4620
 3981TIP3    H236139   3.448   3.588  19.160 -1.6422  1.6529  1.1977
 3982TIP3   OH236140   5.201   3.250  18.925  0.4962 -0.2037  0.8323
 3982TIP3    H136141   5.256   3.182  18.885 -1.0933 -0.9794 -0.1336
 3982TIP3    H236142   5.123   3.203  18.955 -0.4462  1.1351  0.5353
 3983TIP3   OH236143   0.341   0.799  16.910  0.3112 -0.2101 -1.3866
 3983TIP3    H136144   0.256   0.831  16.882  0.4427 -0.0474 -1.6033
 3983TIP3    H236145   0.401   0.870  16.890  0.1828  0.5713  0.7540
 3984TIP3   OH236146   0.224   0.213  18.195 -0.3316  0.0448 -0.5761
 3984TIP3    H136147   0.219   0.287  18.135 -0.8270  0.0180 -0.5666
 3984TIP3    H236148   0.311   0.175  18.179  0.3794  1.2940  0.1991
 3985TIP3   OH236149   2.915   4.855  16.997  0.2531 -0.4837 -0.0870
 3985TIP3    H136150   2.881   4.781  16.946  0.2981 -0.0271 -0.7909
 3985TIP3    H236151   2.837   4.904  17.022  0.3494  0.4408 -1.5126
 3986TIP3   OH236152   1.282   5.520  18.247 -0.3080 -0.2553 -0.0269
 3986TIP3    H136153   1.212   5.516  18.312  0.8741 -0.4343  1.2894
 3986TIP3    H236154   1.274   5.607  18.209 -1.9347 -0.6799 -0.7300
 3987TIP3   OH236155   3.163   4.606  19.177 -0.1372  0.0191 -0.5277
 3987TIP3    H136156   3.120   4.633  19.258  0.8617  1.8580 -0.5460
 3987TIP3    H236157   3.234   4.549  19.206 -0.8367 -0.7529 -0.2821
 3988TIP3   OH236158   5.114   7.675  18.189  0.0600 -0.1312 -0.0133
 3988TIP3    H136159   5.037   7.638  18.146 -1.9088  3.6659 -0.1880
 3988TIP3    H236160   5.163   7.718  18.119  0.4918  0.4080  0.6063
 3989TIP3   OH236161   2.175   3.178  18.423  0.3388  0.3466 -0.2948
 3989TIP3    H136162   2.140   3.202  18.509 -0.4118 -3.3187  0.6265
 3989TIP3    H236163   2.120   3.225  18.361  0.2983  2.3850  1.1900
 3990TIP3   OH236164   7.337   1.868  17.217  0.1114  0.7455 -0.1894
 3990TIP3    H136165   7.415   1.879  17.163  0.5899  2.2942  0.7454
 3990TIP3    H236166   7.370   1.836  17.301 -0.5316 -0.8127 -0.4896
 3991TIP3   OH236167   7.396   0.354  16.837  0.1480 -0.6010 -0.8453
 3991TIP3    H136168   7.312   0.382  16.803 -1.7212 -2.3752  1.8800
 3991TIP3    H236169   7.415   0.273  16.790  0.2591 -0.2791 -1.3579
 3992TIP3   OH236170   2.128   0.275  17.638  0.2020  0.6122  0.1381
 3992TIP3    H136171   2.146   0.351  17.692  0.8545  0.6499 -0.1250
 3992TIP3    H236172   2.211   0.255  17.595  0.3794 -1.0073  1.1597
 3993TIP3   OH236173   1.989   5.348  18.420 -0.2726  0.4720 -0.0550
 3993TIP3    H136174   2.078   5.325  18.391 -0.9966 -0.5159 -1.6038
 3993TIP3    H236175   1.953   5.266  18.454 -1.1233  0.4875 -0.8898
 3994TIP3   OH236176   7.393   3.422  17.304 -0.2835 -0.1055 -0.0038
 3994TIP3    H136177   7.460   3.422  17.235 -1.4000 -0.5341 -1.1314
 3994TIP3    H236178   7.333   3.351  17.279 -1.7877  0.9897  0.3406
 3995TIP3   OH236179   7.094   1.940  19.181 -0.0667  0.1461  0.1563
 3995TIP3    H136180   7.161   1.935  19.248  0.3947 -0.4515 -0.3378
 3995TIP3    H236181   7.052   1.854  19.182  0.7751 -0.3250 -1.1432
 3996TIP3   OH236182   3.154   3.726  17.273 -0.0339 -0.5440  0.3526
 3996TIP3    H136183   3.245   3.698  17.265  0.1367  0.1699 -0.2978
 3996TIP3    H236184   3.126   3.740  17.182  0.2078  2.3816  0.6417
 3997TIP3   OH236185   4.790   1.183  18.989 -0.3885  0.2833  0.0334
 3997TIP3    H136186   4.819   1.133  19.065  0.7591 -0.4387 -0.8384
 3997TIP3    H236187   4.740   1.120  18.937 -0.2304  0.4628 -0.3368
 3998TIP3   OH236188   1.986   0.611  18.368 -0.5736  0.2497 -0.0493
 3998TIP3    H136189   1.958   0.702  18.364  0.4334  0.5371 -1.5079
 3998TIP3    H236190   2.063   0.607  18.311 -1.6106 -1.8517 -1.4339
 3999TIP3   OH236191   3.581   0.266  17.372 -0.3131  0.8050  0.0538
 3999TIP3    H136192   3.653   0.232  17.318 -1.5799  0.6507 -1.6168
 3999TIP3    H236193   3.591   0.220  17.455  1.2471  0.4479 -0.2808
 4000TIP3   OH236194   6.214   4.402  18.016 -0.5507 -0.4123 -0.3837
 4000TIP3    H136195   6.179   4.418  18.104 -1.7214 -0.0657 -0.8993
 4000TIP3    H236196   6.308   4.392  18.030 -0.5827  0.6520  0.7749
 4001TIP3   OH236197   4.309   0.986  17.411 -0.1785 -0.2130 -0.5658
 4001TIP3    H136198   4.317   0.937  17.328  1.8215 -1.2954  0.1860
 4001TIP3    H236199   4.392   1.033  17.419  0.3404 -1.3507  1.5242
 4002TIP3   OH236200   0.714   6.394  18.089 -0.0685  0.2640 -0.2080
 4002TIP3    H136201   0.680   6.336  18.158  1.3543 -0.6987 -0.2531
 4002TIP3    H236202   0.654   6.468  18.087 -1.1439 -0.5489  0.8475
 4003TIP3   OH236203   0.055   0.166  19.707  0.0664  0.0194 -0.7686
 4003TIP3    H136204   0.147   0.166  19.679  0.4230  1.7074  0.2499
 4003TIP3    H236205   0.053   0.228  19.780 -1.6783 -0.8508 -0.0269
 4004TIP3   OH236206   5.390   4.544  18.622 -0.6950 -0.0490  0.1726
 4004TIP3    H136207   5.399   4.457  18.660  0.8838  0.5073  1.2096
 4004TIP3    H236208   5.358   4.599  18.694  0.7001  0.6851  0.2699
 4005TIP3   OH236209   4.790   6.825  17.739 -0.5011 -0.2381 -0.4551
 4005TIP3    H136210   4.794   6.810  17.644 -2.5662 -0.2685 -0.5906
 4005TIP3    H236211   4.876   6.861  17.761  0.6771 -1.9290 -2.0063
 4006TIP3   OH236212   1.824   7.414  19.360  0.7305  0.1458  0.5293
 4006TIP3    H136213   1.731   7.416  19.386  0.4665 -0.0194 -0.3610
 4006TIP3    H236214   1.866   7.476  19.419  0.0819  0.1226  1.0437
 4007TIP3   OH236215   2.354   6.442  17.343  0.1696 -0.0940  0.3120
 4007TIP3    H136216   2.438   6.460  17.302  1.0630 -0.0382  2.0442
 4007TIP3    H236217   2.302   6.521  17.328 -0.2329 -0.7687 -2.2122
 4008TIP3   OH236218   0.041   5.609  17.237  0.1043 -0.4546  0.2536
 4008TIP3    H136219   0.067   5.661  17.161 -0.5773 -2.4530 -1.4814
 4008TIP3    H236220  -0.027   5.550  17.202 -1.0531 -0.6782  2.7140
 4009TIP3   OH236221   7.076   3.625  19.295  0.4934 -0.4256  0.1176
 4009TIP3    H136222   7.077   3.718  19.272 -1.5090 -0.7377 -1.5617
 4009TIP3    H236223   7.144   3.586  19.240  0.6114 -0.1154  0.0439
 4010TIP3   OH236224   4.919   4.142  19.438 -0.5533  0.6733 -0.3845
 4010TIP3    H136225   4.906   4.237  19.437  2.8623  1.2556 -0.1532
 4010TIP3    H236226   4.994   4.127  19.381 -1.0366 -1.9516 -0.4799
 4011TIP3   OH236227   5.280   0.246  17.532  0.2379  0.9298  0.8627
 4011TIP3    H136228   5.281   0.215  17.442 -0.2143  1.3328  0.7156
 4011TIP3    H236229   5.344   0.318  17.534 -1.3011  2.3676  0.3246
 4012TIP3   OH236230   2.708   5.078  16.956  0.0892 -0.1067  0.1320
 4012TIP3    H136231   2.631   5.119  16.994 -1.1310 -1.9361 -0.2063
 4012TIP3    H236232   2.735   5.136  16.885 -1.2303  0.3589 -0.0045
 4013TIP3   OH236233   6.762   5.636  17.815 -0.3073  0.0599 -0.1133
 4013TIP3    H136234   6.692   5.594  17.766  0.1341  0.1785 -0.8625
 4013TIP3    H236235   6.747   5.730  17.804 -0.7462  0.1017  0.7689
 4014TIP3   OH236236   2.384   3.719  18.171 -0.3067  0.5428  0.2138
 4014TIP3    H136237   2.480   3.717  18.167 -0.0731  3.8534  1.6418
 4014TIP3    H236238   2.357   3.675  18.090  2.4308  0.7376 -0.9315
 4015TIP3   OH236239   5.934   2.619  19.169  0.4773 -0.2700 -0.2672
 4015TIP3    H136240   5.973   2.532  19.161  0.5017 -0.8428  3.8195
 4015TIP3    H236241   6.001   2.671  19.214 -0.4908  1.1147 -0.3703
 4016TIP3   OH236242   7.220   2.409  18.745 -0.4986  0.3993 -0.3742
 4016TIP3    H136243   7.285   2.342  18.726  0.3133  0.1536  2.8280
 4016TIP3    H236244   7.144   2.361  18.778 -0.2680  0.9707  1.0356
 4017TIP3   OH236245   7.253   5.195  18.178 -0.2016  0.1305 -0.0316
 4017TIP3    H136246   7.333   5.175  18.130  0.3269  1.1660  0.3870
 4017TIP3    H236247   7.225   5.280  18.144 -0.9783 -0.0930  0.0267
 4018TIP3   OH236248   0.327   6.207  18.838  0.0245 -0.1465  0.0891
 4018TIP3    H136249   0.379   6.138  18.798 -1.9479 -0.6799 -1.8072
 4018TIP3    H236250   0.300   6.262  18.764  1.0113  2.3577  1.4583
 4019TIP3   OH236251   2.382   0.888  18.872  0.2221  0.7227  0.3002
 4019TIP3    H136252   2.438   0.895  18.949  0.2168 -0.6253  0.4511
 4019TIP3    H236253   2.329   0.810  18.888  0.4382  0.2375 -1.1929
 4020TIP3   OH236254   2.852   0.786  18.557 -0.7026  0.3952 -0.1323
 4020TIP3    H136255   2.879   0.694  18.551 -1.6241  0.1975 -2.0534
 4020TIP3    H236256   2.929   0.831  18.590  0.2498 -0.8835 -0.5027
 4021TIP3   OH236257   6.416   4.925  18.371  0.8371 -0.2187  0.5106
 4021TIP3    H136258   6.370   4.860  18.424 -0.1266 -0.2779 -0.3710
 4021TIP3    H236259   6.384   4.910  18.282  3.8851 -1.4709 -0.5110
 4022TIP3   OH236260   2.876   3.556  18.389 -0.1138  0.1360 -0.4736
 4022TIP3    H136261   2.786   3.537  18.365 -0.5500  1.5562 -0.0388
 4022TIP3    H236262   2.903   3.480  18.441 -0.7758 -0.6638 -1.2722
 4023TIP3   OH236263   6.962   5.834  19.089 -0.3231 -0.2585  0.0182
 4023TIP3    H136264   6.982   5.741  19.096 -1.9241 -0.7618 -1.4481
 4023TIP3    H236265   6.944   5.848  18.996  0.3404  1.6229  0.1288
 4024TIP3   OH236266   5.048   2.064  19.146  0.5569  0.7570  0.5609
 4024TIP3    H136267   5.093   2.140  19.107  0.5402  0.4524 -0.0524
 4024TIP3    H236268   5.119   2.010  19.181  0.5805  0.9433  0.8094
 4025TIP3   OH236269   2.869   2.903  17.020  0.4512  0.6605  0.2196
 4025TIP3    H136270   2.857   2.859  16.936  1.8739  0.6056  0.0163
 4025TIP3    H236271   2.782   2.902  17.060  0.2652 -1.7198 -0.0873
 4026TIP3   OH236272   4.131   6.039  18.381  0.0526  0.4366 -0.7947
 4026TIP3    H136273   4.062   6.099  18.410  0.2237 -0.1874  1.0900
 4026TIP3    H236274   4.212   6.079  18.414  0.1414 -0.8863  0.7370
 4027TIP3   OH236275   1.861   6.767  16.600  0.2030  0.5333 -0.1193
 4027TIP3    H136276   1.866   6.690  16.656  1.4380  0.4441 -0.3408
 4027TIP3    H236277   1.767   6.782  16.588 -0.1292  0.9399  2.5044
 4028TIP3   OH236278   4.945   5.275  17.045  0.2635 -0.6467  0.4438
 4028TIP3    H136279   4.869   5.249  16.993  0.7604 -0.1033 -0.5970
 4028TIP3    H236280   5.003   5.317  16.982  1.4856 -1.1626  1.1961
 4029TIP3   OH236281   7.572   0.343  19.448 -0.0351 -0.3244  0.4881
 4029TIP3    H136282   7.576   0.285  19.373 -2.7507 -1.0489  0.7865
 4029TIP3    H236283   7.612   0.294  19.520  2.3270  0.2688 -0.3417
 4030TIP3   OH236284   6.990   0.380  19.188 -0.3239 -0.1771  0.0480
 4030TIP3    H136285   6.958   0.292  19.204 -1.3564  0.1374 -0.2022
 4030TIP3    H236286   7.001   0.418  19.275 -0.1759 -0.4410  0.1461
 4031TIP3   OH236287   4.233   5.278  19.241  0.3286  0.8249  0.3648
 4031TIP3    H136288   4.329   5.279  19.243  0.4025 -0.8328 -0.5916
 4031TIP3    H236289   4.211   5.281  19.149 -0.5394  1.0190  0.5750
 4032TIP3   OH236290   4.062   7.519  16.392 -0.0472 -0.0279 -0.0681
 4032TIP3    H136291   4.023   7.571  16.321  1.0988  0.4113 -0.3978
 4032TIP3    H236292   4.025   7.432  16.381 -0.4837  0.2302 -0.7184
 4033TIP3   OH236293   5.206   0.958  18.484 -0.2351 -0.0323  0.0216
 4033TIP3    H136294   5.179   1.037  18.532 -0.3595 -0.0146 -0.0778
 4033TIP3    H236295   5.280   0.925  18.534  0.5705  0.7982 -0.5983
 4034TIP3   OH236296   5.427   3.242  18.269 -0.1636 -0.3857 -0.0390
 4034TIP3    H136297   5.449   3.153  18.242  0.0953 -0.2732 -0.2073
 4034TIP3    H236298   5.368   3.274  18.201  0.5661 -0.0680 -0.5428
 4035TIP3   OH236299   0.370   5.950  18.175  0.2642 -0.1515 -0.1288
 4035TIP3    H136300   0.397   6.041  18.186  0.6558 -0.1443 -1.0627
 4035TIP3    H236301   0.340   5.923  18.262  0.8075  0.6448  0.3137
 4036TIP3   OH236302   0.295   6.012  19.409  0.2951  1.0849 -0.4043
 4036TIP3    H136303   0.279   6.033  19.501  0.3087 -0.4438 -0.0256
 4036TIP3    H236304   0.378   6.055  19.389  0.5746  0.9807  0.4670
 4037TIP3   OH236305   7.287   7.630  17.908 -0.4973 -0.1978 -0.1066
 4037TIP3    H136306   7.223   7.646  17.838  1.1408  1.2382 -1.3709
 4037TIP3    H236307   7.239   7.648  17.989 -1.6462  1.0893 -1.0165
 4038TIP3   OH236308   4.331   1.650  19.368 -0.4795 -0.1583  0.0997
 4038TIP3    H136309   4.253   1.705  19.360 -0.2808  0.5147  1.9897
 4038TIP3    H236310   4.402   1.705  19.335 -0.4496  0.3127  0.9101
 4039TIP3   OH236311   2.934   6.840  17.731 -0.1964 -0.2450 -0.4367
 4039TIP3    H136312   2.905   6.756  17.696 -1.2546 -0.0821 -0.0005
 4039TIP3    H236313   3.015   6.860  17.683 -0.7963 -0.7419 -1.7045
 4040TIP3   OH236314   7.022   4.466  17.142 -0.4458 -0.1969 -0.5179
 4040TIP3    H136315   7.072   4.400  17.094 -0.2459  1.3107 -2.5156
 4040TIP3    H236316   6.934   4.430  17.149  0.0378 -1.3319 -0.1646
 4041TIP3   OH236317   6.467   4.787  17.266  0.1950  0.0235 -0.2607
 4041TIP3    H136318   6.389   4.842  17.259 -0.5557 -0.9292  0.3520
 4041TIP3    H236319   6.522   4.832  17.330  0.1807  0.7121 -0.7103
 4042TIP3   OH236320   2.236   3.121  17.713 -0.2303 -0.0634 -0.2481
 4042TIP3    H136321   2.179   3.189  17.749  0.3702  1.0832 -1.3969
 4042TIP3    H236322   2.297   3.101  17.783  2.2899  3.6512 -1.0837
 4043TIP3   OH236323   1.235   5.248  17.249 -0.0608 -0.3337  0.3876
 4043TIP3    H136324   1.181   5.194  17.191  0.3033 -2.0146  1.5248
 4043TIP3    H236325   1.307   5.279  17.193 -0.8010 -0.2233 -0.5268
 4044TIP3   OH236326   2.215   0.575  17.512  0.4462 -0.2210  0.1203
 4044TIP3    H136327   2.128   0.612  17.501 -0.5015 -2.5783 -1.0098
 4044TIP3    H236328   2.213   0.534  17.599 -0.6007 -2.5569 -0.9066
 4045TIP3   OH236329   5.753   5.946  17.173 -0.2145 -0.1346  0.0821
 4045TIP3    H136330   5.692   5.938  17.099  0.7900 -1.4983 -0.6466
 4045TIP3    H236331   5.699   5.977  17.245 -1.2640  1.0959 -1.1691
 4046TIP3   OH236332   0.088   6.784  16.811 -0.5220  0.0814  0.2550
 4046TIP3    H136333   0.009   6.785  16.756  0.2257 -0.4741 -0.8860
 4046TIP3    H236334   0.132   6.866  16.790 -0.2423 -0.1248  0.0225
 4047TIP3   OH236335   2.483   5.250  17.036  0.0834 -0.7836  0.7667
 4047TIP3    H136336   2.420   5.296  17.090  0.3864  0.6464 -0.0398
 4047TIP3    H236337   2.467   5.282  16.947  2.6691  0.5639  0.6828
 4048TIP3   OH236338   2.202   3.273  17.419  0.3382 -0.1826 -0.5305
 4048TIP3    H136339   2.186   3.314  17.334  1.2166 -0.8600 -1.0499
 4048TIP3    H236340   2.297   3.270  17.426  0.2788  0.0908  0.6077
 4049TIP3   OH236341   0.217   5.250  19.817  0.6031  0.1404  0.0194
 4049TIP3    H136342   0.253   5.328  19.775  0.2701  0.0082 -0.5346
 4049TIP3    H236343   0.123   5.267  19.824  0.8550  0.9134  2.4019
 4050TIP3   OH236344   3.023   5.382  18.142  0.4768 -0.4287  0.0979
 4050TIP3    H136345   2.974   5.457  18.174  1.1231  0.7885 -1.6108
 4050TIP3    H236346   2.971   5.306  18.167 -1.2792  0.7089  0.0358
 4051TIP3   OH236347   4.535   1.925  17.266 -0.0213 -0.3340  0.3051
 4051TIP3    H136348   4.558   1.921  17.173  0.8248 -1.5524  0.5535
 4051TIP3    H236349   4.601   1.983  17.304  0.5450 -1.0183  0.3909
 4052TIP3   OH236350   3.315   1.625  18.762 -0.0207 -0.3722 -0.9507
 4052TIP3    H136351   3.375   1.697  18.785 -0.4694  0.2565 -1.7067
 4052TIP3    H236352   3.347   1.551  18.813  0.8289  0.2011 -0.6166
 4053TIP3   OH236353   1.265   1.738  17.952  0.1794 -0.6205 -0.0461
 4053TIP3    H136354   1.359   1.757  17.958 -0.1121  0.4503  1.6670
 4053TIP3    H236355   1.229   1.767  18.036 -1.9115  0.2781 -1.1782
 4054TIP3   OH236356   4.465   6.721  17.757  0.0965 -0.2513 -0.4241
 4054TIP3    H136357   4.499   6.792  17.702 -0.1313 -0.3863 -0.7465
 4054TIP3    H236358   4.391   6.760  17.803  2.3305  0.8997  2.4795
 4055TIP3   OH236359   0.211   6.301  17.032 -0.5113 -0.6951 -0.2823
 4055TIP3    H136360   0.222   6.249  16.953 -0.0430  0.7767 -1.2267
 4055TIP3    H236361   0.199   6.391  17.001  0.3641  0.0322  1.3276
 4056TIP3   OH236362   3.249   6.190  19.351 -0.0633  0.8352 -0.5409
 4056TIP3    H136363   3.280   6.109  19.311 -1.4127  0.4825 -0.9081
 4056TIP3    H236364   3.325   6.248  19.348  1.4132 -0.8867  1.1410
 4057TIP3   OH236365   3.135   6.481  16.955 -0.4247  0.4291  0.0278
 4057TIP3    H136366   3.154   6.501  16.864  2.4107 -2.0020 -0.0604
 4057TIP3    H236367   3.068   6.412  16.951  0.4941 -0.4608 -0.2956
 4058TIP3   OH236368   3.750   6.997  18.913 -0.2578  0.5522 -0.3635
 4058TIP3    H136369   3.744   6.983  19.008 -1.4667 -2.2617 -0.7402
 4058TIP3    H236370   3.837   7.035  18.899  0.9646 -1.2806  1.6727
 4059TIP3   OH236371   5.418   5.539  17.393 -0.4982  0.5582 -0.2187
 4059TIP3    H136372   5.450   5.601  17.328  0.3572 -0.2593 -0.6069
 4059TIP3    H236373   5.496   5.490  17.421 -0.9971  0.2825  0.7560
 4060TIP3   OH236374   6.238   6.050  18.138  0.6711  0.2531  0.3458
 4060TIP3    H136375   6.221   6.123  18.197  0.6443  0.7143 -0.2242
 4060TIP3    H236376   6.157   6.000  18.138  0.8883 -0.1144  1.1960
 4061TIP3   OH236377   3.020   2.064  18.784  0.2587 -0.7048  1.0350
 4061TIP3    H136378   2.957   2.076  18.855 -0.5809  1.8451 -0.0109
 4061TIP3    H236379   3.101   2.105  18.816 -0.8244  2.8057 -0.2230
 4062TIP3   OH236380   0.928   3.287  17.429  0.4373 -0.0582 -0.2804
 4062TIP3    H136381   0.863   3.257  17.365  0.5501 -2.5176  0.6882
 4062TIP3    H236382   1.009   3.293  17.379  0.1065  0.0412 -0.8151
 4063TIP3   OH236383   4.592   7.209  17.782 -0.3864  0.4444  0.1813
 4063TIP3    H136384   4.505   7.214  17.743 -0.2811 -1.5434 -0.4081
 4063TIP3    H236385   4.596   7.284  17.841 -2.4503  0.6288  0.1567
 4064TIP3   OH236386   6.557   6.331  18.603 -0.5463  0.5723  0.3096
 4064TIP3    H136387   6.559   6.284  18.520  0.3598  2.4972 -0.8328
 4064TIP3    H236388   6.476   6.303  18.645 -0.6845 -0.9478 -0.9044
 4065TIP3   OH236389   7.256   5.406  18.649 -0.2812 -0.2993 -0.1063
 4065TIP3    H136390   7.288   5.392  18.560 -2.1172  0.4832 -0.9450
 4065TIP3    H236391   7.303   5.483  18.680  1.2918 -1.3106  0.1127
 4066TIP3   OH236392   3.715   3.021  17.372 -0.3995 -0.0168 -0.0079
 4066TIP3    H136393   3.632   3.013  17.419  0.2290 -0.0249  1.1283
 4066TIP3    H236394   3.759   3.096  17.412  0.0913  0.0763 -0.6913
 4067TIP3   OH236395   0.215   4.512  17.127 -0.1443  0.0586  0.6702
 4067TIP3    H136396   0.142   4.468  17.171 -0.6224 -1.1839 -1.2194
 4067TIP3    H236397   0.176   4.589  17.086 -0.2083 -0.0809  0.4645
 4068TIP3   OH236398   1.983   6.412  17.747 -0.2392 -0.0499  0.4693
 4068TIP3    H136399   1.987   6.367  17.831  0.7577  0.6853  0.8314
 4068TIP3    H236400   1.955   6.344  17.685 -3.5681 -0.0303  1.7512
 4069TIP3   OH236401   3.515   7.261  18.503  0.4886  0.7198  0.3396
 4069TIP3    H136402   3.502   7.194  18.570 -1.1302  0.4175 -0.2224
 4069TIP3    H236403   3.545   7.213  18.426 -2.2874  0.2760 -0.5991
 4070TIP3   OH236404   3.843   6.259  17.006  0.5548  0.1103  0.0729
 4070TIP3    H136405   3.891   6.252  17.088 -1.3661  2.1600  1.5182
 4070TIP3    H236406   3.809   6.171  16.990  1.2513 -0.4039  1.3033
 4071TIP3   OH236407   3.729   2.032  18.377  0.0642  0.7637 -0.9927
 4071TIP3    H136408   3.786   1.983  18.437 -0.7711  2.7080  1.5973
 4071TIP3    H236409   3.654   1.974  18.362  0.7484 -0.1467 -0.9604
 4072TIP3   OH236410   6.050   2.337  17.539 -0.2822  0.0751 -0.2609
 4072TIP3    H136411   6.125   2.394  17.520 -0.4344 -0.2421 -1.9431
 4072TIP3    H236412   6.026   2.300  17.454 -1.5052 -0.8793  0.4749
 4073TIP3   OH236413   4.810   6.154  19.420  0.3086 -0.0632  0.1161
 4073TIP3    H136414   4.796   6.062  19.398 -1.2555  0.1671  0.0457
 4073TIP3    H236415   4.730   6.181  19.465 -0.6028  2.0242 -2.4710
 4074TIP3   OH236416   0.184   6.080  17.955 -0.0034 -0.4992  0.7717
 4074TIP3    H136417   0.199   6.100  18.047  1.7406 -2.0734  0.8820
 4074TIP3    H236418   0.108   6.133  17.931 -0.9832 -0.6278  3.3000
 4075TIP3   OH236419   5.617   6.321  18.962 -0.0937 -0.5540 -0.5535
 4075TIP3    H136420   5.668   6.401  18.975 -0.5817  0.2461 -3.0376
 4075TIP3    H236421   5.559   6.341  18.888 -2.4795 -2.1544  0.7293
 4076TIP3   OH236422   2.440   3.608  19.302 -0.3559 -0.1165  0.3031
 4076TIP3    H136423   2.457   3.525  19.345  0.3979 -0.1273 -0.0061
 4076TIP3    H236424   2.391   3.584  19.223  0.5023 -0.3380 -0.1647
 4077TIP3   OH236425   6.578   4.593  17.108 -0.5732  0.2786  0.1920
 4077TIP3    H136426   6.562   4.675  17.154 -1.5822  0.3452 -0.2305
 4077TIP3    H236427   6.491   4.567  17.075 -0.3716 -1.2247  0.7638
 4078TIP3   OH236428   6.118   3.424  18.966 -0.2048 -0.0327  1.1307
 4078TIP3    H136429   6.078   3.463  18.889 -1.5446 -2.2230  0.6196
 4078TIP3    H236430   6.207   3.459  18.968  0.2444 -0.7401 -2.0881
 4079TIP3   OH236431   2.659   1.365  18.585 -0.2051 -0.0540 -0.0773
 4079TIP3    H136432   2.732   1.411  18.626 -0.1489 -1.7398  1.8972
 4079TIP3    H236433   2.588   1.429  18.584  0.6328  0.9117  0.0291
 4080TIP3   OH236434   3.013   0.163  17.985 -0.4909  0.1651 -0.8590
 4080TIP3    H136435   2.965   0.239  18.019  0.8975  0.8820 -0.4155
 4080TIP3    H236436   2.992   0.092  18.045  0.0639  0.8129  0.1184
 4081TIP3   OH236437   0.477   1.633  18.914  0.5332 -0.0114 -0.5192
 4081TIP3    H136438   0.500   1.683  18.992  1.8478 -1.1735 -0.1186
 4081TIP3    H236439   0.431   1.556  18.948 -0.6225  0.4216 -1.0513
 4082TIP3   OH236440   4.706   4.788  17.850 -0.8004 -0.3933 -0.0002
 4082TIP3    H136441   4.714   4.707  17.799 -2.7878  0.4826 -1.8166
 4082TIP3    H236442   4.734   4.857  17.790 -0.0478  0.3931  1.2138
 4083TIP3   OH236443   4.287   3.780  18.943 -0.0329 -0.3414  0.2285
 4083TIP3    H136444   4.370   3.733  18.945 -0.0636 -0.5760 -1.7638
 4083TIP3    H236445   4.278   3.809  18.852 -1.0133  1.7428  0.9150
 4084TIP3   OH236446   0.492   4.201  19.095 -0.6866  0.0786  0.1530
 4084TIP3    H136447   0.431   4.135  19.063 -0.7673  0.3163 -0.2007
 4084TIP3    H236448   0.483   4.274  19.033  0.6549 -0.2633 -0.4867
 4085TIP3   OH236449   6.783   5.519  17.388 -0.2147 -0.1480  0.1236
 4085TIP3    H136450   6.726   5.470  17.447  1.3763 -0.2756  1.6207
 4085TIP3    H236451   6.772   5.476  17.303  0.4937 -2.5887  1.1906
 4086TIP3   OH236452   0.966   2.284  17.246  0.1153  0.3914 -0.7485
 4086TIP3    H136453   0.929   2.214  17.193 -1.2241  0.3590  0.2169
 4086TIP3    H236454   1.052   2.251  17.273 -0.3750 -0.7326 -0.5516
 4087TIP3   OH236455   3.501   1.096  17.851  0.4639 -0.0851 -0.5662
 4087TIP3    H136456   3.433   1.077  17.787  0.3938 -0.0836 -0.4920
 4087TIP3    H236457   3.486   1.187  17.876 -0.7612 -0.6568  0.9617
 4088TIP3   OH236458   2.514   5.544  17.614  0.2885  0.3662  0.2644
 4088TIP3    H136459   2.577   5.570  17.547  1.6394  1.8798  2.0335
 4088TIP3    H236460   2.442   5.504  17.564  2.4688 -1.2096 -1.8370
 4089TIP3   OH236461   0.139   1.667  17.632  0.1503  1.1834  0.0230
 4089TIP3    H136462   0.181   1.726  17.695  1.8172  1.0636 -0.9211
 4089TIP3    H236463   0.134   1.718  17.551  0.1575  0.5614 -0.3747
 4090TIP3   OH236464   4.143   3.321  18.128 -0.5312 -0.1927  0.3556
 4090TIP3    H136465   4.104   3.380  18.064  2.4580  1.3492 -0.2445
 4090TIP3    H236466   4.176   3.247  18.077  2.0511  1.1417 -0.0922
 4091TIP3   OH236467   3.193   3.260  18.857  0.3708 -0.2175  0.4464
 4091TIP3    H136468   3.134   3.209  18.801  0.2445 -0.2756  0.6273
 4091TIP3    H236469   3.135   3.323  18.900  0.4749 -0.1378  0.4689
 4092TIP3   OH236470   4.384   1.762  18.963 -0.1767 -0.3999  0.7751
 4092TIP3    H136471   4.310   1.803  19.008  1.3048  1.0308  2.0487
 4092TIP3    H236472   4.450   1.751  19.031  0.7873 -1.6791 -0.3212
 4093TIP3   OH236473   4.626   1.213  17.857  0.2111 -0.1169  0.2791
 4093TIP3    H136474   4.598   1.264  17.782 -0.3814  1.1557  1.3232
 4093TIP3    H236475   4.721   1.210  17.850  0.1944  0.4366 -0.2444
 4094TIP3   OH236476   2.689   6.871  18.379  0.5202  0.0534 -0.8524
 4094TIP3    H136477   2.608   6.870  18.430  0.3958  0.7114 -1.0278
 4094TIP3    H236478   2.755   6.833  18.438  0.2926  0.4345 -0.3452
 4095TIP3   OH236479   5.400   0.641  19.533  0.1700 -0.3494 -0.2809
 4095TIP3    H136480   5.411   0.584  19.457  1.8643 -0.2236 -0.1632
 4095TIP3    H236481   5.444   0.595  19.604 -0.7778 -0.1270  0.4744
 4096TIP3   OH236482   5.503   1.889  19.382 -0.1631  0.5796  0.3957
 4096TIP3    H136483   5.501   1.797  19.409 -0.9625  0.3941 -0.2396
 4096TIP3    H236484   5.440   1.932  19.439 -0.0857  0.6593  0.4210
 4097TIP3   OH236485   5.857   5.358  19.518 -0.7773 -0.8727 -0.2914
 4097TIP3    H136486   5.789   5.335  19.581  0.2307 -0.6504  0.9412
 4097TIP3    H236487   5.811   5.369  19.435 -2.4990  0.9586  0.8215
 4098TIP3   OH236488   4.386   7.186  19.072  0.2057  0.2586 -0.2212
 4098TIP3    H136489   4.322   7.239  19.120  0.2567  1.3926 -1.3453
 4098TIP3    H236490   4.458   7.174  19.134 -0.0643  1.0141  0.2570
 4099TIP3   OH236491   4.744   5.869  18.878  0.8606 -0.5355  0.1581
 4099TIP3    H136492   4.778   5.958  18.886 -1.0544  0.1336  1.9546
 4099TIP3    H236493   4.733   5.855  18.784  1.2709  1.1043 -0.1609
 4100TIP3   OH236494   7.051   4.386  17.723 -0.3638 -0.4917  0.1020
 4100TIP3    H136495   7.016   4.458  17.775  0.3371  0.5122 -0.7854
 4100TIP3    H236496   7.006   4.392  17.639 -0.5814 -1.3437  0.1404
 4101TIP3   OH236497   0.513   4.545  16.495 -0.4748  0.1054 -0.7460
 4101TIP3    H136498   0.509   4.454  16.465 -2.6048 -0.0420 -0.2071
 4101TIP3    H236499   0.461   4.593  16.430 -0.1132  0.7774 -0.5384
 4102TIP3   OH236500   7.577   7.374  18.760  0.1515  0.1488 -0.2305
 4102TIP3    H136501   7.522   7.448  18.785 -0.3182 -0.1253 -0.4366
 4102TIP3    H236502   7.657   7.384  18.812 -0.0167  0.6548 -0.0688
 4103TIP3   OH236503   6.690   1.208  16.876 -0.3099 -0.4326  0.2489
 4103TIP3    H136504   6.651   1.138  16.824 -0.1951 -0.7586  0.5961
 4103TIP3    H236505   6.760   1.165  16.925  0.9616  0.2837 -0.8798
 4104TIP3   OH236506   4.659   4.469  18.571  0.1185 -0.2436 -0.5612
 4104TIP3    H136507   4.582   4.412  18.567 -0.1858  0.0926  0.2795
 4104TIP3    H236508   4.626   4.556  18.551  0.0830  0.0659  0.7433
 4105TIP3   OH236509   3.584   2.717  17.552  0.0494 -0.3977  0.0256
 4105TIP3    H136510   3.544   2.763  17.478 -0.8952 -0.7162  0.3231
 4105TIP3    H236511   3.537   2.633  17.557  1.7961 -1.4620 -0.5647
 4106TIP3   OH236512   4.650   6.795  19.360  0.6394  0.3143  0.0112
 4106TIP3    H136513   4.713   6.759  19.298  0.3240 -0.3179  0.0488
 4106TIP3    H236514   4.690   6.784  19.446 -0.0603 -1.2893  0.1572
 4107TIP3   OH236515   0.595   3.814  16.522 -0.5903  0.2892 -0.0814
 4107TIP3    H136516   0.656   3.831  16.594 -0.1406 -0.3509 -0.3002
 4107TIP3    H236517   0.629   3.866  16.449 -0.6943  0.4557 -0.0121
 4108TIP3   OH236518   2.629   0.629  18.071  0.6711  0.5874 -0.3978
 4108TIP3    H136519   2.709   0.620  18.018  0.3624  2.0527 -1.1641
 4108TIP3    H236520   2.560   0.592  18.016  1.0600 -3.0288  1.2337
 4109TIP3   OH236521   5.225   6.747  18.671 -0.1081  0.8777 -0.1020
 4109TIP3    H136522   5.162   6.694  18.622  0.0898  0.4665  0.0872
 4109TIP3    H236523   5.254   6.690  18.742  1.8058  0.4045 -1.1930
 4110TIP3   OH236524   3.687   1.383  19.011  0.1197  0.1890  0.0027
 4110TIP3    H136525   3.730   1.444  19.072  0.9159  0.3902 -0.7467
 4110TIP3    H236526   3.741   1.304  19.014 -0.0685  0.0564 -0.1349
 4111TIP3   OH236527   3.770   1.050  17.588  0.4436  0.5954  0.0050
 4111TIP3    H136528   3.759   1.037  17.683  0.2508 -1.6028 -0.2750
 4111TIP3    H236529   3.684   1.081  17.559 -0.2129 -0.8980  0.2494
 4112TIP3   OH236530   6.432   0.036  18.655  0.3300 -0.2217 -0.7556
 4112TIP3    H136531   6.395   0.123  18.641  1.1653  0.2323 -0.2222
 4112TIP3    H236532   6.415  -0.011  18.573 -1.0085  0.1083 -0.6823
 4113TIP3   OH236533   3.704   1.111  17.093  0.2534 -0.2319  0.0643
 4113TIP3    H136534   3.669   1.022  17.088 -0.6723  0.0627  0.9146
 4113TIP3    H236535   3.642   1.164  17.043  0.9207 -0.0817 -0.6256
 4114TIP3   OH236536   3.028   6.132  19.003 -0.1773 -0.3543 -0.3507
 4114TIP3    H136537   3.066   6.205  19.050  1.0501 -0.5394 -1.0129
 4114TIP3    H236538   3.002   6.070  19.071  0.4209 -0.0838  0.1316
 4115TIP3   OH236539   7.215   0.510  18.572 -0.0745  0.2520 -0.1980
 4115TIP3    H136540   7.174   0.424  18.563 -0.7146  0.4197  0.8883
 4115TIP3    H236541   7.143   0.572  18.559 -0.4993  0.5358  2.8325
 4116TIP3   OH236542   4.976   0.331  18.853 -0.1809  0.3799 -0.0247
 4116TIP3    H136543   4.999   0.238  18.843  0.8527  0.8066 -2.4847
 4116TIP3    H236544   5.059   0.377  18.842 -0.5608  1.6076  1.8919
 4117TIP3   OH236545   6.510   6.228  19.052 -0.4578 -0.0520  0.2425
 4117TIP3    H136546   6.537   6.137  19.043 -2.0332 -0.4711 -0.5759
 4117TIP3    H236547   6.423   6.232  19.011 -0.4157  1.8208  0.2402
 4118TIP3   OH236548   2.765   1.034  19.292 -0.2140  0.2889  0.0608
 4118TIP3    H136549   2.776   1.083  19.374  1.1348 -0.4105  0.3274
 4118TIP3    H236550   2.785   1.097  19.223  2.3221 -0.0062  0.4208
 4119TIP3   OH236551   2.344   1.957  19.095 -0.2996 -0.0178 -0.5796
 4119TIP3    H136552   2.288   1.890  19.056  0.3416 -0.6717 -0.4090
 4119TIP3    H236553   2.366   1.922  19.182 -0.8535  0.9285 -0.0408
 4120TIP3   OH236554   1.383   3.463  16.991  0.1763  0.0873 -0.1252
 4120TIP3    H136555   1.398   3.371  16.970  2.7250  0.4829 -0.3675
 4120TIP3    H236556   1.369   3.504  16.905  0.5687  0.1526 -0.1598
 4121TIP3   OH236557   3.056   3.041  19.085 -0.1533  0.0293  0.2101
 4121TIP3    H136558   3.006   3.083  19.155  0.2130 -0.3866  0.7352
 4121TIP3    H236559   3.144   3.029  19.122 -0.2339 -1.1669  0.0771
 4122TIP3   OH236560   6.334   5.124  18.557 -0.6716 -0.2779 -0.2711
 4122TIP3    H136561   6.401   5.107  18.491  0.4414 -0.5753  0.8969
 4122TIP3    H236562   6.270   5.054  18.546  1.4360 -2.6136  1.3745
 4123TIP3   OH236563   3.539   7.641  18.802  0.2168  0.0176  0.8351
 4123TIP3    H136564   3.498   7.608  18.882 -0.9325 -1.3410 -0.2402
 4123TIP3    H236565   3.488   7.718  18.778  0.4457  0.3164  1.3090
 4124TIP3   OH236566   0.089   7.450  19.098  0.0002  0.1002 -0.2697
 4124TIP3    H136567   0.086   7.390  19.173  0.1135  0.8245  0.3190
 4124TIP3    H236568   0.163   7.418  19.045 -1.2553 -1.5882 -1.1009
 4125TIP3   OH236569   1.063   3.428  18.198 -0.6182 -0.2027  0.2328
 4125TIP3    H136570   1.002   3.501  18.188  0.2945  0.3889 -1.4442
 4125TIP3    H236571   1.084   3.402  18.108 -1.3978 -2.9735  0.7587
 4126TIP3   OH236572   7.282   4.237  17.720 -0.0697 -0.0176  0.5241
 4126TIP3    H136573   7.280   4.208  17.629 -0.6629 -0.5289  0.6912
 4126TIP3    H236574   7.197   4.280  17.734  0.3104  0.7146  0.6311
 4127TIP3   OH236575   0.601   7.659  18.000  0.5387  0.3878 -0.6277
 4127TIP3    H136576   0.594   7.748  17.965 -1.3613  0.8100  0.6626
 4127TIP3    H236577   0.560   7.664  18.086  1.8402 -1.4079  0.1506
 4128TIP3   OH236578   0.865   5.889  17.638 -0.1490  0.2638 -0.5084
 4128TIP3    H136579   0.854   5.811  17.583  1.1589 -0.7665  0.6175
 4128TIP3    H236580   0.840   5.860  17.726  1.7457  0.6713  0.2016
 4129TIP3   OH236581   5.388   1.727  18.652  0.0727 -0.1848  0.2995
 4129TIP3    H136582   5.479   1.702  18.633 -0.1029  0.7004 -2.0290
 4129TIP3    H236583   5.388   1.823  18.644 -0.9311 -0.1156  0.9657
 4130TIP3   OH236584   1.468   4.217  19.474 -0.1856 -0.2404  0.0303
 4130TIP3    H136585   1.491   4.163  19.550  0.1833 -1.3368 -0.8370
 4130TIP3    H236586   1.412   4.161  19.421 -1.4013  0.9264  0.0374
 4131TIP3   OH236587   1.143   2.809  19.241  0.0125  0.6548  0.0244
 4131TIP3    H136588   1.093   2.870  19.296  0.1626 -0.9924  2.1132
 4131TIP3    H236589   1.094   2.727  19.246  0.5577  0.2053 -1.5920
 4132TIP3   OH236590   7.296   4.558  18.604  0.1560  0.3106 -0.0713
 4132TIP3    H136591   7.371   4.574  18.660  2.0928 -1.2832 -2.0037
 4132TIP3    H236592   7.297   4.629  18.540  0.1362  0.2093 -0.1862
 4133TIP3   OH236593   6.254   2.085  18.261 -0.8638 -0.2516 -0.1457
 4133TIP3    H136594   6.279   1.995  18.240 -1.6557 -0.2832 -1.0088
 4133TIP3    H236595   6.159   2.088  18.248 -0.8618  0.6870 -0.0389
 4134TIP3   OH236596   4.577   0.469  17.766  0.0409 -0.5614  0.1687
 4134TIP3    H136597   4.514   0.492  17.834  0.9630  0.0935  0.8186
 4134TIP3    H236598   4.560   0.376  17.749 -2.6005  0.0690 -1.3006
 4135TIP3   OH236599   5.560   1.614  17.954 -0.4992 -1.1751  0.1377
 4135TIP3    H136600   5.579   1.707  17.940 -1.6389 -1.1253 -1.2463
 4135TIP3    H236601   5.609   1.592  18.033  2.6673 -0.3071 -1.4126
 4136TIP3   OH236602   6.262   2.835  17.860  0.5217 -0.2560  0.2277
 4136TIP3    H136603   6.262   2.810  17.952  1.1363  1.6733  0.8002
 4136TIP3    H236604   6.185   2.793  17.823  0.9385 -2.0696  1.3102
 4137TIP3   OH236605   2.889   3.226  19.225 -0.1412  0.3845  0.0456
 4137TIP3    H136606   2.810   3.215  19.278 -0.2618  1.1140  0.0164
 4137TIP3    H236607   2.861   3.279  19.150  0.2686  0.2384 -0.2155
 4138TIP3   OH236608   7.533   6.059  19.305 -0.6366 -0.3636  0.6889
 4138TIP3    H136609   7.606   6.121  19.305 -1.0254  0.1186 -0.3403
 4138TIP3    H236610   7.567   5.982  19.259 -0.6791 -0.2601  0.4848
 4139TIP3   OH236611   3.884   5.827  18.547 -0.2850  0.3636 -0.0438
 4139TIP3    H136612   3.962   5.806  18.599  0.4569  0.3037 -1.1423
 4139TIP3    H236613   3.848   5.905  18.589  0.7371  0.7733  0.0906
 4140TIP3   OH236614   1.302   1.635  17.242  0.1766  0.7725  0.7502
 4140TIP3    H136615   1.345   1.721  17.245  0.5395  0.6384 -0.2083
 4140TIP3    H236616   1.335   1.595  17.162  1.1571 -0.8697  1.9211
 4141TIP3   OH236617   1.017   4.326  18.650  0.3181  0.0091  0.3240
 4141TIP3    H136618   0.960   4.282  18.713  0.8833 -1.6351 -0.2671
 4141TIP3    H236619   1.093   4.269  18.643  1.0951  1.1147 -0.4635
 4142TIP3   OH236620   0.836   1.943  18.248  0.0714 -0.9915  0.2248
 4142TIP3    H136621   0.806   2.001  18.179  1.8448  0.3073  0.4793
 4142TIP3    H236622   0.861   1.862  18.203  2.0150  0.1329 -0.8411
 4143TIP3   OH236623   5.446   5.873  17.905  0.0850 -0.1888  0.2523
 4143TIP3    H136624   5.480   5.799  17.854  1.5963  0.6115  0.0179
 4143TIP3    H236625   5.483   5.861  17.993  0.0152  0.0711  0.3190
 4144TIP3   OH236626   4.519   7.600  18.150  0.1771 -0.7472  0.0961
 4144TIP3    H136627   4.569   7.589  18.231  2.5640 -1.3130 -1.3512
 4144TIP3    H236628   4.435   7.559  18.168  1.1428 -2.0908  1.8496
 4145TIP3   OH236629   0.042   0.799  18.243  0.0508 -0.2745 -1.2735
 4145TIP3    H136630  -0.034   0.855  18.257 -1.0289 -1.5503 -1.8292
 4145TIP3    H236631   0.090   0.801  18.326 -1.4402 -0.6879 -0.3812
 4146TIP3   OH236632   0.966   4.134  19.250 -0.6669  0.0662  0.4218
 4146TIP3    H136633   1.024   4.176  19.313 -0.1412 -1.3427  0.9030
 4146TIP3    H236634   0.910   4.077  19.303  0.5053 -1.9822 -0.4344
 4147TIP3   OH236635   2.429   0.373  18.077 -0.6427 -0.3773 -0.1882
 4147TIP3    H136636   2.374   0.312  18.126  0.9895 -1.8134 -0.0543
 4147TIP3    H236637   2.508   0.381  18.130 -0.6481  1.5606 -0.4245
 4148TIP3   OH236638   0.616   0.518  18.724  0.6893 -0.2598  0.2433
 4148TIP3    H136639   0.549   0.580  18.753  0.2387 -0.6620  0.0732
 4148TIP3    H236640   0.658   0.562  18.649 -1.8826 -1.4703 -2.0993
 4149TIP3   OH236641   5.464   1.101  17.357  0.0245 -0.6100  0.4643
 4149TIP3    H136642   5.461   1.049  17.437  0.3109 -0.9636  0.2506
 4149TIP3    H236643   5.495   1.187  17.385 -1.1436 -0.3244  0.9377
 4150TIP3   OH236644   6.423   3.426  18.258 -0.0740 -0.0733 -0.1616
 4150TIP3    H136645   6.351   3.431  18.322  1.1226 -1.0357  1.3616
 4150TIP3    H236646   6.501   3.450  18.309  0.8473 -0.3206 -1.4255
 4151TIP3   OH236647   0.393   1.948  19.029 -0.4251 -0.2279  0.0885
 4151TIP3    H136648   0.385   2.040  19.053 -1.7897 -0.0910 -0.7919
 4151TIP3    H236649   0.449   1.910  19.097  0.1087  1.2247  0.4945
 4152TIP3   OH236650   7.132   6.528  17.988  0.6520 -0.4842  0.3680
 4152TIP3    H136651   7.101   6.609  18.030  0.0979 -0.2812 -0.4089
 4152TIP3    H236652   7.072   6.461  18.019 -0.4801 -0.1278 -0.9737
 4153TIP3   OH236653   1.863   6.215  17.905  0.6415  0.3405  0.5433
 4153TIP3    H136654   1.790   6.212  17.844  2.0090 -1.9815 -1.1346
 4153TIP3    H236655   1.844   6.147  17.969  1.7085 -0.9603 -0.4627
 4154TIP3   OH236656   5.181   0.267  18.583 -0.1202 -0.0681 -0.4335
 4154TIP3    H136657   5.093   0.234  18.565 -0.3091 -0.2408  0.7248
 4154TIP3    H236658   5.197   0.330  18.513 -0.4304 -1.3371 -1.7046
 4155TIP3   OH236659   3.350   3.600  18.154  0.3640 -0.1177 -0.3663
 4155TIP3    H136660   3.373   3.515  18.117 -2.2881 -0.4745 -1.3819
 4155TIP3    H236661   3.279   3.581  18.216  0.3681  1.2581  0.0935
 4156TIP3   OH236662   1.863   6.604  17.033  0.6844 -0.1228 -0.2040
 4156TIP3    H136663   1.901   6.590  16.946 -0.4119  1.6315 -1.0390
 4156TIP3    H236664   1.851   6.699  17.038  1.4285 -0.0885  2.2006
 4157TIP3   OH236665   2.661   4.494  18.120  0.1845  0.9219 -0.2385
 4157TIP3    H136666   2.600   4.537  18.061 -1.9475 -3.0295 -1.2200
 4157TIP3    H236667   2.613   4.483  18.202  1.3741  1.9331  0.6512
 4158TIP3   OH236668   5.119   6.872  16.493  0.3778  0.2963 -0.0310
 4158TIP3    H136669   5.106   6.793  16.546  0.7417 -0.0934 -0.5099
 4158TIP3    H236670   5.058   6.861  16.419  1.1846 -0.0648 -0.6667
 4159TIP3   OH236671   3.526   5.089  19.278  0.2281  0.5531  0.0309
 4159TIP3    H136672   3.492   5.015  19.227  0.2361  0.2350  0.4818
 4159TIP3    H236673   3.607   5.114  19.232 -0.0417  0.6145 -0.4170
 4160TIP3   OH236674   0.375   4.859  19.322 -0.0421  0.4851 -0.0480
 4160TIP3    H136675   0.348   4.778  19.279 -0.1425 -0.3892  1.5764
 4160TIP3    H236676   0.461   4.839  19.359 -0.5177  0.7602  1.2542
 4161TIP3   OH236677   1.370   1.364  18.869 -0.2394  0.0651  0.3912
 4161TIP3    H136678   1.404   1.418  18.941  0.6238  0.8950 -0.6122
 4161TIP3    H236679   1.434   1.294  18.859  0.0448  0.3848 -0.0623
 4162TIP3   OH236680   5.186   6.722  17.681  0.3665  0.1912  0.8112
 4162TIP3    H136681   5.271   6.729  17.638 -0.3655  0.1414 -0.7270
 4162TIP3    H236682   5.142   6.804  17.660 -0.3736 -0.2402  0.6273
 4163TIP3   OH236683   1.804   6.879  17.379  0.3244  0.8529  0.2499
 4163TIP3    H136684   1.875   6.859  17.318 -0.8277  1.3669 -1.2953
 4163TIP3    H236685   1.797   6.974  17.378 -1.2449  0.7425 -0.6312
 4164TIP3   OH236686   7.192   1.115  18.909  0.7469  0.2900  0.0436
 4164TIP3    H136687   7.146   1.113  18.993  1.6188 -0.4478  0.5250
 4164TIP3    H236688   7.213   1.024  18.891  1.0145  0.4946 -0.7370
 4165TIP3   OH236689   6.094   3.637  17.794 -0.1878  0.0624 -0.4195
 4165TIP3    H136690   6.004   3.610  17.812 -1.4274  3.1564 -1.2759
 4165TIP3    H236691   6.105   3.621  17.701 -0.5662  1.3498 -0.7093
 4166TIP3   OH236692   2.403   4.907  18.552 -0.2626  0.3177  0.0461
 4166TIP3    H136693   2.461   4.984  18.556  0.3376  0.0551 -2.1373
 4166TIP3    H236694   2.460   4.833  18.570 -0.4886  0.2462  0.4803
 4167TIP3   OH236695   6.296   3.634  17.997 -0.3381  0.3856 -0.6158
 4167TIP3    H136696   6.245   3.631  17.916 -0.0728 -1.1172 -0.7654
 4167TIP3    H236697   6.332   3.545  18.006  0.1196  0.6869  0.8422
 4168TIP3   OH236698   0.542   6.791  19.479  0.3121 -0.4990  0.2868
 4168TIP3    H136699   0.569   6.879  19.452  0.1655  0.6645  3.5051
 4168TIP3    H236700   0.622   6.740  19.478  0.7472  0.1648  0.1231
 4169TIP3   OH236701   5.970   6.643  17.497 -0.3875 -0.5793 -0.5056
 4169TIP3    H136702   6.045   6.649  17.557 -0.0729 -1.2708 -0.8230
 4169TIP3    H236703   5.921   6.566  17.526 -1.6851  0.5675  0.4729
 4170TIP3   OH236704   4.949   6.700  17.171  0.0549 -0.2187 -1.5120
 4170TIP3    H136705   4.963   6.754  17.248 -0.2556  0.3740 -1.8578
 4170TIP3    H236706   4.945   6.611  17.204 -1.6935  0.1438 -0.6176
 4171TIP3   OH236707   3.174   4.710  17.204  0.5571 -0.3417 -0.2588
 4171TIP3    H136708   3.264   4.678  17.208  0.8332  0.1337 -1.8023
 4171TIP3    H236709   3.170   4.758  17.121 -0.4425  1.7100  0.9008
 4172TIP3   OH236710   6.542   2.829  17.882 -0.1731 -0.0470  0.9502
 4172TIP3    H136711   6.449   2.845  17.866 -0.6297 -0.9321  2.6313
 4172TIP3    H236712   6.585   2.862  17.802 -1.8490  0.9204  0.3923
 4173TIP3   OH236713   5.873   5.697  17.067 -0.5071 -0.3579  0.1840
 4173TIP3    H136714   5.845   5.788  17.066  0.4238 -0.0684 -0.4252
 4173TIP3    H236715   5.791   5.647  17.073 -1.0022  0.5100  0.9619
 4174TIP3   OH236716   7.270   1.223  19.310  0.3007  0.2478  0.2128
 4174TIP3    H136717   7.357   1.197  19.341  0.0243 -2.0739 -0.6976
 4174TIP3    H236718   7.281   1.236  19.216 -0.4513 -0.9205 -0.0649
 4175TIP3   OH236719   6.855   1.827  17.606  0.4518 -0.2563  0.2269
 4175TIP3    H136720   6.935   1.869  17.575  0.2805 -0.1132 -0.0131
 4175TIP3    H236721   6.882   1.781  17.686  0.6533  0.2408  0.4469
 4176TIP3   OH236722   5.262   0.452  17.246  0.3669 -0.3794  0.3518
 4176TIP3    H136723   5.200   0.486  17.310  1.2799 -0.9368  1.5593
 4176TIP3    H236724   5.212   0.389  17.195 -0.7454  1.0764 -0.4517
 4177TIP3   OH236725   2.319   3.365  19.682 -0.5325  0.3404 -0.0618
 4177TIP3    H136726   2.224   3.376  19.683 -0.6343 -0.4436 -0.6007
 4177TIP3    H236727   2.353   3.454  19.681 -1.2751  0.6243 -0.8485
 4178TIP3   OH236728   1.818   4.079  18.675 -0.5370 -0.1081  0.4211
 4178TIP3    H136729   1.744   4.031  18.711  0.9309 -1.1741  2.1718
 4178TIP3    H236730   1.883   4.011  18.656  0.9571  1.0084  1.3742
 4179TIP3   OH236731   0.062   0.990  17.377 -0.1169  0.0413 -0.2913
 4179TIP3    H136732   0.008   0.975  17.455  0.2841  1.1735  0.2308
 4179TIP3    H236733   0.088   0.903  17.349 -0.4571 -0.4034  0.7131
 4180TIP3   OH236734   5.414   3.609  18.801  0.4019  0.1191 -0.2319
 4180TIP3    H136735   5.330   3.578  18.833  1.1773 -2.3704 -0.4042
 4180TIP3    H236736   5.423   3.697  18.838 -2.2559  0.4755 -0.2703
 4181TIP3   OH236737   6.821   7.090  19.714 -0.3935  0.5528 -0.1104
 4181TIP3    H136738   6.832   7.045  19.798  3.1828  1.3976  0.0172
 4181TIP3    H236739   6.825   7.020  19.648  1.3646  0.2756  0.2546
 4182TIP3   OH236740   0.626   3.394  18.418  0.1050  0.6384  0.4352
 4182TIP3    H136741   0.644   3.300  18.418 -0.4092  0.4995  2.6839
 4182TIP3    H236742   0.712   3.434  18.432 -0.1004  0.3217  2.9022
 4183TIP3   OH236743   5.557   3.028  18.180  0.0557 -0.0992  0.5860
 4183TIP3    H136744   5.609   3.102  18.148 -0.8508 -0.1924 -1.2293
 4183TIP3    H236745   5.582   2.954  18.126  0.0654 -0.8491  1.5760
 4184TIP3   OH236746   6.246   1.812  18.203 -0.0180  0.4581  0.1396
 4184TIP3    H136747   6.291   1.768  18.131  0.8371 -1.2507  1.6120
 4184TIP3    H236748   6.157   1.777  18.201 -0.2482  1.0647 -0.5745
 4185TIP3   OH236749   1.637   1.513  17.802 -0.3800  0.3767  0.2969
 4185TIP3    H136750   1.551   1.527  17.763 -1.0895 -0.0458  1.6691
 4185TIP3    H236751   1.621   1.513  17.896  1.0234 -0.3583  0.5538
 4186TIP3   OH236752   3.525   0.999  18.181 -0.5577  0.0632 -0.3129
 4186TIP3    H136753   3.452   1.009  18.120  0.4047 -0.0238 -1.5052
 4186TIP3    H236754   3.547   1.089  18.208 -0.2814  0.1947 -0.9594
 4187TIP3   OH236755   5.924   1.798  19.072 -0.2125 -0.4813 -0.1242
 4187TIP3    H136756   5.858   1.831  19.011  0.0454  0.7195  0.2047
 4187TIP3    H236757   5.895   1.710  19.094 -0.3807 -0.8933 -1.8673
 4188TIP3   OH236758   7.347   2.071  16.467 -0.4020 -0.4255  0.0968
 4188TIP3    H136759   7.335   2.000  16.530 -1.1813 -1.5916 -1.3000
 4188TIP3    H236760   7.345   2.028  16.382 -1.3247  1.3275 -0.8221
 4189TIP3   OH236761   4.758   0.158  17.652  0.5344 -0.5663  0.2427
 4189TIP3    H136762   4.823   0.210  17.699  0.2141  0.3438 -0.3087
 4189TIP3    H236763   4.685   0.150  17.714  0.0495  0.7611 -0.1242
 4190TIP3   OH236764   2.342   0.469  19.522  0.0718  0.0724 -0.4000
 4190TIP3    H136765   2.253   0.504  19.516  0.4756  1.0679 -0.7767
 4190TIP3    H236766   2.367   0.450  19.432  0.3052 -0.0481 -0.3128
 4191TIP3   OH236767   0.634   6.430  18.418 -0.3283  0.0534  0.2188
 4191TIP3    H136768   0.560   6.373  18.439 -0.6831  0.1645 -0.6731
 4191TIP3    H236769   0.594   6.510  18.383  0.1970 -0.4633 -1.7259
 4192TIP3   OH236770   3.373   2.894  18.870  0.1161  0.0748 -0.0253
 4192TIP3    H136771   3.441   2.903  18.937  0.0111 -2.2480  0.4650
 4192TIP3    H236772   3.322   2.818  18.897 -0.7443 -0.1395 -2.0709
 4193TIP3   OH236773   5.541   5.700  18.649  0.1314 -0.0749 -0.0350
 4193TIP3    H136774   5.573   5.655  18.728 -1.2371 -0.7250  0.1970
 4193TIP3    H236775   5.448   5.716  18.668 -0.9784 -2.7030 -2.5296
 4194TIP3   OH236776   3.380   5.082  17.424  0.1282  1.1221  0.0401
 4194TIP3    H136777   3.337   5.153  17.471  2.3678  2.4651  0.2177
 4194TIP3    H236778   3.430   5.126  17.355  1.0493 -0.3402 -0.2716
 4195TIP3   OH236779   0.676   4.561  18.794 -0.2855  0.1814 -0.1980
 4195TIP3    H136780   0.672   4.554  18.698 -0.3325  0.3418 -0.2099
 4195TIP3    H236781   0.708   4.476  18.823 -0.0683  0.2027 -0.3705
 4196TIP3   OH236782   6.533   4.105  19.129 -0.3538  0.0275  0.1345
 4196TIP3    H136783   6.507   4.185  19.084  0.5518  1.3013  1.7421
 4196TIP3    H236784   6.617   4.081  19.090 -0.9714 -0.5663 -0.8451
 4197TIP3   OH236785   0.201   6.381  17.712  0.3076  0.2475  0.3192
 4197TIP3    H136786   0.203   6.334  17.629 -1.6820 -1.4953  1.1567
 4197TIP3    H236787   0.294   6.389  17.737  0.8475 -0.6911 -1.2339
 4198TIP3   OH236788   4.851   0.337  17.440 -0.3696  0.3936 -0.0882
 4198TIP3    H136789   4.851   0.422  17.484  0.3102 -0.1484  1.0095
 4198TIP3    H236790   4.824   0.275  17.508 -0.7647 -0.2748 -0.8507
 4199TIP3   OH236791   2.782   2.477  17.190 -0.0557 -0.2633  0.5301
 4199TIP3    H136792   2.829   2.400  17.222 -0.1522 -0.0381  1.2368
 4199TIP3    H236793   2.786   2.539  17.263 -0.8995 -0.0049  0.3657
 4200TIP3   OH236794   4.707   3.139  17.356  0.3390 -0.2584 -0.1520
 4200TIP3    H136795   4.725   3.165  17.265 -2.4634  2.0697 -0.2138
 4200TIP3    H236796   4.661   3.055  17.347 -0.4445  0.2284 -1.0084
 4201TIP3   OH236797   1.389   6.702  18.734  0.0526 -0.1929 -0.2210
 4201TIP3    H136798   1.356   6.764  18.669 -1.0026 -1.2636 -0.7224
 4201TIP3    H236799   1.388   6.752  18.816 -0.8643  0.4257 -0.5924
 4202TIP3   OH236800   4.500   3.117  18.429  0.2824 -0.4439  0.2751
 4202TIP3    H136801   4.421   3.090  18.382  0.4007 -0.1777 -0.0787
 4202TIP3    H236802   4.571   3.104  18.367  0.3814  0.3774  0.2017
 4203TIP3   OH236803   4.241   6.567  17.461 -0.1535 -0.1994  0.2848
 4203TIP3    H136804   4.233   6.662  17.466  0.0590 -0.1376 -0.4811
 4203TIP3    H236805   4.214   6.544  17.372  0.2476 -0.8015  0.3058
 4204TIP3   OH236806   3.434   5.324  18.914 -0.4080  0.6289  0.2363
 4204TIP3    H136807   3.451   5.381  18.839 -3.0858  0.1499 -0.8719
 4204TIP3    H236808   3.434   5.383  18.990 -1.0727  1.7813 -0.6182
 4205TIP3   OH236809   5.413   6.397  18.032 -0.2375  0.2498  0.5489
 4205TIP3    H136810   5.407   6.466  17.966  0.8344  0.8226  1.0235
 4205TIP3    H236811   5.325   6.359  18.036 -0.7697  1.3915  0.0794
 4206TIP3   OH236812   2.235   2.627  17.907  0.0667  0.5810  0.4565
 4206TIP3    H136813   2.294   2.656  17.838  0.4001 -1.0322  0.0269
 4206TIP3    H236814   2.205   2.540  17.879  1.1154 -0.6559  2.8409
 4207TIP3   OH236815   2.761   5.142  18.754 -0.3485 -0.1422  0.5541
 4207TIP3    H136816   2.745   5.156  18.847 -0.4643  0.5006  0.4384
 4207TIP3    H236817   2.692   5.190  18.710 -0.0660 -0.1214  0.1266
 4208TIP3   OH236818   0.784   0.330  17.217  1.1311 -0.0394  0.2781
 4208TIP3    H136819   0.852   0.358  17.157 -0.0182 -0.3012 -1.2185
 4208TIP3    H236820   0.727   0.406  17.227 -0.6090 -0.9627 -1.8135
 4209TIP3   OH236821   0.462   2.399  18.102  0.4795  0.0949 -0.1043
 4209TIP3    H136822   0.551   2.366  18.085  0.2755 -0.0552 -0.9130
 4209TIP3    H236823   0.448   2.465  18.034 -0.3033 -0.3992 -0.4277
 4210TIP3   OH236824   3.110   1.520  19.032  0.4575  0.0976  0.4690
 4210TIP3    H136825   3.190   1.469  19.015  1.0608  0.4490  2.0982
 4210TIP3    H236826   3.135   1.610  19.013 -0.1165  0.0243 -0.7650
 4211TIP3   OH236827   2.675   6.994  17.701 -0.1500 -0.5079 -0.5179
 4211TIP3    H136828   2.744   6.928  17.690  0.0321 -0.6454  1.1793
 4211TIP3    H236829   2.599   6.945  17.731  0.5348  0.1812  2.6667
 4212TIP3   OH236830   0.302   2.447  17.348 -0.3638 -0.4455 -0.1592
 4212TIP3    H136831   0.219   2.403  17.366  0.2573 -1.5573  0.0559
 4212TIP3    H236832   0.368   2.378  17.351  0.7900  0.6326  1.2781
 4213TIP3   OH236833   4.563   4.196  18.818 -0.0626 -0.2526  0.2496
 4213TIP3    H136834   4.590   4.275  18.865  0.6977  0.6947 -1.6662
 4213TIP3    H236835   4.642   4.166  18.773  0.0885 -3.0720  2.0962
 4214TIP3   OH236836   6.199   6.639  17.706  0.2454  0.5483 -0.2109
 4214TIP3    H136837   6.237   6.560  17.745 -0.7805 -0.5512 -1.3781
 4214TIP3    H236838   6.132   6.666  17.768 -0.6487 -0.5773 -0.6514
 4215TIP3   OH236839   1.474   1.449  18.230 -0.0480  0.5679  0.0603
 4215TIP3    H136840   1.453   1.533  18.271 -1.1832  0.6487 -0.6239
 4215TIP3    H236841   1.389   1.415  18.202  0.3208 -1.0841  0.8377
 4216TIP3   OH236842   3.473   3.022  17.206 -0.3780  0.3690  0.0312
 4216TIP3    H136843   3.553   3.041  17.254 -0.1813  0.3799 -0.3004
 4216TIP3    H236844   3.490   3.054  17.117 -1.9216  3.4141  0.6979
 4217TIP3   OH236845   1.493   0.328  17.398  0.2604  0.0544  0.0517
 4217TIP3    H136846   1.486   0.293  17.310  2.7419 -0.0175 -0.1948
 4217TIP3    H236847   1.565   0.391  17.393  0.1746  0.3538  1.9093
 4218TIP3   OH236848   2.499   3.961  18.995 -0.2324  0.0614 -0.6981
 4218TIP3    H136849   2.443   3.901  18.945 -0.5379 -1.3504  1.1812
 4218TIP3    H236850   2.446   3.984  19.072  0.8839  0.6254 -0.0691
 4219TIP3   OH236851   5.646   4.989  19.215 -0.0031 -0.0264 -0.0447
 4219TIP3    H136852   5.727   5.022  19.253  0.3248  1.0177 -1.5679
 4219TIP3    H236853   5.674   4.928  19.147 -0.5470 -0.9957  0.5811
 4220TIP3   OH236854   6.935   6.579  16.884  0.2683 -0.6690  0.5333
 4220TIP3    H136855   6.884   6.509  16.843  0.0868 -0.5615  0.5744
 4220TIP3    H236856   6.871   6.632  16.932  0.2724  0.0654 -0.2510
 4221TIP3   OH236857   1.722   0.979  16.810  0.7989 -0.0018 -0.3052
 4221TIP3    H136858   1.711   0.889  16.840 -1.1163  0.5986  0.9565
 4221TIP3    H236859   1.649   0.994  16.751  1.3885  0.5830 -0.9005
 4222TIP3   OH236860   4.399   7.377  18.859 -0.2694 -0.0481  0.0756
 4222TIP3    H136861   4.491   7.370  18.830 -0.5551 -0.0458 -0.8805
 4222TIP3    H236862   4.382   7.292  18.900  0.3923  0.2442  0.9794
 4223TIP3   OH236863   6.805   4.736  19.355 -0.0190 -0.8843 -0.5313
 4223TIP3    H136864   6.882   4.741  19.411  0.0525  0.3585 -0.7088
 4223TIP3    H236865   6.731   4.735  19.416  0.0447  0.7716 -0.3757
 4224TIP3   OH236866   3.467   0.047  17.856 -0.1832 -0.3722  0.5287
 4224TIP3    H136867   3.384   0.021  17.816 -0.1605  0.7258 -0.2841
 4224TIP3    H236868   3.484   0.135  17.820  1.1553 -0.4449  0.9429
 4225TIP3   OH236869   7.431   2.344  17.929 -0.4604 -0.5680  0.5398
 4225TIP3    H136870   7.341   2.375  17.926 -0.2140  0.1286  0.2145
 4225TIP3    H236871   7.480   2.415  17.969  0.3506  0.1029 -1.5044
 4226TIP3   OH236872   3.561   7.590  19.350 -0.2504  0.0358  0.2439
 4226TIP3    H136873   3.487   7.565  19.406 -0.1404  0.6596  0.6787
 4226TIP3    H236874   3.588   7.509  19.308 -2.2437  0.0575 -1.2134
 4227TIP3   OH236875   4.942   0.175  19.243  0.4040  0.8656 -0.6589
 4227TIP3    H136876   5.006   0.109  19.267 -0.0234  0.9816  0.9219
 4227TIP3    H236877   4.873   0.127  19.198  0.4053  0.3309 -0.0962
 4228TIP3   OH236878   3.081   2.330  19.028 -0.4768  0.3788  0.5563
 4228TIP3    H136879   3.014   2.393  19.003 -0.0860  0.9844  1.0054
 4228TIP3    H236880   3.032   2.255  19.062 -0.9409  0.5867  0.3513
 4229TIP3   OH236881   7.257   3.333  18.490  0.1207 -0.2249  0.3189
 4229TIP3    H136882   7.279   3.421  18.521  0.9714 -0.0281 -0.8021
 4229TIP3    H236883   7.164   3.340  18.465 -0.3839 -0.2015  2.0565
 4230TIP3   OH236884   4.681   7.288  16.946  0.0892 -1.0216 -0.0871
 4230TIP3    H136885   4.634   7.370  16.961  0.7121 -0.7789  0.5739
 4230TIP3    H236886   4.646   7.228  17.012 -0.4756 -1.3490 -0.6664
 4231TIP3   OH236887   3.471   1.364  18.593 -0.1626 -0.2479 -0.7252
 4231TIP3    H136888   3.458   1.277  18.629 -2.0771  0.0194 -0.6934
 4231TIP3    H236889   3.548   1.398  18.639 -0.3709 -1.3028  0.4418
 4232TIP3   OH236890   4.329   2.440  18.714  0.2560  0.6745  0.1284
 4232TIP3    H136891   4.383   2.362  18.719 -0.6702 -0.0066 -0.1898
 4232TIP3    H236892   4.240   2.407  18.700 -0.3498  1.7243  1.2432
 4233TIP3   OH236893   5.191   5.120  18.520  0.4955  0.0456  0.0141
 4233TIP3    H136894   5.233   5.069  18.451 -0.9843 -0.6376 -0.4278
 4233TIP3    H236895   5.103   5.140  18.485 -0.3208 -0.3857  1.7118
 4234TIP3   OH236896   3.268   0.347  18.062 -0.3222 -0.5516  0.3535
 4234TIP3    H136897   3.274   0.439  18.035 -0.1296 -0.8084 -0.5150
 4234TIP3    H236898   3.181   0.319  18.032 -0.1133 -0.8398  0.0138
 4235TIP3   OH236899   6.697   0.002  18.755  0.2485 -0.2690  0.6077
 4235TIP3    H136900   6.605   0.016  18.733  0.1215  0.0078  1.2744
 4235TIP3    H236901   6.741  -0.006  18.671 -0.4581 -0.8884  0.2912
 4236TIP3   OH236902   1.631   4.120  18.414  0.1949  0.0871 -0.1810
 4236TIP3    H136903   1.694   4.106  18.485  0.3839  1.3850 -0.0849
 4236TIP3    H236904   1.566   4.051  18.427  0.9197 -0.4974  0.4683
 4237TIP3   OH236905   7.432   3.081  19.079  0.4591  0.3743  0.1227
 4237TIP3    H136906   7.497   3.112  19.016 -0.0822 -0.3813 -0.8329
 4237TIP3    H236907   7.361   3.047  19.026 -0.3620  0.4178  1.1525
 4238TIP3   OH236908   3.253   5.424  18.021  0.1275  0.1080  0.2052
 4238TIP3    H136909   3.235   5.468  17.937  1.6533  2.0557  0.8146
 4238TIP3    H236910   3.173   5.374  18.039  0.1807 -1.3756 -2.9604
 4239TIP3   OH236911   4.631   3.462  18.788 -0.4445  0.3162  0.2083
 4239TIP3    H136912   4.645   3.435  18.879 -4.5712  1.6864  1.4972
 4239TIP3    H236913   4.621   3.380  18.740 -0.1335 -0.4430  1.3940
 4240TIP3   OH236914   1.469   4.510  18.624  0.0895 -0.0629 -0.0215
 4240TIP3    H136915   1.561   4.499  18.649  0.1851 -0.4329 -0.5213
 4240TIP3    H236916   1.450   4.432  18.571 -0.4575  0.1097 -0.0764
 4241TIP3   OH236917   7.574   3.597  18.350  0.2277 -0.1875  0.0827
 4241TIP3    H136918   7.561   3.506  18.373 -1.2675  0.2090  0.9048
 4241TIP3    H236919   7.490   3.639  18.367  1.1596  1.5397  0.6870
 4242TIP3   OH236920   6.873   4.413  18.797 -0.2920 -0.1471  0.6876
 4242TIP3    H136921   6.788   4.373  18.813  0.0764 -1.6526 -0.7274
 4242TIP3    H236922   6.856   4.507  18.792 -2.0473 -0.4800 -0.4353
 4243TIP3   OH236923   1.388   0.436  19.357  0.9601 -0.0963  0.2207
 4243TIP3    H136924   1.346   0.461  19.275  1.1818  2.1008  0.6939
 4243TIP3    H236925   1.337   0.480  19.425  1.8891 -0.3062  1.0884
 4244TIP3   OH236926   4.148   6.274  19.673 -0.0261 -0.2770 -0.7434
 4244TIP3    H136927   4.238   6.296  19.697  0.5551 -2.3051 -0.9120
 4244TIP3    H236928   4.109   6.358  19.648  1.6830  0.7044 -0.2644
 4245TIP3   OH236929   0.662   0.873  16.808 -0.0479  0.3691  0.2608
 4245TIP3    H136930   0.666   0.778  16.822  1.3725  0.4935  0.8428
 4245TIP3    H236931   0.750   0.904  16.829 -0.4312  1.7978 -0.1451
 4246TIP3   OH236932   0.738   1.013  18.014 -0.3293  0.2348  0.3550
 4246TIP3    H136933   0.712   0.923  17.995  0.8090 -0.0422  0.0192
 4246TIP3    H236934   0.789   1.040  17.938  0.0025  0.8865  0.7997
 4247TIP3   OH236935   1.913   0.092  18.401  0.5418  0.0245 -0.4159
 4247TIP3    H136936   1.883   0.023  18.460  1.8297 -1.2822 -1.2364
 4247TIP3    H236937   1.971   0.145  18.455 -0.1335  0.2456  0.1074
 4248TIP3   OH236938   4.316   5.529  17.157 -0.4643 -0.4738  0.3343
 4248TIP3    H136939   4.316   5.456  17.218  1.2772 -1.0056 -0.2587
 4248TIP3    H236940   4.229   5.569  17.168 -1.9263 -3.2565 -0.1004
 4249TIP3   OH236941   1.171   6.371  17.831 -0.1609 -0.3169  0.2695
 4249TIP3    H136942   1.085   6.366  17.871 -0.5697 -1.6443 -0.6930
 4249TIP3    H236943   1.208   6.453  17.863 -1.4192 -0.1598  1.3959
 4250TIP3   OH236944   5.177   2.489  18.206 -0.2973  0.0705  0.1125
 4250TIP3    H136945   5.193   2.467  18.298 -0.2044 -2.0564 -0.3660
 4250TIP3    H236946   5.155   2.582  18.207  2.7925  0.9167  1.9324
 4251TIP3   OH236947   5.715   4.234  18.727 -0.5668 -0.3756  0.3267
 4251TIP3    H136948   5.725   4.164  18.792  1.0065  0.4215  0.9977
 4251TIP3    H236949   5.801   4.276  18.724 -1.4578  1.4964 -0.1018
 4252TIP3   OH236950   1.114   5.066  17.055 -0.5647 -0.2687 -0.1571
 4252TIP3    H136951   1.149   5.084  16.968 -2.0236  0.9183 -0.5417
 4252TIP3    H236952   1.034   5.017  17.039  1.0055 -3.3772  0.7306
 4253TIP3   OH236953   4.483   3.910  17.034 -0.0334  0.0970  0.1206
 4253TIP3    H136954   4.398   3.869  17.045  1.2253 -3.0275 -0.7242
 4253TIP3    H236955   4.512   3.930  17.124 -0.4523 -1.4844  0.6312
 4254TIP3   OH236956   3.635   5.395  17.281 -0.2587  0.4059  0.1167
 4254TIP3    H136957   3.673   5.308  17.297 -1.7397 -1.1072 -3.4328
 4254TIP3    H236958   3.709   5.448  17.251  0.2249 -0.4872 -0.3279
 4255TIP3   OH236959   1.006   1.434  18.227 -0.1283 -0.2991  0.2871
 4255TIP3    H136960   1.084   1.460  18.275  0.7604  0.1415 -1.3180
 4255TIP3    H236961   1.032   1.438  18.135 -1.3612 -2.3510 -0.2218
 4256TIP3   OH236962   7.394   1.520  18.194 -0.0498  0.6931  0.6340
 4256TIP3    H136963   7.304   1.489  18.196  0.0746  0.0805 -1.3800
 4256TIP3    H236964   7.396   1.594  18.255 -1.6959  0.2359  1.2854
 4257TIP3   OH236965   7.246   2.770  19.114  0.2852  0.1568 -0.4370
 4257TIP3    H136966   7.231   2.838  19.180  0.4974 -0.7194  0.5420
 4257TIP3    H236967   7.340   2.756  19.114  0.1396 -0.9958  0.2893
 4258TIP3   OH236968   2.580   1.674  17.160 -0.0691  0.1115 -0.0980
 4258TIP3    H136969   2.659   1.626  17.136 -0.9504 -1.1284 -0.6142
 4258TIP3    H236970   2.548   1.711  17.078 -0.6023 -0.3057 -0.0853
 4259TIP3   OH236971   6.114   7.634  18.103  0.2104  0.0934  0.0776
 4259TIP3    H136972   6.176   7.561  18.110  1.0062  0.6654 -0.7080
 4259TIP3    H236973   6.170   7.712  18.100 -0.6254  0.7372  0.9034
 4260TIP3   OH236974   5.522   0.940  19.172 -0.1086  0.4510 -1.3092
 4260TIP3    H136975   5.587   0.918  19.240  0.2113  0.4015 -1.6267
 4260TIP3    H236976   5.574   0.947  19.092 -0.6683 -0.7701 -1.7949
 4261TIP3   OH236977   6.822   5.176  18.280 -0.5284  0.2899  0.1359
 4261TIP3    H136978   6.882   5.192  18.352 -1.3208 -0.9526  1.1199
 4261TIP3    H236979   6.878   5.165  18.203  0.2772  2.6701  0.3203
 4262TIP3   OH236980   6.714   0.031  17.695 -0.3183 -0.2647 -0.3383
 4262TIP3    H136981   6.805   0.016  17.720 -0.1045 -0.4655 -1.2184
 4262TIP3    H236982   6.664  -0.033  17.747  0.2556 -1.6696 -1.4321
 4263TIP3   OH236983   3.367   0.182  18.789 -0.4245  0.2672  0.4199
 4263TIP3    H136984   3.296   0.141  18.839 -0.2798  0.3247  0.6724
 4263TIP3    H236985   3.404   0.247  18.848 -1.0071  1.1526 -0.1781
 4264TIP3   OH236986   3.247   4.077  17.617  0.2290  0.1964 -0.5527
 4264TIP3    H136987   3.202   4.087  17.533 -0.3332 -0.9338 -0.4021
 4264TIP3    H236988   3.299   4.157  17.626 -1.6939  1.5253 -0.7488
 4265TIP3   OH236989   6.354   1.948  16.597 -0.0885 -0.4302 -0.3229
 4265TIP3    H136990   6.360   1.881  16.529  1.2262  0.5797 -1.2232
 4265TIP3    H236991   6.421   1.924  16.661  0.3822  0.0332 -0.6453
 4266TIP3   OH236992   4.351   2.915  17.002 -0.0979 -0.0157 -0.0580
 4266TIP3    H136993   4.440   2.920  17.035  0.1232  0.7438 -0.7420
 4266TIP3    H236994   4.308   2.849  17.058  0.2061  1.2937  1.8237
 4267TIP3   OH236995   1.853   5.974  19.099  0.0134  0.4740 -0.0375
 4267TIP3    H136996   1.935   6.000  19.140 -0.5547 -0.6084  1.9047
 4267TIP3    H236997   1.859   5.879  19.091 -1.2965  0.3146  0.7120
 4268TIP3   OH236998   5.171   4.746  18.384  0.5405  0.0717 -0.5395
 4268TIP3    H136999   5.082   4.741  18.420  0.9567  0.7087  0.6167
 4268TIP3    H237000   5.213   4.666  18.413 -0.3746 -1.5680 -3.2776
 4269TIP3   OH237001   6.774   2.443  16.964  0.8042  0.3238 -0.4083
 4269TIP3    H137002   6.712   2.475  17.030  0.1419  0.9265 -1.3145
 4269TIP3    H237003   6.844   2.509  16.963  2.5468 -1.3091  2.0156
 4270TIP3   OH237004   2.915   0.297  18.472 -0.5396 -0.2690  0.1787
 4270TIP3    H137005   2.980   0.348  18.422 -1.0878  0.6420  0.3808
 4270TIP3    H237006   2.939   0.206  18.455  0.3460  0.0450 -0.3480
 4271TIP3   OH237007   2.326   7.295  19.161 -0.0035 -0.1506 -0.0823
 4271TIP3    H137008   2.295   7.270  19.248  3.7323 -0.8479  1.2364
 4271TIP3    H237009   2.388   7.227  19.136 -0.3031  0.4859 -2.9709
 4272TIP3   OH237010   2.436   4.035  18.678 -0.1293  0.3451 -0.1413
 4272TIP3    H137011   2.358   3.985  18.701  0.5920 -0.2075  1.2255
 4272TIP3    H237012   2.444   4.025  18.583 -1.2843 -0.2095 -0.1924
 4273TIP3   OH237013   7.001   2.370  17.190 -0.1426 -0.7948 -0.2495
 4273TIP3    H137014   7.076   2.413  17.150  0.5984 -1.6076  0.2395
 4273TIP3    H237015   6.964   2.436  17.249 -0.6084  0.0487 -1.4397
 4274TIP3   OH237016   0.172   0.999  17.134 -0.1692 -0.1077  0.0850
 4274TIP3    H137017   0.108   1.014  17.204 -0.2774 -0.4375  0.0586
 4274TIP3    H237018   0.160   1.073  17.075 -0.5594 -0.1891  0.0597
 4275TIP3   OH237019   1.304   3.601  18.058 -0.2955 -0.4200  0.5352
 4275TIP3    H137020   1.352   3.521  18.080 -2.0489 -0.9556  2.8045
 4275TIP3    H237021   1.232   3.571  18.002  1.2175  0.2230 -1.9157
 4276TIP3   OH237022   2.822   1.008  18.353  0.1087 -0.7757  0.0391
 4276TIP3    H137023   2.903   0.992  18.305  0.0697 -1.0316  0.0594
 4276TIP3    H237024   2.781   0.922  18.361  0.0156 -0.7030  0.3525
 4277TIP3   OH237025   0.948   1.219  19.431 -0.1387  0.1534  0.2814
 4277TIP3    H137026   0.952   1.207  19.336 -2.3108  0.0565  0.1716
 4277TIP3    H237027   0.924   1.311  19.442 -4.1523 -0.7370  0.5214
 4278TIP3   OH237028   7.260   0.004  19.710  0.5337 -0.0182 -0.2032
 4278TIP3    H137029   7.219   0.075  19.760  0.0440 -1.3460  1.3492
 4278TIP3    H237030   7.191  -0.025  19.650  0.7965  0.8978 -0.9859
 4279TIP3   OH237031   0.401   3.545  18.757  0.0819  0.8103  0.6072
 4279TIP3    H137032   0.316   3.582  18.782  0.0150  0.4044  0.9874
 4279TIP3    H237033   0.399   3.544  18.661 -0.2189  1.0876  0.6057
 4280TIP3   OH237034   6.812   4.239  19.272 -0.1495  0.0307  0.1333
 4280TIP3    H137035   6.830   4.314  19.215 -1.2227  0.5801  0.4981
 4280TIP3    H237036   6.855   4.165  19.229  1.5190  0.9655  0.1126
 4281TIP3   OH237037   5.115   3.277  18.513 -0.2753 -0.1067  0.4499
 4281TIP3    H137038   5.053   3.307  18.447  0.7183 -0.2330 -0.5549
 4281TIP3    H237039   5.060   3.245  18.585 -1.3591  0.4556 -0.1131
 4282TIP3   OH237040   6.745   1.752  17.373 -0.0705 -0.0387 -0.0505
 4282TIP3    H137041   6.803   1.770  17.448 -0.5241 -0.6822  0.4636
 4282TIP3    H237042   6.740   1.836  17.326 -0.6490  0.6793  1.2453
 4283TIP3   OH237043   5.700   4.195  18.439 -0.2548 -0.0160 -0.2514
 4283TIP3    H137044   5.793   4.193  18.417 -0.2458 -2.0844 -0.2597
 4283TIP3    H237045   5.698   4.211  18.533  0.0758  0.3935 -0.3104
 4284TIP3   OH237046   0.437   5.425  18.565  0.3431  0.0308  0.4930
 4284TIP3    H137047   0.494   5.367  18.615  2.1626  0.4927 -0.9090
 4284TIP3    H237048   0.348   5.398  18.588  1.1211 -1.7081  1.6630
 4285TIP3   OH237049   1.559   5.577  17.512  0.1299  0.0159  0.0480
 4285TIP3    H137050   1.579   5.499  17.563 -0.1582  0.5104  0.9344
 4285TIP3    H237051   1.466   5.569  17.491  0.5445 -0.8933 -1.6714
 4286TIP3   OH237052   6.265   5.011  19.104  0.0831 -0.2208  0.1458
 4286TIP3    H137053   6.285   5.100  19.133  1.3060  0.5005 -2.5526
 4286TIP3    H237054   6.211   5.023  19.026  2.4504 -1.6238 -1.8904
 4287TIP3   OH237055   4.715   1.618  18.265  0.0598 -0.0895  0.4805
 4287TIP3    H137056   4.692   1.642  18.176  0.9982  0.0608  0.2619
 4287TIP3    H237057   4.710   1.700  18.314 -0.3324 -0.1484  0.5404
 4288TIP3   OH237058   3.823   5.422  19.136 -0.0439 -0.1559  0.0444
 4288TIP3    H137059   3.867   5.405  19.053  1.8336 -0.4006  1.0319
 4288TIP3    H237060   3.796   5.514  19.130  0.6078  0.0013 -0.5879
 4289TIP3   OH237061   2.697   2.593  19.449  0.6362  0.1585  0.2975
 4289TIP3    H137062   2.685   2.574  19.542 -0.6069  0.7590  0.2793
 4289TIP3    H237063   2.612   2.628  19.421  1.6721  2.1186 -0.5430
 4290TIP3   OH237064   7.578   7.474  17.503 -0.0264  0.7872  0.2790
 4290TIP3    H137065   7.504   7.441  17.452  0.2894  0.6383 -0.0861
 4290TIP3    H237066   7.582   7.417  17.580 -0.0818  0.5852  0.1308
 4291TIP3   OH237067   1.923   7.070  19.378 -0.0967  0.2717  0.1906
 4291TIP3    H137068   1.969   6.995  19.416 -0.6114 -0.4356 -0.5627
 4291TIP3    H237069   1.993   7.134  19.362  0.4710 -0.3643  0.0712
 4292TIP3   OH237070   4.641   6.901  17.970 -0.7813 -0.0507 -0.1798
 4292TIP3    H137071   4.568   6.839  17.962 -1.0630  0.3365 -0.6371
 4292TIP3    H237072   4.690   6.891  17.888  0.8031 -1.7065  0.9092
 4293TIP3   OH237073   6.362   1.661  19.291 -0.4005 -0.2769 -0.0306
 4293TIP3    H137074   6.428   1.704  19.345 -1.0405  0.6072  0.0771
 4293TIP3    H237075   6.396   1.573  19.277 -1.2525 -1.4142  3.8098
 4294TIP3   OH237076   1.784   5.924  17.306  0.0926  0.4164 -0.0300
 4294TIP3    H137077   1.749   5.937  17.394 -1.1822  1.8389 -0.7009
 4294TIP3    H237078   1.820   6.009  17.281  0.3755  0.0539 -0.9199
 4295TIP3   OH237079   3.430   1.441  18.987  0.0015  0.3411 -0.0938
 4295TIP3    H137080   3.525   1.440  18.999  0.1044 -0.8066 -0.8265
 4295TIP3    H237081   3.400   1.358  19.025 -0.2970 -0.7491 -2.5114
 4296TIP3   OH237082   4.791   7.015  18.180 -0.1687  0.3645 -0.3111
 4296TIP3    H137083   4.722   7.006  18.115 -0.9826  0.9072  0.4477
 4296TIP3    H237084   4.857   7.070  18.138 -1.0733  1.4147 -0.3966
 4297TIP3   OH237085   4.347   7.396  18.401 -0.0881 -0.0991 -0.8009
 4297TIP3    H137086   4.292   7.438  18.335 -1.2958 -0.9282 -0.3549
 4297TIP3    H237087   4.294   7.394  18.480  1.1641  0.4491  0.0959
 4298TIP3   OH237088   2.052   1.741  17.898 -0.1238  0.6733 -0.4510
 4298TIP3    H137089   2.012   1.825  17.919  2.2940  1.3252  2.1713
 4298TIP3    H237090   2.056   1.739  17.802 -0.5203  3.3887 -0.5936
 4299TIP3   OH237091   2.066   6.523  19.183  0.0898 -0.1504 -0.2069
 4299TIP3    H137092   2.093   6.458  19.118 -0.9288  1.0206 -1.8905
 4299TIP3    H237093   2.020   6.473  19.250 -1.9116 -1.0998 -2.1544
 4300TIP3   OH237094   6.509   0.027  18.218  0.1008 -0.5117  0.4395
 4300TIP3    H137095   6.465   0.009  18.301 -1.2281 -1.5827 -0.4657
 4300TIP3    H237096   6.439   0.031  18.154  1.0624  0.7907 -0.5912
 4301TIP3   OH237097   3.114   5.213  18.561 -0.4843 -0.5313  0.0291
 4301TIP3    H137098   3.124   5.281  18.629 -2.0531  1.3913 -1.5477
 4301TIP3    H237099   3.183   5.233  18.498 -0.0041 -1.3628  0.2814
 4302TIP3   OH237100   4.792   1.285  18.530 -0.5185 -0.0202  0.4802
 4302TIP3    H137101   4.834   1.232  18.597  2.3563 -1.2599 -2.0820
 4302TIP3    H237102   4.821   1.375  18.547 -0.5028 -0.1829  1.3306
 4303TIP3   OH237103   6.194   3.160  18.669  0.4109  0.2298 -0.1022
 4303TIP3    H137104   6.109   3.176  18.709  0.2980  0.3297 -0.3783
 4303TIP3    H237105   6.205   3.065  18.672  0.0790  0.1754 -0.4897
 4304TIP3   OH237106   6.687   1.674  18.386 -0.1043  0.0036 -0.8873
 4304TIP3    H137107   6.639   1.738  18.333 -0.2421  0.7450  0.1075
 4304TIP3    H237108   6.701   1.718  18.470  0.1208 -1.1418 -0.3068
 4305TIP3   OH237109   4.573   0.824  19.543 -0.4402 -0.2642 -0.0731
 4305TIP3    H137110   4.663   0.803  19.518 -0.3151 -0.6497  0.6747
 4305TIP3    H237111   4.571   0.812  19.638 -0.8373  1.4167  0.1649
 4306TIP3   OH237112   2.533   0.641  18.747  0.3310 -0.1107 -0.4257
 4306TIP3    H137113   2.447   0.639  18.790 -0.4204 -0.1306 -1.8644
 4306TIP3    H237114   2.596   0.645  18.819 -0.8307 -1.0583  0.6874
 4307TIP3   OH237115   1.414   3.410  17.765  0.1438 -0.2643  0.3849
 4307TIP3    H137116   1.466   3.488  17.787  0.4717 -0.9265  2.0872
 4307TIP3    H237117   1.430   3.397  17.672 -0.1106  1.8321 -0.0038
 4308TIP3   OH237118   4.089   6.186  18.786  0.2312  0.6505 -0.1783
 4308TIP3    H137119   4.155   6.198  18.855  0.7643  1.9545 -0.8732
 4308TIP3    H237120   4.041   6.269  18.784 -2.7332 -0.8416  1.5546
 4309TIP3   OH237121   5.333   5.255  19.066 -0.6769 -0.2953 -0.0582
 4309TIP3    H137122   5.365   5.243  18.976  1.2806  0.1140  0.5445
 4309TIP3    H237123   5.238   5.246  19.058 -0.7827  1.6863 -2.5171
 4310TIP3   OH237124   2.515   1.018  19.132 -0.2806  0.3608  0.6044
 4310TIP3    H137125   2.582   1.013  19.065 -1.1133 -0.7035 -0.1924
 4310TIP3    H237126   2.563   1.017  19.215  0.6682 -0.9719  0.0671
 4311TIP3   OH237127   4.771   2.166  17.154 -0.2548 -0.0007 -0.0324
 4311TIP3    H137128   4.751   2.095  17.094  0.9606 -1.0065  0.7065
 4311TIP3    H237129   4.710   2.154  17.227  0.8089 -1.1279  0.7162
 4312TIP3   OH237130   0.330   1.675  16.963  0.3511 -0.0459 -0.0352
 4312TIP3    H137131   0.416   1.683  16.921  0.6879 -0.1685  0.6139
 4312TIP3    H237132   0.281   1.752  16.933  0.9710  0.4657  0.2259
 4313TIP3   OH237133   3.784   6.794  18.701  0.0233 -0.1619  0.0857
 4313TIP3    H137134   3.880   6.794  18.707  0.1158 -1.1668 -1.0602
 4313TIP3    H237135   3.756   6.850  18.773  1.4960  0.6327  0.0916
 4314TIP3   OH237136   4.470   0.531  18.803  0.0761  0.1096 -0.1166
 4314TIP3    H137137   4.410   0.496  18.868 -0.2409 -0.9649 -0.9565
 4314TIP3    H237138   4.554   0.489  18.821 -0.2071 -0.8091 -0.8769
 4315TIP3   OH237139   6.065   1.108  18.178 -0.4074 -0.0474 -0.4519
 4315TIP3    H137140   6.043   1.197  18.149 -2.3399 -0.6868 -1.0736
 4315TIP3    H237141   6.155   1.115  18.209 -0.9709  2.4848  0.9351
 4316TIP3   OH237142   0.249   5.151  18.286 -0.0612 -0.3771  0.5910
 4316TIP3    H137143   0.213   5.182  18.368 -0.8919  0.0237  0.0880
 4316TIP3    H237144   0.287   5.066  18.306 -0.4154 -0.3601  1.3441
 4317TIP3   OH237145   2.702   0.259  17.416 -0.0950 -1.0315  0.0760
 4317TIP3    H137146   2.715   0.353  17.402 -1.2329 -0.8723 -0.0045
 4317TIP3    H237147   2.749   0.217  17.344 -1.3189 -0.4256 -1.1171
 4318TIP3   OH237148   4.475   7.419  17.157  0.0096  0.0417 -0.5183
 4318TIP3    H137149   4.401   7.357  17.151  2.0505 -2.6810  0.5995
 4318TIP3    H237150   4.482   7.455  17.068 -1.0861 -1.5635 -1.3132
 4319TIP3   OH237151   0.094   5.507  16.906 -0.1771  0.1570 -0.7343
 4319TIP3    H137152   0.166   5.562  16.937  0.9725 -0.5662 -2.0149
 4319TIP3    H237153   0.056   5.556  16.833 -0.0514 -0.0985 -0.9754
 4320TIP3   OH237154   2.072   2.254  19.156  0.1031 -0.0306  0.3801
 4320TIP3    H137155   2.080   2.331  19.100  1.2730 -0.5342 -0.1832
 4320TIP3    H237156   2.121   2.276  19.235  1.7729 -0.7211 -0.4070
 4321TIP3   OH237157   2.453   5.879  18.823  0.7815  0.1328 -0.7547
 4321TIP3    H137158   2.417   5.815  18.885 -0.5783  2.0379  0.5615
 4321TIP3    H237159   2.548   5.866  18.828  0.7435  0.3477  1.9556
 4322TIP3   OH237160   5.062   2.992  18.870  0.1610 -0.7153  0.0313
 4322TIP3    H137161   5.151   2.975  18.840  1.0934  1.1011  1.5559
 4322TIP3    H237162   5.048   2.929  18.941  0.4918 -0.5727  0.2255
 4323TIP3   OH237163   1.891   5.234  17.017  0.0517  0.2396  0.5553
 4323TIP3    H137164   1.850   5.148  17.024 -0.0796  0.2612  0.0821
 4323TIP3    H237165   1.821   5.295  17.040  0.2716  0.2012  1.3414
 4324TIP3   OH237166   7.024   5.473  17.012 -0.0797 -0.3491 -0.3401
 4324TIP3    H137167   7.115   5.478  16.983 -0.2829  0.4902 -0.8836
 4324TIP3    H237168   6.983   5.412  16.951 -0.3662  0.9454 -1.4954
 4325TIP3   OH237169   2.627   5.527  18.622 -0.0112  0.6619  0.1592
 4325TIP3    H137170   2.571   5.601  18.598  0.7146  0.9818 -0.5785
 4325TIP3    H237171   2.654   5.489  18.539 -0.7109 -0.7233  0.5189
 4326TIP3   OH237172   3.766   4.856  17.398 -0.0171 -0.1575 -0.0427
 4326TIP3    H137173   3.759   4.761  17.410 -0.3324 -0.4710 -2.2258
 4326TIP3    H237174   3.850   4.869  17.354  0.6776  0.7611  1.4715
 4327TIP3   OH237175   2.320   1.143  18.472 -0.1545  0.2848 -0.1126
 4327TIP3    H137176   2.280   1.172  18.554 -1.5082  0.6372 -0.8802
 4327TIP3    H237177   2.269   1.067  18.445  1.0222 -0.5571 -0.0583
 4328TIP3   OH237178   4.699   5.131  16.986 -0.0154  0.4634  0.5957
 4328TIP3    H137179   4.658   5.172  16.910  1.1980  0.3978 -0.1204
 4328TIP3    H237180   4.626   5.116  17.047 -1.1240 -0.1226 -0.8203
 4329TIP3   OH237181   6.435   2.256  18.952 -0.5173  0.1760  0.1269
 4329TIP3    H137182   6.431   2.201  18.874  0.6747 -0.2620  0.3560
 4329TIP3    H237183   6.528   2.275  18.964 -0.7610  0.9753  0.9390
 4330TIP3   OH237184   2.925   2.112  18.286  0.2300 -0.1585 -1.0912
 4330TIP3    H137185   2.999   2.052  18.298  0.1153 -0.2745 -0.9423
 4330TIP3    H237186   2.949   2.190  18.335  0.8503  0.3417 -2.1832
 4331TIP3   OH237187   2.958   1.489  19.378 -0.0711 -0.4830 -0.2799
 4331TIP3    H137188   2.905   1.558  19.338  0.4136  0.5821  0.8584
 4331TIP3    H237189   3.029   1.473  19.315 -0.2807 -0.0585 -0.6252
 4332TIP3   OH237190   5.297   6.174  18.519  0.5201  1.0063  0.0211
 4332TIP3    H137191   5.375   6.194  18.467  0.9594 -1.1912 -0.2319
 4332TIP3    H237192   5.277   6.083  18.501 -3.2509  1.8957 -1.3799
 4333TIP3   OH237193   3.355   3.170  19.150 -0.2957  0.1381 -0.1380
 4333TIP3    H137194   3.348   3.196  19.058 -1.1420  0.2502 -0.0557
 4333TIP3    H237195   3.416   3.097  19.150  0.5665  0.8319 -0.6418
 4334TIP3   OH237196   6.586   2.114  19.294 -0.2129 -0.1071 -0.1065
 4334TIP3    H137197   6.637   2.196  19.299 -0.8416  0.3158 -0.4867
 4334TIP3    H237198   6.496   2.143  19.278 -0.8032 -0.8016  1.7810
 4335TIP3   OH237199   3.805   3.691  17.118  0.5905 -0.4244 -0.4479
 4335TIP3    H137200   3.884   3.738  17.144 -0.7142  2.0326 -0.6130
 4335TIP3    H237201   3.754   3.683  17.199  0.1895 -0.3157 -0.6858
 4336TIP3   OH237202   4.337   1.118  18.680 -0.1155 -0.0414 -0.1425
 4336TIP3    H137203   4.414   1.151  18.727  0.8487 -1.3083 -0.7737
 4336TIP3    H237204   4.365   1.115  18.588 -0.5772 -1.4678 -0.2483
 4337TIP3   OH237205   6.789   7.547  19.019  0.0227 -0.7428  0.5042
 4337TIP3    H137206   6.781   7.578  19.109 -0.3035  0.6556  0.0164
 4337TIP3    H237207   6.707   7.573  18.978  0.3619 -0.9500 -0.3172
 4338TIP3   OH237208   0.790   0.306  18.710 -0.8538  0.0644 -0.8322
 4338TIP3    H137209   0.876   0.348  18.710 -0.7691 -0.0997 -1.2681
 4338TIP3    H237210   0.728   0.379  18.698 -0.6747  0.0226 -2.1707
 4339TIP3   OH237211   7.672   1.945  17.554  0.1896 -0.2801 -0.2370
 4339TIP3    H137212   7.759   1.979  17.533 -0.0517  0.2403 -0.4052
 4339TIP3    H237213   7.679   1.916  17.645 -0.3912  3.0104  1.0114
 4340TIP3   OH237214   0.835   2.518  18.955  0.2448 -0.0391 -0.0571
 4340TIP3    H137215   0.922   2.528  18.995  0.5621 -1.1188 -0.4198
 4340TIP3    H237216   0.776   2.563  19.014  0.9849  0.2117  0.5153
 4341TIP3   OH237217   3.303   6.280  17.741  0.0952  0.0893 -0.0789
 4341TIP3    H137218   3.293   6.228  17.662  0.7824  1.7634 -1.3132
 4341TIP3    H237219   3.271   6.223  17.811  0.2872 -1.7549 -1.4269
 4342TIP3   OH237220   2.907   3.553  19.416  0.7008  0.3094  0.1175
 4342TIP3    H137221   2.866   3.569  19.500 -0.8807 -1.9456 -0.1379
 4342TIP3    H237222   3.001   3.566  19.432  0.2298  2.8639  1.4028
 4343TIP3   OH237223   1.623   0.758  18.685  0.2389  0.0310  0.9392
 4343TIP3    H137224   1.683   0.829  18.662  0.6897 -0.9384 -1.0878
 4343TIP3    H237225   1.590   0.782  18.772  1.2143  2.1385  0.7962
 4344TIP3   OH237226   0.825   2.272  16.932  0.8611 -0.2401 -0.2407
 4344TIP3    H137227   0.750   2.213  16.926  1.6249 -1.3932  0.9927
 4344TIP3    H237228   0.789   2.359  16.912 -0.9973 -0.6163  1.1468
 4345TIP3   OH237229   0.143   0.151  18.826 -0.3207  0.7083 -0.0290
 4345TIP3    H137230   0.188   0.067  18.818  1.0025  1.4876 -1.3183
 4345TIP3    H237231   0.089   0.142  18.904  0.3032 -1.0965  0.2457
 4346TIP3   OH237232   0.151   1.775  17.346  0.0656 -0.0995 -0.0252
 4346TIP3    H137233   0.163   1.699  17.289  0.0030 -0.7008  0.7382
 4346TIP3    H237234   0.079   1.825  17.305  0.6338 -0.0202 -0.9601
 4347TIP3   OH237235   0.227   4.579  18.324 -0.2274  0.1004 -0.4454
 4347TIP3    H137236   0.146   4.529  18.314  0.6085 -1.6642  1.0316
 4347TIP3    H237237   0.224   4.612  18.414  1.0349 -0.6488 -0.1092
 4348TIP3   OH237238   2.981   5.914  18.694 -0.2866  0.3425 -0.4285
 4348TIP3    H137239   3.057   5.966  18.665 -0.5840  0.7068 -0.5592
 4348TIP3    H237240   2.905   5.963  18.663 -0.6141  0.7394  0.9468
 4349TIP3   OH237241   7.220   1.163  17.833  0.2654 -0.1172 -0.2376
 4349TIP3    H137242   7.286   1.227  17.807 -0.1008  0.0995 -0.6574
 4349TIP3    H237243   7.201   1.184  17.924  0.2034  0.3230 -0.3489
 4350TIP3   OH237244   4.120   5.534  19.314  0.0894 -0.0122  0.3019
 4350TIP3    H137245   4.144   5.543  19.407  2.0849 -1.0966 -0.0544
 4350TIP3    H237246   4.161   5.452  19.287 -0.5177  0.2586 -1.5339
 4351TIP3   OH237247   3.567   0.295  17.080 -0.3942  0.3325 -0.1539
 4351TIP3    H137248   3.574   0.389  17.098 -0.1365  0.5768 -1.4222
 4351TIP3    H237249   3.512   0.290  17.002  0.2733 -0.5234 -0.5763
 4352TIP3   OH237250   2.213   2.699  19.224 -0.7879  0.6102 -0.3980
 4352TIP3    H137251   2.251   2.761  19.161  0.3684 -0.6500 -0.9874
 4352TIP3    H237252   2.139   2.746  19.262 -0.6817  1.9025 -1.7092
 4353TIP3   OH237253   3.575   1.309  16.932  0.0916  0.1390  0.5127
 4353TIP3    H137254   3.615   1.364  16.864  2.4367  0.0421  1.6992
 4353TIP3    H237255   3.481   1.317  16.917  0.5003  0.3537 -2.5173
 4354TIP3   OH237256   5.684   1.630  18.724 -0.3742  0.4705  0.2567
 4354TIP3    H137257   5.760   1.685  18.744  0.1736 -0.0796 -0.2908
 4354TIP3    H237258   5.659   1.592  18.808  0.0648  0.5155  0.4074
 4355TIP3   OH237259   7.530   4.203  19.476 -0.0222 -0.0487  0.6445
 4355TIP3    H137260   7.562   4.159  19.398 -0.7530 -0.9454  0.8368
 4355TIP3    H237261   7.560   4.148  19.549  0.6455  0.7687  1.0104
 4356TIP3   OH237262   1.613   3.047  19.312 -0.1530  0.1982  0.1514
 4356TIP3    H137263   1.641   2.966  19.354 -0.0436 -0.4508 -1.1291
 4356TIP3    H237264   1.680   3.065  19.246 -0.5583  0.9266 -0.0836
 4357TIP3   OH237265   6.135   4.915  18.466 -0.0807 -0.0259  0.0469
 4357TIP3    H137266   6.178   4.835  18.436  0.0972 -0.1617  0.6447
 4357TIP3    H237267   6.094   4.952  18.388  1.5921  0.3990 -0.6579
 4358TIP3   OH237268   5.373   5.323  17.639  0.3150  0.0538 -0.5777
 4358TIP3    H137269   5.399   5.413  17.662 -2.1128  0.9641 -1.0991
 4358TIP3    H237270   5.319   5.294  17.712  0.1836 -0.5679 -0.9120
 4359TIP3   OH237271   0.315   5.451  17.651 -0.0892  0.3290  0.5967
 4359TIP3    H137272   0.401   5.420  17.625  0.1305  1.5723 -0.2184
 4359TIP3    H237273   0.310   5.432  17.745  1.1930  0.4990  0.7134
 4360TIP3   OH237274   6.366   2.774  19.344  0.1537 -0.1952 -0.1884
 4360TIP3    H137275   6.388   2.693  19.390 -0.0933  0.9539  2.1144
 4360TIP3    H237276   6.410   2.843  19.394 -1.8478  1.3450 -0.4177
 4361TIP3   OH237277   3.631   4.236  18.209  0.1438  0.1760  0.0243
 4361TIP3    H137278   3.706   4.255  18.152  1.1211 -0.9266  0.8813
 4361TIP3    H237279   3.610   4.320  18.250  2.1196  0.1944  1.1414
 4362TIP3   OH237280   3.020   3.559  18.072 -0.0467 -0.0104 -0.1427
 4362TIP3    H137281   3.093   3.588  18.017  0.3488 -0.2890  0.2249
 4362TIP3    H237282   3.026   3.615  18.150  1.4848 -1.8193  1.1492
 4363TIP3   OH237283   2.218   4.076  18.457 -0.4172 -0.1367 -0.3333
 4363TIP3    H137284   2.162   4.087  18.380 -1.1241 -1.6159 -0.0759
 4363TIP3    H237285   2.276   4.003  18.434 -1.0215 -0.9916  0.7017
 4364TIP3   OH237286   3.463   5.525  19.109  0.2746  0.3567  0.3263
 4364TIP3    H137287   3.484   5.502  19.200  0.4097 -1.5030 -0.1365
 4364TIP3    H237288   3.525   5.595  19.088  1.9691 -0.8644  0.9203
 4365TIP3   OH237289   2.722   5.503  18.874 -0.3973 -0.1879  0.0572
 4365TIP3    H137290   2.687   5.568  18.936  1.0872  0.0155  0.7253
 4365TIP3    H237291   2.670   5.516  18.795  0.3468  2.3831 -0.1001
 4366TIP3   OH237292   1.139   2.237  18.761  0.2888 -0.0396 -0.2818
 4366TIP3    H137293   1.140   2.295  18.685  0.5276  1.9340  1.1241
 4366TIP3    H237294   1.186   2.286  18.829 -1.0758 -1.1038  1.5362
 4367TIP3   OH237295   2.120   5.084  18.649 -0.0998  0.1116  0.4788
 4367TIP3    H137296   2.204   5.043  18.631 -0.5830 -0.3607 -0.8173
 4367TIP3    H237297   2.134   5.177  18.631  0.0045 -0.0472 -0.2920
 4368TIP3   OH237298   3.269   6.776  16.981  0.0859 -0.0161 -0.0910
 4368TIP3    H137299   3.343   6.796  16.924  0.6749 -3.5525 -0.8035
 4368TIP3    H237300   3.208   6.729  16.925 -1.1789 -0.1018  1.2966
 4369TIP3   OH237301   5.699   5.469  17.199 -0.3180  0.5787  0.4863
 4369TIP3    H137302   5.646   5.499  17.126 -0.2334 -0.5391 -0.0560
 4369TIP3    H237303   5.651   5.394  17.234  0.9531 -0.5732 -0.1270
 4370TIP3   OH237304   7.043   6.797  19.159  0.0972 -0.2200  0.1191
 4370TIP3    H137305   7.058   6.705  19.183 -1.5943 -1.2274 -2.3715
 4370TIP3    H237306   7.114   6.818  19.099 -0.8751 -0.7215 -1.2356
 4371TIP3   OH237307   4.839   6.507  18.411 -0.1973 -0.5299  0.5945
 4371TIP3    H137308   4.782   6.584  18.409  0.0275 -0.3692  0.0015
 4371TIP3    H237309   4.826   6.469  18.498  0.8758  1.0767  1.5291
 4372TIP3   OH237310   4.708   2.106  18.888  0.0605 -0.3015 -0.8670
 4372TIP3    H137311   4.748   2.191  18.908 -1.1479 -0.1250  1.0352
 4372TIP3    H237312   4.638   2.127  18.826 -2.5378  0.7836  2.1305
 4373TIP3   OH237313   0.452   2.313  19.613  0.2691  0.0170 -0.6796
 4373TIP3    H137314   0.529   2.364  19.640  0.7232 -0.7574 -0.4763
 4373TIP3    H237315   0.378   2.374  19.622  0.9223  0.9773 -1.4737
 4374TIP3   OH237316   5.969   7.353  18.045 -0.0186  0.4649  0.3371
 4374TIP3    H137317   5.916   7.384  17.972 -1.2291 -0.3248  0.8402
 4374TIP3    H237318   6.050   7.323  18.006 -1.0771 -0.9772 -0.8510
 4375TIP3   OH237319   1.776   6.489  17.258  0.0146 -0.1970 -0.0402
 4375TIP3    H137320   1.787   6.512  17.166  0.3736 -2.0636 -0.4958
 4375TIP3    H237321   1.832   6.551  17.305 -1.0189  1.5065 -0.9406
 4376TIP3   OH237322   4.288   3.398  17.688 -0.5205  0.3887 -0.0745
 4376TIP3    H137323   4.246   3.481  17.713 -1.9837  0.2146 -1.7383
 4376TIP3    H237324   4.263   3.337  17.757 -1.3698  0.7961 -0.0040
 4377TIP3   OH237325   2.708   5.500  18.347 -0.4198  0.3284 -0.1508
 4377TIP3    H137326   2.762   5.424  18.368 -0.0274  1.2973  2.7669
 4377TIP3    H237327   2.771   5.573  18.342 -1.1724  1.1118  1.2168
 4378TIP3   OH237328   6.144   2.984  18.178  0.5489 -0.0038 -0.1936
 4378TIP3    H137329   6.200   3.057  18.154 -0.6130  0.3528 -1.9698
 4378TIP3    H237330   6.200   2.907  18.169  0.9195  0.3891 -1.4526
 4379TIP3   OH237331   1.584   3.920  18.926  0.0713  0.2482 -0.3968
 4379TIP3    H137332   1.589   3.834  18.886 -1.1577 -0.2218  0.4243
 4379TIP3    H237333   1.600   3.904  19.019 -1.5069  0.6943 -0.0233
 4380TIP3   OH237334   7.076   2.330  19.369 -0.4990 -0.6566  0.1928
 4380TIP3    H137335   7.014   2.292  19.308 -1.9269  0.6120  0.7906
 4380TIP3    H237336   7.107   2.409  19.326  0.9933 -1.4476 -0.2408
 4381TIP3   OH237337   6.351   1.525  18.195 -0.2032 -0.3079  0.4939
 4381TIP3    H137338   6.406   1.595  18.230 -1.1613  1.0190 -0.5937
 4381TIP3    H237339   6.317   1.481  18.273  0.7469  0.1349  1.1900
 4382TIP3   OH237340   6.201   5.358  17.766 -0.2707 -0.2786  0.3114
 4382TIP3    H137341   6.164   5.437  17.727  0.4624  1.4945  2.9371
 4382TIP3    H237342   6.282   5.387  17.807  0.9758 -2.8296 -0.1743
 4383TIP3   OH237343   2.141   1.660  17.230  0.2653  0.1619  1.1446
 4383TIP3    H137344   2.162   1.661  17.136 -0.8221  0.1165  0.8900
 4383TIP3    H237345   2.115   1.570  17.248  0.0315  0.2773  1.3873
 4384TIP3   OH237346   5.162   0.714  17.065 -0.3424  0.3523 -0.2634
 4384TIP3    H137347   5.104   0.729  16.989 -1.4583  1.4239  0.7458
 4384TIP3    H237348   5.106   0.670  17.129 -0.2406  1.8412  0.9220
 4385TIP3   OH237349   0.298   2.467  17.643 -0.0718  0.8907 -0.5619
 4385TIP3    H137350   0.282   2.481  17.549  0.4128 -0.7249 -0.9211
 4385TIP3    H237351   0.234   2.400  17.667  1.2376 -0.2955 -0.2782
 4386TIP3   OH237352   6.869   6.578  18.146  0.1002 -0.2613 -0.1950
 4386TIP3    H137353   6.868   6.494  18.101 -0.0781 -0.0698 -0.5445
 4386TIP3    H237354   6.794   6.575  18.205  0.7302 -0.7898  0.6036
 4387TIP3   OH237355   0.241   6.089  16.827 -0.5584  0.2458  0.2562
 4387TIP3    H137356   0.219   5.996  16.834 -1.5222  0.0823 -3.0514
 4387TIP3    H237357   0.319   6.090  16.771 -1.6103  1.4069 -1.2769
 4388TIP3   OH237358   2.258   2.163  19.408  0.4997  0.4518 -0.0213
 4388TIP3    H137359   2.201   2.238  19.388  0.6081  0.2487 -1.1267
 4388TIP3    H237360   2.228   2.133  19.494  1.6702  2.8992  1.3578
 4389TIP3   OH237361   4.139   2.142  18.106  0.0102  0.4131  0.3182
 4389TIP3    H137362   4.119   2.048  18.101  0.6168  0.3208 -0.6112
 4389TIP3    H237363   4.091   2.172  18.183 -2.1250 -0.1836 -0.6905
 4390TIP3   OH237364   5.647   7.397  18.068  1.0138 -0.2866 -0.2689
 4390TIP3    H137365   5.679   7.412  18.158  1.4530 -0.2329 -0.4308
 4390TIP3    H237366   5.581   7.329  18.077 -0.1434  0.8638  0.3258
 4391TIP3   OH237367   0.498   4.630  18.315  0.1951 -0.1922  0.9456
 4391TIP3    H137368   0.405   4.616  18.294  0.0945  0.7848  0.7043
 4391TIP3    H237369   0.544   4.604  18.235 -0.0381  1.3867  0.2585
 4392TIP3   OH237370   1.488   1.148  18.774 -0.4582 -0.0845 -0.1115
 4392TIP3    H137371   1.459   1.070  18.726  2.3059 -1.1547 -0.2197
 4392TIP3    H237372   1.484   1.122  18.866 -0.5053  0.0084 -0.0869
 4393TIP3   OH237373   4.514   5.265  19.204 -0.1614 -0.2898  0.2298
 4393TIP3    H137374   4.535   5.250  19.112 -1.2949  0.3761 -0.1705
 4393TIP3    H237375   4.547   5.353  19.223 -1.8340  0.4674 -0.1989
 4394TIP3   OH237376   6.684   3.247  18.006 -0.0610 -0.1697 -0.0911
 4394TIP3    H137377   6.757   3.204  18.051  0.4521  0.0457 -0.6925
 4394TIP3    H237378   6.609   3.233  18.063  0.5151 -0.1275  0.7018
 4395TIP3   OH237379   3.174   2.534  19.212  0.0251  0.9045 -0.1110
 4395TIP3    H137380   3.145   2.529  19.303 -2.6865  3.1723 -0.7029
 4395TIP3    H237381   3.174   2.444  19.181 -0.2057  0.2120  1.7795
 4396TIP3   OH237382   3.577   5.886  18.070  0.5627  0.7434  0.0587
 4396TIP3    H137383   3.631   5.943  18.124  0.3951  0.7361  0.2334
 4396TIP3    H237384   3.487   5.910  18.091  0.4937  0.5701 -0.0345
 4397TIP3   OH237385   0.967   7.447  19.325  0.6066 -0.1119  0.2661
 4397TIP3    H137386   1.022   7.467  19.400  1.1394 -0.4530 -0.0248
 4397TIP3    H237387   0.943   7.533  19.290  1.2448  0.0444  0.1910
 4398TIP3   OH237388   1.461   2.215  17.839  0.2363  0.1297 -0.3032
 4398TIP3    H137389   1.551   2.213  17.873 -0.5162  0.1739  1.8246
 4398TIP3    H237390   1.414   2.151  17.892 -1.6720  2.2831  0.7928
 4399TIP3   OH237391   0.747   1.087  19.565  0.0130  0.2789  0.1710
 4399TIP3    H137392   0.815   1.062  19.502  0.3199 -0.9697  0.9664
 4399TIP3    H237393   0.792   1.143  19.627  0.1190  0.1307  0.2290
 4400TIP3   OH237394   1.058   0.388  18.735 -0.5075  0.1529  0.5102
 4400TIP3    H137395   1.061   0.337  18.815 -0.4489  0.0288  0.4300
 4400TIP3    H237396   1.076   0.325  18.665  2.7304  0.8122  0.5997
 4401TIP3   OH237397   2.480   7.231  16.708  0.0946  0.0917 -0.1477
 4401TIP3    H137398   2.470   7.184  16.625  1.1834 -0.6863  0.1476
 4401TIP3    H237399   2.558   7.284  16.695  0.9251 -0.8785  0.7528
 4402TIP3   OH237400   4.550   1.376  18.060 -0.5936  0.0033  0.2231
 4402TIP3    H137401   4.471   1.369  18.114 -0.8916 -0.8283 -0.3062
 4402TIP3    H237402   4.531   1.324  17.982 -0.2583  1.3745 -0.8148
 4403TIP3   OH237403   2.159   0.510  17.777 -0.5303  0.2917  0.3148
 4403TIP3    H137404   2.208   0.561  17.842 -0.3422 -1.4176  1.5709
 4403TIP3    H237405   2.071   0.503  17.813 -0.7270  0.2456 -0.1617
 4404TIP3   OH237406   2.844   0.931  17.492 -0.0887 -0.1000 -0.6691
 4404TIP3    H137407   2.763   0.961  17.450 -0.0242  0.3058 -0.5061
 4404TIP3    H237408   2.829   0.943  17.585  0.0092 -0.4076 -0.6132
 4405TIP3   OH237409   2.683   6.166  17.884 -0.6266  0.2557 -0.1558
 4405TIP3    H137410   2.678   6.235  17.817  0.2476  1.3822  0.8978
 4405TIP3    H237411   2.600   6.172  17.931 -0.8350  0.1251 -0.5044
 4406TIP3   OH237412   2.094   6.870  18.481 -0.2302 -0.2785  0.1202
 4406TIP3    H137413   2.092   6.793  18.425 -0.8304 -0.1424 -0.0545
 4406TIP3    H237414   2.105   6.836  18.570 -4.0451 -0.8694  0.5243
 4407TIP3   OH237415   6.576   3.146  18.576 -0.0290 -0.5345  0.2068
 4407TIP3    H137416   6.554   3.086  18.504 -0.1254 -0.5135  0.2200
 4407TIP3    H237417   6.581   3.090  18.653  0.5504 -0.6385  0.0998
 4408TIP3   OH237418   2.045   4.081  18.253  0.1494 -0.2896 -0.0096
 4408TIP3    H137419   2.066   4.057  18.163  0.2306 -1.2115  0.2357
 4408TIP3    H237420   2.000   4.165  18.247  0.6777 -0.0582 -0.8537
 4409TIP3   OH237421   2.769   3.241  18.310  0.7308 -0.1069  0.3650
 4409TIP3    H137422   2.773   3.146  18.299  5.0925 -0.1910  1.1063
 4409TIP3    H237423   2.843   3.274  18.258  1.2653  2.5467  2.5954
 4410TIP3   OH237424   1.667   1.262  19.262  0.1978  0.6227 -0.1079
 4410TIP3    H137425   1.679   1.182  19.314 -0.7490  0.2183 -0.4792
 4410TIP3    H237426   1.755   1.285  19.233  0.3515 -1.1084 -1.1845
 4411TIP3   OH237427   1.872   3.654  19.208  0.3252  0.0894 -0.0614
 4411TIP3    H137428   1.876   3.696  19.122  0.8514  0.2658  0.0481
 4411TIP3    H237429   1.782   3.667  19.236  0.0005 -0.4310 -0.8136
 4412TIP3   OH237430   5.410   3.662  19.135  0.2515 -0.3933 -0.1952
 4412TIP3    H137431   5.391   3.568  19.136  0.6439 -0.4711  0.6033
 4412TIP3    H237432   5.499   3.668  19.100  0.2440 -0.3232 -0.2024
 4413TIP3   OH237433   3.240   6.871  17.351 -0.3235 -0.1661 -0.4313
 4413TIP3    H137434   3.213   6.906  17.436 -0.7495 -1.4463 -0.0101
 4413TIP3    H237435   3.182   6.914  17.288  0.2188  1.0427 -0.1265
 4414TIP3   OH237436   5.660   3.400  18.298 -0.1232  0.0570  0.0566
 4414TIP3    H137437   5.709   3.323  18.329  0.5302  0.6586  0.5400
 4414TIP3    H237438   5.568   3.372  18.299 -0.1025 -0.1122  2.1080
 4415TIP3   OH237439   5.760   5.124  18.786 -0.2405  0.6404 -0.6859
 4415TIP3    H137440   5.789   5.056  18.725  2.3938  0.8187  0.2177
 4415TIP3    H237441   5.797   5.205  18.751  0.6824  0.8517  0.6676
 4416TIP3   OH237442   3.446   4.836  19.178  0.1408 -0.2717  0.1013
 4416TIP3    H137443   3.472   4.766  19.238 -0.6653 -0.7036 -0.0455
 4416TIP3    H237444   3.364   4.807  19.140  0.0921  0.4910 -0.4131
 4417TIP3   OH237445   4.643   0.081  18.856  0.3507  0.0647 -0.0467
 4417TIP3    H137446   4.617   0.094  18.947  0.2820  0.9284 -0.1832
 4417TIP3    H237447   4.694   0.000  18.857 -1.5991 -1.2438  0.3813
 4418TIP3   OH237448   7.587   3.904  18.006  0.1436  0.2617 -0.3661
 4418TIP3    H137449   7.537   3.942  17.934  1.8098  0.5483 -1.4193
 4418TIP3    H237450   7.653   3.970  18.027 -0.0026 -0.0245  1.1131
 4419TIP3   OH237451   1.464   5.800  19.272 -0.1186  0.0659  0.1213
 4419TIP3    H137452   1.547   5.833  19.305  0.9242 -0.3399 -1.9679
 4419TIP3    H237453   1.455   5.714  19.313  0.2263  0.3122  0.7363
 4420TIP3   OH237454   6.841   3.905  17.598  0.1170 -0.3673 -0.4190
 4420TIP3    H137455   6.785   3.968  17.643  0.0097 -0.1755 -0.8195
 4420TIP3    H237456   6.805   3.900  17.510  0.5684 -0.4431 -0.6012
 4421TIP3   OH237457   2.217   7.487  17.577 -0.5024  0.6366  0.3042
 4421TIP3    H137458   2.257   7.566  17.539 -1.0494  0.2570 -1.1160
 4421TIP3    H237459   2.278   7.417  17.554  0.5990  0.7755  2.6002
 4422TIP3   OH237460   1.125   3.043  17.951  0.3135  0.0438  0.0138
 4422TIP3    H137461   1.150   3.080  18.035  1.1601  2.6859 -1.2739
 4422TIP3    H237462   1.030   3.048  17.950  0.3564  2.3403 -0.0396
 4423TIP3   OH237463   0.766   5.884  16.921 -0.1892  0.4122 -0.5020
 4423TIP3    H137464   0.716   5.882  16.839 -0.1710 -0.8891 -0.5060
 4423TIP3    H237465   0.731   5.811  16.972 -0.5923  1.5343  0.9049
 4424TIP3   OH237466   5.136   0.613  19.095  0.4785  0.1431 -0.1668
 4424TIP3    H137467   5.048   0.624  19.130  0.1144 -1.0048 -0.6846
 4424TIP3    H237468   5.190   0.676  19.144 -0.5245  0.4938  0.5020
 4425TIP3   OH237469   4.335   4.597  18.551 -0.5190  0.7804 -0.6347
 4425TIP3    H137470   4.312   4.560  18.636  1.1709 -1.7023 -1.1737
 4425TIP3    H237471   4.417   4.644  18.567 -1.3211  2.2008 -0.5006
 4426TIP3   OH237472   5.064   2.123  16.970 -0.4555  0.2563  0.7004
 4426TIP3    H137473   5.047   2.192  17.034 -1.6963  0.5452  0.0931
 4426TIP3    H237474   5.151   2.089  16.993  0.0643  1.8330  1.1765
 4427TIP3   OH237475   2.896   3.722  17.383  0.1294 -0.1731  0.4488
 4427TIP3    H137476   2.918   3.632  17.408  1.6352  0.3600  1.1694
 4427TIP3    H237477   2.975   3.756  17.342 -1.2570  0.0126 -2.3657
 4428TIP3   OH237478   2.342   1.372  17.404  0.0283 -0.3166 -0.6544
 4428TIP3    H137479   2.322   1.311  17.333 -1.2930 -0.1046 -0.4851
 4428TIP3    H237480   2.386   1.445  17.361  1.3910 -1.2412 -0.8980
 4429TIP3   OH237481   6.333   1.348  19.016 -0.0179 -0.3660 -0.2584
 4429TIP3    H137482   6.328   1.430  18.966 -1.0178 -0.1759  0.1181
 4429TIP3    H237483   6.368   1.374  19.101  0.8361 -0.5399 -0.5546
 4430TIP3   OH237484   0.323   1.631  18.432 -0.4826 -0.0537  0.3369
 4430TIP3    H137485   0.322   1.578  18.511 -2.5259 -0.2543  0.2387
 4430TIP3    H237486   0.404   1.606  18.386  0.7616  0.1019  2.3328
 4431TIP3   OH237487   4.838   4.074  19.110  0.3720  0.0944 -0.2944
 4431TIP3    H137488   4.914   4.058  19.166  0.3867 -0.7825 -0.5569
 4431TIP3    H237489   4.874   4.120  19.034  0.4037  0.9737  0.2306
 4432TIP3   OH237490   4.569   6.927  18.398 -0.3748 -0.0100 -0.6346
 4432TIP3    H137491   4.636   6.893  18.338 -0.7644 -0.5087 -0.7970
 4432TIP3    H237492   4.616   6.986  18.457  0.3087 -0.7722 -0.4025
 4433TIP3   OH237493   0.284   1.992  18.751  0.2159 -0.0419 -0.2282
 4433TIP3    H137494   0.349   2.060  18.763 -0.2369  0.2306  0.8282
 4433TIP3    H237495   0.324   1.930  18.690  0.8357  0.8954 -0.7937
 4434TIP3   OH237496   2.576   5.854  19.474 -0.7380 -0.0689  0.1944
 4434TIP3    H137497   2.650   5.872  19.532 -0.8865  0.2949  0.2707
 4434TIP3    H237498   2.550   5.940  19.441  0.3563 -0.3954 -1.6653
 4435TIP3   OH237499   6.838   3.530  18.039 -0.4858  0.1947  0.6526
 4435TIP3    H137500   6.929   3.540  18.068 -0.1834  0.7230 -0.4289
 4435TIP3    H237501   6.820   3.437  18.048  0.9929 -0.3610 -1.4116
 4436TIP3   OH237502   0.663   6.745  18.755 -0.2224  0.1374 -0.5488
 4436TIP3    H137503   0.642   6.666  18.806  1.3483 -1.0578 -1.6699
 4436TIP3    H237504   0.745   6.777  18.794  0.2263  0.0395 -1.4081
 4437TIP3   OH237505   3.882   0.982  19.200 -0.1877  0.5814  0.6644
 4437TIP3    H137506   3.970   1.015  19.180 -0.5826  1.6392  0.6640
 4437TIP3    H237507   3.897   0.912  19.263  0.8727 -0.9761 -1.1896
 4438TIP3   OH237508   0.397   5.015  19.088 -0.2742  0.0213 -0.4817
 4438TIP3    H137509   0.368   4.976  19.171 -1.3843  0.6237 -0.5615
 4438TIP3    H237510   0.444   4.945  19.043 -1.9312 -1.1389 -0.4897
 4439TIP3   OH237511   2.340   6.832  19.018 -0.0385  0.1600  0.4008
 4439TIP3    H137512   2.345   6.739  19.040 -0.4595  0.1121  0.2975
 4439TIP3    H237513   2.277   6.868  19.080  0.1683  0.3903  0.4772
 4440TIP3   OH237514   3.848   4.452  17.702 -0.1532 -0.0830  0.1794
 4440TIP3    H137515   3.901   4.393  17.756  0.6545  0.2760 -0.1894
 4440TIP3    H237516   3.791   4.394  17.652 -0.7806 -0.4300  1.2626
 4441TIP3   OH237517   7.300   3.310  18.815 -0.5303  0.0178  0.0412
 4441TIP3    H137518   7.286   3.400  18.785 -1.3393  0.3358  1.3087
 4441TIP3    H237519   7.231   3.260  18.772 -0.8142  0.2157  0.2647
 4442TIP3   OH237520   0.685   2.257  18.946  0.2059  0.2733 -0.0791
 4442TIP3    H137521   0.740   2.239  18.869 -0.2371  0.0756 -0.3514
 4442TIP3    H237522   0.704   2.348  18.968 -1.1341  0.9885 -1.6401
 4443TIP3   OH237523   6.366   5.972  18.457 -0.3274  0.3580 -0.2776
 4443TIP3    H137524   6.436   5.941  18.515 -0.3302  0.9112  0.0340
 4443TIP3    H237525   6.369   5.914  18.381 -0.3721 -0.4277  0.3142
 4444TIP3   OH237526   6.439   0.545  17.186  0.2316  0.4237  0.0522
 4444TIP3    H137527   6.420   0.454  17.162  0.6879  0.3027  0.1433
 4444TIP3    H237528   6.423   0.594  17.106  0.5815  0.1795 -0.1713
 4445TIP3   OH237529   2.640   3.789  17.347  0.1711  0.2634 -0.4669
 4445TIP3    H137530   2.600   3.868  17.382  0.4200  1.6199 -2.9857
 4445TIP3    H237531   2.730   3.791  17.377 -0.4625 -0.5591  1.6973
 4446TIP3   OH237532   4.563   0.247  19.111 -0.6192 -0.0630 -0.0796
 4446TIP3    H137533   4.578   0.167  19.162 -0.5426 -0.3944 -0.6154
 4446TIP3    H237534   4.632   0.307  19.140 -0.4258 -0.3323  0.0287
 4447TIP3   OH237535   7.142   7.061  17.134 -0.0333  0.2137  0.3906
 4447TIP3    H137536   7.230   7.056  17.171  0.3175 -2.4888 -0.6336
 4447TIP3    H237537   7.153   7.112  17.054 -0.2958  3.6400  2.3404
 4448TIP3   OH237538   0.435   7.292  18.573 -0.1071 -0.4098 -0.2983
 4448TIP3    H137539   0.341   7.286  18.593 -0.3420 -1.3010 -1.5506
 4448TIP3    H237540   0.453   7.216  18.518  0.7082  1.2176 -2.4551
 4449TIP3   OH237541   0.547   4.518  18.048 -0.5030  0.3424  0.1616
 4449TIP3    H137542   0.481   4.499  17.982 -0.7226 -0.5696  0.6403
 4449TIP3    H237543   0.602   4.586  18.007 -1.0599  0.3093 -0.6664
 4450TIP3   OH237544   1.062   7.326  18.773 -0.4577 -0.1212 -0.5139
 4450TIP3    H137545   1.048   7.298  18.682  0.2273 -0.4670 -0.5179
 4450TIP3    H237546   1.157   7.333  18.781 -0.5638  2.6378 -0.6436
 4451TIP3   OH237547   1.848   4.586  18.221 -0.1412 -0.2593 -1.1275
 4451TIP3    H137548   1.859   4.648  18.294  0.6299 -1.7169  0.0523
 4451TIP3    H237549   1.753   4.585  18.205 -0.2528  0.5740 -0.6007
 4452TIP3   OH237550   6.625   2.363  18.390  0.4218 -0.2129 -0.5480
 4452TIP3    H137551   6.669   2.315  18.319 -0.2031 -2.5335  0.5225
 4452TIP3    H237552   6.603   2.448  18.351  1.2378 -0.9126 -2.7132
 4453TIP3   OH237553   1.280   7.317  18.934 -0.2700 -0.2391 -0.0300
 4453TIP3    H137554   1.357   7.260  18.933 -0.4037 -0.4213 -0.7382
 4453TIP3    H237555   1.212   7.266  18.978 -0.0231 -0.1254  0.4872
 4454TIP3   OH237556   1.592   6.787  16.632 -0.5697 -0.2023 -0.4688
 4454TIP3    H137557   1.561   6.781  16.722  1.1920 -1.5162  0.1044
 4454TIP3    H237558   1.531   6.732  16.582 -2.0830  1.2251 -0.2938
 4455TIP3   OH237559   7.376   7.349  17.336  0.0399  0.1251 -0.4302
 4455TIP3    H137560   7.329   7.266  17.341  1.6269 -0.7334  0.9806
 4455TIP3    H237561   7.394   7.360  17.242 -3.4258  0.8291 -1.1243
 4456TIP3   OH237562   4.719   5.302  18.362  0.3864 -0.4167 -0.3590
 4456TIP3    H137563   4.732   5.296  18.268  0.2799 -4.2049 -0.2707
 4456TIP3    H237564   4.625   5.292  18.375  0.6428 -2.7498  0.1643
 4457TIP3   OH237565   2.573   6.442  18.164 -0.2881  0.4462  0.2885
 4457TIP3    H137566   2.563   6.442  18.069  0.3332  1.8789  0.1995
 4457TIP3    H237567   2.659   6.402  18.179 -0.2712  0.4658  0.2446
 4458TIP3   OH237568   1.476   5.357  17.136 -0.1654  0.0101  0.5483
 4458TIP3    H137569   1.513   5.300  17.204  0.7258  0.6465  0.6091
 4458TIP3    H237570   1.551   5.405  17.101 -0.7365  0.2998 -0.3184
 4459TIP3   OH237571   0.409   7.211  19.387  0.2954  0.0574 -0.0261
 4459TIP3    H137572   0.450   7.257  19.313  0.0452 -0.8257 -0.7414
 4459TIP3    H237573   0.399   7.121  19.356 -1.1159 -0.0182  0.5530
 4460TIP3   OH237574   6.163   5.038  17.537  0.4036  0.6080 -0.2499
 4460TIP3    H137575   6.248   5.076  17.558  0.6674  1.0946 -2.0358
 4460TIP3    H237576   6.099   5.098  17.576  0.8595  0.7074  0.3504
 4461TIP3   OH237577   7.285   5.762  17.702 -0.4324  1.1864  0.1345
 4461TIP3    H137578   7.370   5.753  17.743  0.2063  0.5332 -1.2607
 4461TIP3    H237579   7.224   5.773  17.775  0.5973 -0.3027  1.2861
 4462TIP3   OH237580   2.222   7.553  19.390  0.1767 -0.1327  0.1979
 4462TIP3    H137581   2.179   7.596  19.316 -0.2188 -0.5658  0.1721
 4462TIP3    H237582   2.314   7.548  19.365  0.0816 -0.0656 -0.1631
 4463TIP3   OH237583   2.110   2.477  18.927  0.2097 -0.2782 -0.2367
 4463TIP3    H137584   2.054   2.555  18.919  0.2523 -0.3501 -1.4221
 4463TIP3    H237585   2.198   2.509  18.908  0.6924 -0.0605  2.1402
 4464TIP3   OH237586   6.949   4.366  16.622 -0.2054 -0.1289  0.2643
 4464TIP3    H137587   6.951   4.431  16.551  2.9631  0.2584  0.5981
 4464TIP3    H237588   7.013   4.300  16.596  1.0944  0.0545  2.7591
 4465TIP3   OH237589   6.521   1.277  17.668  0.3887  0.4692 -0.4433
 4465TIP3    H137590   6.527   1.237  17.755 -0.1113  0.7098 -0.2933
 4465TIP3    H237591   6.585   1.348  17.671  0.3966  0.4570 -0.2834
 4466TIP3   OH237592   6.999   6.894  16.898 -0.0114 -0.0311 -0.1637
 4466TIP3    H137593   6.954   6.910  16.981 -0.2468  1.3256 -0.5203
 4466TIP3    H237594   7.002   6.799  16.889 -2.0263 -0.1781  0.3056
 4467TIP3   OH237595   1.719   2.782  17.683 -0.1924  0.7738  0.3653
 4467TIP3    H137596   1.796   2.800  17.629  0.0764  1.7665  1.0656
 4467TIP3    H237597   1.694   2.867  17.720 -2.5835  0.8011 -1.0659
 4468TIP3   OH237598   2.252   0.951  17.088  0.5609  0.0239 -0.1533
 4468TIP3    H137599   2.332   0.899  17.091  0.7505  0.3255  0.0148
 4468TIP3    H237600   2.182   0.886  17.083  0.8886 -0.2249 -2.4450
 4469TIP3   OH237601   5.309   6.424  19.106  0.2668 -0.1697  0.1599
 4469TIP3    H137602   5.300   6.404  19.199  0.2125  0.7407  0.3651
 4469TIP3    H237603   5.297   6.340  19.061 -0.0280 -0.5578  0.9539
 4470TIP3   OH237604   2.303   2.919  19.508 -0.1445  0.2728 -0.1665
 4470TIP3    H137605   2.258   2.935  19.425  0.2513  0.2247 -0.3969
 4470TIP3    H237606   2.307   3.004  19.550 -1.5992  0.0614  0.4654
 4471TIP3   OH237607   7.677   6.463  18.230  0.1882 -0.3057  0.5285
 4471TIP3    H137608   7.667   6.389  18.169  0.6714 -0.2150  0.3369
 4471TIP3    H237609   7.660   6.540  18.176  1.2690 -0.1856  0.3404
 4472TIP3   OH237610   7.208   3.219  17.235  0.2903  0.8943  0.2002
 4472TIP3    H137611   7.202   3.192  17.143  2.8284 -0.8538  0.4453
 4472TIP3    H237612   7.230   3.138  17.282  0.2469  1.9823  2.1995
 4473TIP3   OH237613   7.550   5.365  16.809  0.4056 -0.6606 -0.3533
 4473TIP3    H137614   7.562   5.429  16.739 -1.7168  0.2089  0.0153
 4473TIP3    H237615   7.622   5.381  16.869  0.1418  1.1474 -0.4695
 4474TIP3   OH237616   3.263   0.493  19.045 -0.3639 -0.1466  0.2627
 4474TIP3    H137617   3.330   0.444  19.093 -0.4143  0.3420  0.8363
 4474TIP3    H237618   3.270   0.583  19.077 -0.0468  0.3150 -1.0273
 4475TIP3   OH237619   2.097   0.217  16.795  0.0100 -0.1271 -0.0986
 4475TIP3    H137620   2.067   0.294  16.747 -2.0527 -0.1488  1.0397
 4475TIP3    H237621   2.149   0.252  16.867 -1.2005  0.2866  0.6123
 4476TIP3   OH237622   2.965   5.587  18.358 -0.0046 -0.0831 -0.1047
 4476TIP3    H137623   3.030   5.630  18.303  0.2378 -0.3421 -0.0204
 4476TIP3    H237624   3.005   5.584  18.445  0.2576 -1.0718 -0.2474
 4477TIP3   OH237625   1.985   1.094  17.188 -0.1792  0.6860  0.1552
 4477TIP3    H137626   1.944   1.124  17.270  1.8899  1.7540  0.8762
 4477TIP3    H237627   2.021   1.008  17.209 -1.2066  0.1425 -0.2172
 4478TIP3   OH237628   5.451   5.990  17.619  0.2547 -0.0336 -0.0486
 4478TIP3    H137629   5.518   5.922  17.623 -0.1794 -0.5156 -0.7218
 4478TIP3    H237630   5.472   6.049  17.691  0.6572 -0.8583  0.5264
 4479TIP3   OH237631   4.046   7.259  18.321  0.3277 -0.0399 -0.2561
 4479TIP3    H137632   4.042   7.338  18.267 -0.3569  1.6549  2.1196
 4479TIP3    H237633   3.958   7.250  18.357  1.2387  0.2563  2.2937
 4480TIP3   OH237634   3.551   4.489  18.318 -0.6287  0.8714 -0.8693
 4480TIP3    H137635   3.561   4.580  18.289 -0.3545  0.9056 -0.6644
 4480TIP3    H237636   3.500   4.495  18.399  0.2802  0.9292 -0.2865
 4481TIP3   OH237637   6.448   3.747  18.223  0.3052 -0.4379 -0.0949
 4481TIP3    H137638   6.402   3.723  18.142  0.2890  1.9548 -0.8652
 4481TIP3    H237639   6.380   3.784  18.279  1.0090  2.2152 -0.8616
 4482TIP3   OH237640   5.870   2.390  18.423  0.0681  0.4622  0.2446
 4482TIP3    H137641   5.832   2.476  18.404  0.6427  0.1960 -2.7239
 4482TIP3    H237642   5.964   2.402  18.408 -0.1080 -1.2040 -3.2944
 4483TIP3   OH237643   4.631   2.536  19.110 -0.0045  0.1244 -0.3259
 4483TIP3    H137644   4.552   2.505  19.065 -0.0417  0.6182 -0.6076
 4483TIP3    H237645   4.609   2.532  19.203 -0.5065  0.6293 -0.4162
 4484TIP3   OH237646   6.097   4.699  19.164  0.0915 -0.3244  0.3475
 4484TIP3    H137647   6.042   4.624  19.140  2.0478 -1.6799 -0.1888
 4484TIP3    H237648   6.043   4.750  19.224 -1.1649 -2.4408  1.1475
 4485TIP3   OH237649   3.139   6.100  18.236 -0.5797  0.1656 -0.3261
 4485TIP3    H137650   3.078   6.142  18.175 -2.2171 -0.0585  1.0704
 4485TIP3    H237651   3.108   6.126  18.322  0.2393 -1.3930  0.4874
 4486TIP3   OH237652   6.271   5.681  19.518 -0.2467  0.1018  0.4790
 4486TIP3    H137653   6.179   5.679  19.542 -0.2152  1.6692  0.8006
 4486TIP3    H237654   6.318   5.654  19.597 -0.4070 -0.3618  0.4176
 4487TIP3   OH237655   5.539   7.574  18.730  0.3396  0.2903  0.4342
 4487TIP3    H137656   5.473   7.643  18.729  0.8885  0.8292 -0.3706
 4487TIP3    H237657   5.602   7.600  18.662 -0.2853 -1.8370 -1.0634
 4488TIP3   OH237658   2.120   6.030  18.638 -0.4536 -0.0959  0.4488
 4488TIP3    H137659   2.100   6.022  18.545 -0.1445 -1.9186  0.5027
 4488TIP3    H237660   2.216   6.036  18.641 -0.4524 -0.2111  0.6544
 4489TIP3   OH237661   3.914   0.399  16.513  0.6864  0.2934 -0.5191
 4489TIP3    H137662   3.958   0.314  16.501  1.2788  0.5415 -0.1935
 4489TIP3    H237663   3.978   0.463  16.482 -0.1624  0.5707 -1.7217
 4490TIP3   OH237664   2.441   3.729  16.558 -0.2366  0.2988  0.1983
 4490TIP3    H137665   2.504   3.664  16.526  0.9488  1.3943  0.2130
 4490TIP3    H237666   2.356   3.693  16.536  0.4528 -0.0923 -2.1295
 4491TIP3   OH237667   5.522   2.794  19.274 -0.2947 -0.0220 -0.1197
 4491TIP3    H137668   5.608   2.826  19.299  0.1625 -0.7549 -0.7075
 4491TIP3    H237669   5.482   2.765  19.356  0.6587 -1.1897 -0.0520
 4492TIP3   OH237670   0.232   2.331  19.080  0.0150 -0.2679 -0.3743
 4492TIP3    H137671   0.232   2.282  19.162 -0.2903  0.1640 -0.1146
 4492TIP3    H237672   0.278   2.274  19.018  0.1891 -0.6212  0.0779
 4493TIP3   OH237673   0.411   3.150  17.459  0.3794  0.2106  0.3493
 4493TIP3    H137674   0.328   3.155  17.507 -0.7660 -0.6576 -1.4353
 4493TIP3    H237675   0.449   3.237  17.469 -1.9238  1.4523 -0.7657
 4494TIP3   OH237676   4.273   6.595  18.098 -0.1234 -0.2572  0.5619
 4494TIP3    H137677   4.213   6.536  18.144 -0.5097 -0.3827 -0.0900
 4494TIP3    H237678   4.352   6.543  18.083 -0.7813 -0.9047 -0.7747
 4495TIP3   OH237679   6.441   6.977  18.693  0.0084  0.4726 -0.2909
 4495TIP3    H137680   6.405   7.062  18.669 -0.3181  0.1492 -0.9825
 4495TIP3    H237681   6.365   6.919  18.697  0.5741 -0.7541 -4.0415
 4496TIP3   OH237682   6.949   5.609  18.194  0.3328 -0.1688  0.2836
 4496TIP3    H137683   6.974   5.686  18.142  1.1185  0.8340  2.0387
 4496TIP3    H237684   7.018   5.545  18.176 -0.1721 -0.3987 -0.9697
 4497TIP3   OH237685   7.636   4.637  17.802  0.3352 -0.0135 -0.1416
 4497TIP3    H137686   7.563   4.578  17.817  2.3419 -2.9140 -0.8564
 4497TIP3    H237687   7.685   4.636  17.885 -0.1710  1.5884  0.2074
 4498TIP3   OH237688   3.595   2.587  18.247 -0.2458 -0.0215  0.0639
 4498TIP3    H137689   3.526   2.581  18.313 -0.4740 -0.1708 -0.1910
 4498TIP3    H237690   3.632   2.499  18.242 -0.9733 -0.2903 -0.8147
 4499TIP3   OH237691   2.042   0.439  16.317  0.5410 -0.0675  0.1068
 4499TIP3    H137692   1.976   0.379  16.282  0.4484 -0.5382  1.0598
 4499TIP3    H237693   2.020   0.524  16.280 -2.0932  0.3029  2.2427
 4500TIP3   OH237694   2.463   2.387  17.843  0.0262  0.1894 -0.1178
 4500TIP3    H137695   2.489   2.305  17.800 -1.3043 -0.3921  0.1412
 4500TIP3    H237696   2.444   2.362  17.933 -0.7344  0.7195 -0.1263
 4501TIP3   OH237697   5.985   6.696  16.718 -0.2312  0.3149  0.5453
 4501TIP3    H137698   6.064   6.657  16.754 -0.0700  1.8651  2.0074
 4501TIP3    H237699   5.924   6.623  16.710  0.7778 -0.6084  1.0136
 4502TIP3   OH237700   6.002   1.214  19.467 -0.1315 -0.2777  0.1342
 4502TIP3    H137701   5.959   1.266  19.533 -1.1379  0.7736 -1.2894
 4502TIP3    H237702   6.064   1.274  19.425  1.3045 -1.2263  0.8304
 4503TIP3   OH237703   2.667   3.599  18.726 -0.2391  0.2260  0.1472
 4503TIP3    H137704   2.646   3.668  18.663 -1.1831 -0.1079  0.0796
 4503TIP3    H237705   2.739   3.635  18.778 -0.4702  1.1101 -0.1277
 4504TIP3   OH237706   7.641   7.251  18.106 -0.2918 -0.1593  0.7242
 4504TIP3    H137707   7.646   7.181  18.041 -4.2787 -1.2559  1.3324
 4504TIP3    H237708   7.570   7.307  18.076  1.5106  2.6318  1.3048
 4505TIP3   OH237709   2.340   2.654  17.651 -0.3028  0.4789 -0.1240
 4505TIP3    H137710   2.302   2.619  17.571 -1.5249  1.2516  0.1045
 4505TIP3    H237711   2.434   2.637  17.642 -0.2719  1.4914 -2.1953
 4506TIP3   OH237712   1.275   5.120  19.193 -0.3965 -0.1490  0.0826
 4506TIP3    H137713   1.210   5.178  19.233  0.0401  0.9906 -0.8110
 4506TIP3    H237714   1.228   5.038  19.176 -1.2405  0.2134  0.6284
 4507TIP3   OH237715   0.564   4.194  19.503 -0.7442  0.2815 -0.2970
 4507TIP3    H137716   0.534   4.281  19.527  0.2190  0.0519  1.9869
 4507TIP3    H237717   0.497   4.135  19.537 -0.2143  0.0335  0.3493
 4508TIP3   OH237718   7.027   3.335  17.381 -0.0763 -0.1061  0.0895
 4508TIP3    H137719   7.078   3.287  17.316 -0.7746 -1.0196  0.1953
 4508TIP3    H237720   7.023   3.276  17.457  0.9416  1.0368  1.0771
 4509TIP3   OH237721   1.149   5.955  18.702 -0.0533  0.2297 -0.0141
 4509TIP3    H137722   1.169   5.871  18.742  0.1289 -1.0641 -2.6391
 4509TIP3    H237723   1.055   5.966  18.716 -0.5160 -1.4932 -1.4530
 4510TIP3   OH237724   1.918   5.288  19.201  0.0553  0.1720  0.1722
 4510TIP3    H137725   1.858   5.359  19.176 -2.3871 -1.3378  1.4255
 4510TIP3    H237726   1.872   5.239  19.268  1.9416 -2.2485 -0.1402
 4511TIP3   OH237727   5.660   4.558  19.174 -0.2711 -0.0782 -0.3116
 4511TIP3    H137728   5.625   4.475  19.206 -0.2466  0.6929  1.8669
 4511TIP3    H237729   5.590   4.621  19.187 -0.2577  0.2954 -1.8637
 4512TIP3   OH237730   1.498   4.979  18.931 -0.1899 -0.6493 -0.2215
 4512TIP3    H137731   1.441   4.977  18.854  1.3043 -0.9563 -1.3575
 4512TIP3    H237732   1.485   5.067  18.968  1.1355  0.5642 -2.4617
 4513TIP3   OH237733   2.601   3.430  18.360  0.2362 -0.0314  0.0795
 4513TIP3    H137734   2.574   3.432  18.268  1.5660 -0.1898 -0.3275
 4513TIP3    H237735   2.659   3.355  18.367 -0.0136 -0.1500  1.1148
 4514TIP3   OH237736   6.665   1.967  17.193  0.1417  0.1464 -0.0998
 4514TIP3    H137737   6.647   1.931  17.106 -1.3039 -1.4805  0.8016
 4514TIP3    H237738   6.724   2.041  17.177 -0.1080 -0.0861 -2.4456
 4515TIP3   OH237739   6.651   0.784  17.763  0.0658  0.1346  0.0147
 4515TIP3    H137740   6.649   0.717  17.694 -1.1301  0.1562  0.0114
 4515TIP3    H237741   6.572   0.768  17.814  0.2926  0.9232  0.6263
 4516TIP3   OH237742   0.156   2.400  18.664 -0.2717  0.0814  0.0377
 4516TIP3    H137743   0.114   2.333  18.719  0.3115 -0.9849 -0.7984
 4516TIP3    H237744   0.195   2.461  18.727 -1.9092  0.3805  0.8308
 4517TIP3   OH237745   4.323   6.470  18.502  0.2506  0.1401 -0.3030
 4517TIP3    H137746   4.319   6.563  18.479  0.6025 -0.0964 -1.4087
 4517TIP3    H237747   4.323   6.469  18.597 -0.5887  1.2305 -0.2633
 4518TIP3   OH237748   6.853   5.147  18.979 -0.5488  0.9129  0.3513
 4518TIP3    H137749   6.840   5.052  18.969  0.9479  0.7644 -0.6422
 4518TIP3    H237750   6.834   5.182  18.892  1.5223  1.1402 -0.0602
 4519TIP3   OH237751   3.427   6.770  18.744  0.2699  0.2217  0.1504
 4519TIP3    H137752   3.361   6.719  18.791 -0.8165  0.9146 -0.5758
 4519TIP3    H237753   3.380   6.848  18.713  1.1019  0.0926 -1.5410
 4520TIP3   OH237754   2.216   6.668  17.364 -0.1111  0.3668 -0.9820
 4520TIP3    H137755   2.233   6.722  17.442  0.8951  0.0855 -0.9885
 4520TIP3    H237756   2.215   6.731  17.292  1.8755  0.3410 -1.0967
 4521TIP3   OH237757   1.444   6.260  19.566 -0.6744  0.5933  0.3172
 4521TIP3    H137758   1.414   6.212  19.489 -1.9872  0.9129  0.5985
 4521TIP3    H237759   1.418   6.350  19.550 -0.5716  0.7398  0.9336
 4522TIP3   OH237760   2.724   4.539  18.948 -0.0501  0.3168  0.5993
 4522TIP3    H137761   2.696   4.623  18.913  0.0689  0.5873  1.1467
 4522TIP3    H237762   2.820   4.544  18.949 -0.0282  0.0199  0.2599
 4523TIP3   OH237763   4.425   5.919  18.032 -0.0029  0.5914  0.1577
 4523TIP3    H137764   4.399   6.011  18.025  0.2106  0.6544  0.1946
 4523TIP3    H237765   4.346   5.874  18.063 -0.2965  0.6615 -0.4778
 4524TIP3   OH237766   5.386   0.568  17.649  0.4217 -0.1752  0.2287
 4524TIP3    H137767   5.443   0.524  17.586  2.2198  1.1886  0.8090
 4524TIP3    H237768   5.382   0.509  17.724 -3.8238 -3.0774 -1.8688
 4525TIP3   OH237769   2.666   6.492  18.489  0.1169  0.2480  0.1451
 4525TIP3    H137770   2.671   6.420  18.551  2.0166  0.6466  0.5075
 4525TIP3    H237771   2.756   6.506  18.460 -0.6631  0.1645 -2.6281
 4526TIP3   OH237772   7.537   1.411  17.332 -0.4478 -0.0360 -0.1967
 4526TIP3    H137773   7.570   1.451  17.252 -0.3677  0.6923  0.1834
 4526TIP3    H237774   7.611   1.362  17.367 -0.3178  0.0880 -0.2982
 4527TIP3   OH237775   1.861   3.306  19.424 -1.1751  0.1749 -0.1856
 4527TIP3    H137776   1.766   3.307  19.424 -1.1862 -0.5804 -0.3146
 4527TIP3    H237777   1.886   3.390  19.463 -1.9038 -0.0122  0.7206
 4528TIP3   OH237778   4.704   3.696  18.330  0.3717 -0.3987 -0.4151
 4528TIP3    H137779   4.762   3.772  18.322 -0.3333  0.0100 -2.3032
 4528TIP3    H237780   4.683   3.674  18.239 -2.7946 -0.2135  0.1696
 4529TIP3   OH237781   4.220   6.074  17.512 -0.0600  0.0092  0.1883
 4529TIP3    H137782   4.184   6.163  17.511  0.1240  0.0997 -1.2444
 4529TIP3    H237783   4.267   6.067  17.594  0.8227  1.6214 -0.1535
 4530TIP3   OH237784   5.351   1.009  18.777  0.6995  0.1520 -0.2146
 4530TIP3    H137785   5.306   1.076  18.725 -1.2186 -0.6401  0.3482
 4530TIP3    H237786   5.285   0.976  18.837  1.2561 -2.8771 -1.0624
 4531TIP3   OH237787   1.131   6.847  18.779  0.0817  0.1004  0.3976
 4531TIP3    H137788   1.175   6.836  18.864 -1.3836  0.6804  1.2798
 4531TIP3    H237789   1.127   6.759  18.742 -0.4415 -0.3923  1.5668
 4532TIP3   OH237790   0.050   2.750  17.198 -0.2736  0.8853  0.3676
 4532TIP3    H137791   0.107   2.811  17.245  1.1924  0.2526 -0.5258
 4532TIP3    H237792   0.035   2.793  17.114  0.6345  0.1052 -0.2041
 4533TIP3   OH237793   4.064   0.600  18.394 -0.0112  0.2847 -0.2958
 4533TIP3    H137794   4.078   0.529  18.332 -0.3571 -0.7555  0.7830
 4533TIP3    H237795   4.146   0.650  18.391  0.6757 -0.7924 -0.2747
 4534TIP3   OH237796   3.987   6.563  18.858  0.1423  0.9688 -0.1820
 4534TIP3    H137797   3.914   6.562  18.796  2.1305 -0.2409 -2.6996
 4534TIP3    H237798   3.993   6.473  18.890  1.0672  0.8087 -0.7548
 4535TIP3   OH237799   1.240   1.557  16.684  0.0854 -0.6573 -0.1215
 4535TIP3    H137800   1.216   1.614  16.757  0.3027  0.3404 -0.8127
 4535TIP3    H237801   1.332   1.536  16.700  0.2573 -0.0817 -0.3371
 4536TIP3   OH237802   7.455   2.858  19.587  0.6329 -0.5445  0.3619
 4536TIP3    H137803   7.544   2.887  19.568 -0.3997  1.8050 -1.4150
 4536TIP3    H237804   7.438   2.788  19.524  0.0646  1.5147 -1.8995
 4537TIP3   OH237805   4.774   6.025  17.634  0.4371 -0.3278 -0.0128
 4537TIP3    H137806   4.772   5.953  17.696  1.8233  0.8352  1.4766
 4537TIP3    H237807   4.867   6.041  17.617  0.1349 -1.1692 -3.1732
 4538TIP3   OH237808   3.435   3.365  18.936 -0.0618  0.0193  0.3650
 4538TIP3    H137809   3.342   3.362  18.913  0.0988  0.5526 -0.4358
 4538TIP3    H237810   3.436   3.394  19.027 -0.6670  1.1930  0.0284
 4539TIP3   OH237811   5.059   3.821  16.996  0.0192 -0.0531 -0.2408
 4539TIP3    H137812   5.003   3.752  16.961  0.3583 -1.8378  2.5088
 4539TIP3    H237813   5.146   3.802  16.962 -0.0308 -0.5025 -0.1126
 4540TIP3   OH237814   5.826   0.318  17.708 -0.2876  0.4158  1.0264
 4540TIP3    H137815   5.811   0.382  17.638 -1.0527  0.7602  1.4861
 4540TIP3    H237816   5.920   0.319  17.722 -0.1620  0.5732  0.2160
 4541TIP3   OH237817   4.247   7.530  18.165  0.5354 -0.0883 -0.4459
 4541TIP3    H137818   4.178   7.465  18.152  0.5814 -0.3955  0.6970
 4541TIP3    H237819   4.202   7.615  18.159  0.0039 -0.2851  0.4233
 4542TIP3   OH237820   1.536   3.397  16.618  0.3288 -0.3196  0.0022
 4542TIP3    H137821   1.580   3.459  16.561  1.0620 -0.7194  0.1157
 4542TIP3    H237822   1.475   3.450  16.670 -1.1356 -0.0806 -1.8649
 4543TIP3   OH237823   6.055   7.409  19.189  0.3884 -0.1275  0.1977
 4543TIP3    H137824   6.018   7.324  19.166  1.9304 -1.3870  2.0237
 4543TIP3    H237825   5.982   7.470  19.182 -0.3466 -1.2024 -2.9653
 4544TIP3   OH237826   1.287   1.250  18.093 -0.5750  0.1835  0.9011
 4544TIP3    H137827   1.286   1.185  18.022  0.0681  0.9057  0.2035
 4544TIP3    H237828   1.331   1.205  18.165  1.7123  0.4175 -0.2238
 4545TIP3   OH237829   2.296   1.225  17.139  0.1471 -0.1679  0.5978
 4545TIP3    H137830   2.214   1.275  17.145  1.2160  1.6279  1.1114
 4545TIP3    H237831   2.269   1.137  17.112 -1.7852  0.8111 -0.9178
 4546TIP3   OH237832   2.822   6.641  19.553  0.3787 -0.6178  0.3613
 4546TIP3    H137833   2.756   6.691  19.505  0.9002  1.5098  1.7283
 4546TIP3    H237834   2.892   6.627  19.490 -0.1527 -0.3946 -0.2959
 4547TIP3   OH237835   0.008   0.755  18.736 -0.0096 -0.5004 -0.3533
 4547TIP3    H137836  -0.009   0.761  18.830  1.0264 -0.1247 -0.1798
 4547TIP3    H237837  -0.074   0.722  18.699 -0.5901 -0.1783  0.6157
 4548TIP3   OH237838   0.917   7.468  17.705 -0.2584 -0.3119  0.7539
 4548TIP3    H137839   0.920   7.377  17.735 -0.9878 -0.9475 -0.9923
 4548TIP3    H237840   0.968   7.468  17.624  2.1564  1.4811  2.1620
 4549TIP3   OH237841   0.866   6.011  18.786 -0.0296  0.3908  0.0476
 4549TIP3    H137842   0.816   5.975  18.713 -0.2074  2.2581 -0.7978
 4549TIP3    H237843   0.803   6.014  18.858 -0.3012 -0.0247 -0.1667
 4550TIP3   OH237844   5.626   6.386  17.166 -0.0137 -0.6197 -0.5606
 4550TIP3    H137845   5.614   6.350  17.078  1.4295 -0.2202 -0.9436
 4550TIP3    H237846   5.617   6.311  17.224  1.2304 -1.3220 -1.2264
 4551TIP3   OH237847   4.189   3.406  19.227  0.0220 -0.1253  0.3746
 4551TIP3    H137848   4.123   3.395  19.158  0.5372  0.9443 -0.3109
 4551TIP3    H237849   4.250   3.470  19.192  0.6224  0.0034  1.6049
 4552TIP3   OH237850   5.317   2.291  17.746  0.0140 -0.5002 -0.1095
 4552TIP3    H137851   5.318   2.374  17.792  1.4929 -1.3309  1.4524
 4552TIP3    H237852   5.240   2.296  17.689 -0.2382  1.6875  0.3419
 4553TIP3   OH237853   1.913   4.838  19.327 -0.2436  0.6080 -0.4457
 4553TIP3    H137854   1.960   4.913  19.291 -1.3768  1.6074  0.0905
 4553TIP3    H237855   1.981   4.785  19.369  0.4315  1.9721  0.2478
 4554TIP3   OH237856   4.217   3.637  17.340  0.6502  0.1278 -0.1268
 4554TIP3    H137857   4.235   3.687  17.261 -0.8062 -0.4159 -0.8397
 4554TIP3    H237858   4.126   3.659  17.362  0.7232 -0.4647  0.8416
 4555TIP3   OH237859   5.634   7.236  19.547  0.5482  0.2882 -0.3891
 4555TIP3    H137860   5.620   7.321  19.590 -0.3927 -0.4487  0.8352
 4555TIP3    H237861   5.554   7.187  19.564  0.6184 -0.4610 -2.0575
 4556TIP3   OH237862   5.510   6.106  19.349 -0.0415 -0.4891 -0.6767
 4556TIP3    H137863   5.553   6.068  19.425  0.6350 -0.7068 -1.1517
 4556TIP3    H237864   5.582   6.133  19.292 -0.5081  1.3059 -0.4604
 4557TIP3   OH237865   0.525   2.593  17.891 -0.3822  0.1848  0.1021
 4557TIP3    H137866   0.503   2.640  17.811  0.6325  0.4050 -0.0680
 4557TIP3    H237867   0.621   2.600  17.897 -0.0421 -2.7551 -0.4764
 4558TIP3   OH237868   3.308   3.950  17.854 -0.3592  0.7749  0.0873
 4558TIP3    H137869   3.246   3.878  17.844 -0.1513  0.6981 -0.7587
 4558TIP3    H237870   3.331   3.974  17.764  1.9714 -0.1747  0.3608
 4559TIP3   OH237871   2.773   6.261  18.901 -0.3812 -0.4764  0.8400
 4559TIP3    H137872   2.843   6.208  18.938 -0.6725 -1.4857  0.0298
 4559TIP3    H237873   2.709   6.270  18.972  0.5300  0.4080  1.5645
 4560TIP3   OH237874   6.294   5.981  17.870  0.8583  0.3870  0.7071
 4560TIP3    H137875   6.281   6.002  17.963  0.7722  1.7707  0.3904
 4560TIP3    H237876   6.208   5.993  17.830  0.5383 -1.6391  0.6805
 4561TIP3   OH237877   6.879   2.964  18.566 -0.1584  0.5441 -0.4778
 4561TIP3    H137878   6.935   2.987  18.491  2.1734 -0.6411  0.7641
 4561TIP3    H237879   6.796   2.937  18.527  1.2862 -0.9442 -2.7849
 4562TIP3   OH237880   0.884   6.307  19.580 -0.4798  0.7396  0.2052
 4562TIP3    H137881   0.843   6.327  19.496  0.9692 -0.0449 -0.7364
 4562TIP3    H237882   0.923   6.221  19.568 -0.2360  0.6121  1.6964
 4563TIP3   OH237883   4.709   6.146  18.651 -0.0413 -0.3635  0.2115
 4563TIP3    H137884   4.709   6.052  18.631  0.6273  0.0286 -2.0026
 4563TIP3    H237885   4.748   6.152  18.738  1.8561 -2.0447 -0.4310
 4564TIP3   OH237886   2.137   6.970  16.906 -0.5474 -0.0991 -0.0536
 4564TIP3    H137887   2.170   6.905  16.844 -1.8332 -1.8858  1.0398
 4564TIP3    H237888   2.211   7.029  16.919 -0.0179  0.0069 -2.7664
 4565TIP3   OH237889   0.225   1.451  18.069  0.2067 -0.2462  0.1715
 4565TIP3    H137890   0.288   1.442  17.996  2.4181 -0.6154  2.0144
 4565TIP3    H237891   0.189   1.363  18.080 -0.4525 -0.1012 -0.7013
 4566TIP3   OH237892   2.606   7.317  18.780 -0.5038  0.0084 -0.2469
 4566TIP3    H137893   2.684   7.311  18.835  0.1216  0.3288 -1.0722
 4566TIP3    H237894   2.542   7.259  18.821  0.4428 -0.8871 -0.0144
 4567TIP3   OH237895   5.582   3.395  18.719 -0.2037 -0.1451  0.0460
 4567TIP3    H137896   5.522   3.448  18.771  0.4947 -0.1463  0.8714
 4567TIP3    H237897   5.529   3.365  18.645 -1.6156 -1.2179  1.4152
 4568TIP3   OH237898   2.484   6.385  17.601 -0.4037 -0.2201 -0.2680
 4568TIP3    H137899   2.562   6.342  17.567 -0.2107  1.2987 -1.9050
 4568TIP3    H237900   2.415   6.363  17.539 -1.2456 -1.2787  0.9902
 4569TIP3   OH237901   5.420   4.969  18.661 -0.0258 -0.5827 -0.5522
 4569TIP3    H137902   5.400   5.013  18.579  1.9449  1.0045 -0.2658
 4569TIP3    H237903   5.450   4.882  18.636  1.4264  0.1913 -1.6344
 4570TIP3   OH237904   4.237   2.499  18.071 -0.4139  0.0329  0.3301
 4570TIP3    H137905   4.242   2.557  18.148  1.5955 -0.4546  0.6226
 4570TIP3    H237906   4.143   2.494  18.052 -0.9835  0.2966  2.6482
 4571TIP3   OH237907   6.889   5.313  19.748 -0.6079 -0.3360 -0.3436
 4571TIP3    H137908   6.794   5.326  19.748 -0.4598  0.9757 -1.0142
 4571TIP3    H237909   6.925   5.401  19.762  0.5110 -0.8408  0.1092
 4572TIP3   OH237910   2.548   7.470  18.021 -0.6821 -0.4035 -0.0252
 4572TIP3    H137911   2.504   7.404  18.074  1.3024 -0.0621  2.2288
 4572TIP3    H237912   2.595   7.524  18.084 -1.0132  2.2809 -1.9120
 4573TIP3   OH237913   3.250   5.991  16.884  0.7973 -0.7011  0.2616
 4573TIP3    H137914   3.219   6.079  16.862 -1.4154 -1.0726  1.6260
 4573TIP3    H237915   3.173   5.935  16.874  2.2209 -2.5976 -0.8675
 4574TIP3   OH237916   6.816   7.300  18.168  0.3507  0.1294 -0.1491
 4574TIP3    H137917   6.870   7.320  18.091  0.8925  0.8514  0.4009
 4574TIP3    H237918   6.799   7.386  18.208 -0.7092 -0.1521  0.0194
 4575TIP3   OH237919   7.580   5.728  18.674  0.1268  0.1833 -0.0684
 4575TIP3    H137920   7.583   5.661  18.605  1.9096  0.4086 -0.2710
 4575TIP3    H237921   7.506   5.703  18.729  1.5576 -2.8338  0.7066
 4576TIP3   OH237922   6.500   5.192  18.165  0.5069 -0.3888 -0.5887
 4576TIP3    H137923   6.448   5.112  18.158 -0.7479  0.0702  2.0968
 4576TIP3    H237924   6.438   5.258  18.196  1.9227  1.1674 -0.9264
 4577TIP3   OH237925   7.492   6.851  18.749 -0.3752  0.0608  0.3780
 4577TIP3    H137926   7.562   6.843  18.684 -1.3104 -4.0548 -0.3770
 4577TIP3    H237927   7.535   6.890  18.825  2.2594 -0.5299 -0.6906
 4578TIP3   OH237928   7.646   1.112  18.828  0.0806 -0.1626 -0.3734
 4578TIP3    H137929   7.707   1.038  18.826  0.6491  0.3038 -0.5091
 4578TIP3    H237930   7.576   1.087  18.767 -1.4246 -1.9980  1.9212
 4579TIP3   OH237931   5.566   3.481  17.238 -0.4716  0.1343 -0.0080
 4579TIP3    H137932   5.643   3.464  17.183  0.6211  1.2182  1.1335
 4579TIP3    H237933   5.590   3.557  17.291 -2.6050  0.9425 -0.1050
 4580TIP3   OH237934   7.533   6.908  17.068 -0.1290 -0.9304 -0.3946
 4580TIP3    H137935   7.611   6.941  17.023 -0.0663 -0.9114 -0.2718
 4580TIP3    H237936   7.563   6.890  17.157 -0.4383 -0.2261 -0.1418
 4581TIP3   OH237937   1.139   6.639  19.400 -0.3880  0.2876  0.0990
 4581TIP3    H137938   1.152   6.637  19.305  1.5289  0.3766  0.3228
 4581TIP3    H237939   1.208   6.584  19.435 -1.4001 -0.1899  1.4496
 4582TIP3   OH237940   2.596   0.386  19.494 -0.4219  0.0407 -0.7416
 4582TIP3    H137941   2.653   0.462  19.483 -0.1596 -0.1732 -0.8962
 4582TIP3    H237942   2.509   0.422  19.507 -0.4713  0.3542 -1.8195
 4583TIP3   OH237943   4.939   2.079  18.428 -0.2191 -0.1881 -0.0996
 4583TIP3    H137944   5.006   2.012  18.436  0.4843  0.5760  0.5847
 4583TIP3    H237945   4.879   2.063  18.501  0.0948  0.0845  0.2206
 4584TIP3   OH237946   6.521   2.931  19.489 -0.4015 -0.1272 -0.2120
 4584TIP3    H137947   6.566   3.012  19.464  0.0956  0.0248  1.1056
 4584TIP3    H237948   6.578   2.892  19.555 -1.7434 -0.4056  0.8316
 4585TIP3   OH237949   7.619   1.798  17.168  0.6211  0.0128  0.0844
 4585TIP3    H137950   7.619   1.856  17.091 -0.4775 -0.2088 -0.0966
 4585TIP3    H237951   7.628   1.710  17.131 -0.3823 -0.1313  0.1689
 4586TIP3   OH237952   2.318   6.856  18.742  0.6218  0.2784  1.1731
 4586TIP3    H137953   2.332   6.866  18.836 -1.1133  0.5977  1.4379
 4586TIP3    H237954   2.237   6.806  18.735  0.2124  1.0563 -0.1348
 4587TIP3   OH237955   1.547   7.531  18.821  0.3544  0.4697  0.5389
 4587TIP3    H137956   1.540   7.457  18.761  1.2564  0.8595 -0.0642
 4587TIP3    H237957   1.457   7.562  18.831 -0.1879 -1.2332  1.5178
 4588TIP3   OH237958   5.285   4.799  17.192 -0.2474 -0.2584 -0.5693
 4588TIP3    H137959   5.281   4.873  17.132  0.8383 -0.4934 -0.9532
 4588TIP3    H237960   5.359   4.747  17.161 -1.6321 -2.0833 -0.9794
 4589TIP3   OH237961   1.869   2.622  18.850  0.1559 -0.2890 -0.1041
 4589TIP3    H137962   1.854   2.531  18.875  0.2192  0.2185  2.0238
 4589TIP3    H237963   1.810   2.637  18.776 -0.3501 -1.8566 -0.0548
 4590TIP3   OH237964   4.492   5.065  17.792 -0.1156 -0.4484 -0.3342
 4590TIP3    H137965   4.508   5.134  17.856 -2.6809 -1.3769  1.4901
 4590TIP3    H237966   4.509   5.106  17.707  0.1285  1.8563  0.7553
 4591TIP3   OH237967   6.044   1.418  17.627  0.2842  0.2242  0.4918
 4591TIP3    H137968   6.105   1.346  17.642  1.4284  1.2996  1.2397
 4591TIP3    H237969   6.090   1.476  17.565 -0.6989  0.2374 -0.2591
 4592TIP3   OH237970   6.292   1.613  18.996 -0.2544 -0.4337  0.0741
 4592TIP3    H137971   6.299   1.644  19.087  0.5123 -1.0157  0.2239
 4592TIP3    H237972   6.308   1.691  18.943 -0.2372 -0.1837  0.4396
 4593TIP3   OH237973   4.711   0.648  17.438 -0.1292  0.2150 -0.2854
 4593TIP3    H137974   4.634   0.653  17.495 -0.0836  1.0113 -0.2757
 4593TIP3    H237975   4.780   0.693  17.487  0.1194  0.2272 -0.6440
 4594TIP3   OH237976   3.412   6.386  18.269 -0.2833  0.7353 -0.0447
 4594TIP3    H137977   3.483   6.409  18.330 -0.0762  1.6880 -0.6108
 4594TIP3    H237978   3.347   6.456  18.281  0.0125  1.2578 -1.2848
 4595TIP3   OH237979   6.316   6.251  18.708 -0.0681 -0.4245 -0.1751
 4595TIP3    H137980   6.297   6.221  18.797 -1.9102  0.2975 -0.2893
 4595TIP3    H237981   6.268   6.191  18.651  0.4043 -0.3536 -0.6640
 4596TIP3   OH237982   5.275   0.492  16.912 -0.1524 -0.2673  0.4363
 4596TIP3    H137983   5.244   0.549  16.983 -0.8410 -2.3576  1.8963
 4596TIP3    H237984   5.195   0.459  16.870  0.1619 -1.5812  0.8237
 4597TIP3   OH237985   7.424   1.349  17.760  0.4002  0.0087 -0.3844
 4597TIP3    H137986   7.469   1.339  17.844  0.3124 -0.5202 -0.3914
 4597TIP3    H237987   7.491   1.385  17.702  0.2308  1.1495  0.1080
 4598TIP3   OH237988   7.568   1.066  18.290 -0.3140  0.6150  0.0394
 4598TIP3    H137989   7.473   1.064  18.300 -0.4949 -0.0627 -1.5277
 4598TIP3    H237990   7.597   1.137  18.348 -1.4818 -0.7487  2.4558
 4599TIP3   OH237991   0.202   4.340  19.606 -0.1010 -0.5023  0.0731
 4599TIP3    H137992   0.249   4.266  19.643 -3.0973 -2.6316 -0.0388
 4599TIP3    H237993   0.144   4.302  19.540 -1.8036  1.9316  0.0288
 4600TIP3   OH237994   5.545   2.682  18.172 -0.7367  0.4629 -0.1133
 4600TIP3    H137995   5.635   2.713  18.167 -0.8753  0.8465 -0.2849
 4600TIP3    H237996   5.531   2.635  18.089 -0.7918  0.6738 -0.2243
 4601TIP3   OH237997   3.031   3.638  19.102 -0.3746 -0.4856 -0.0252
 4601TIP3    H137998   3.068   3.604  19.183 -0.0929 -0.2940 -0.0713
 4601TIP3    H237999   3.101   3.627  19.037  0.0779  1.0687  0.1750
 4602TIP3   OH238000   0.722   7.551  18.926 -0.5106  0.8636  0.1982
 4602TIP3    H138001   0.666   7.501  18.986  0.0232 -0.2129 -0.1777
 4602TIP3    H238002   0.690   7.527  18.839  0.5799  0.1715 -0.0244
 4603TIP3   OH238003   0.683   1.573  19.519 -0.0751  0.3574  0.6573
 4603TIP3    H138004   0.752   1.585  19.585 -0.2468  1.0007  0.7245
 4603TIP3    H238005   0.667   1.660  19.484 -1.1457  0.2867  0.9254
 4604TIP3   OH238006   0.950   6.138  17.643  0.1581 -0.3846 -0.0169
 4604TIP3    H138007   0.940   6.044  17.659  2.9633 -0.4398  2.1849
 4604TIP3    H238008   1.039   6.148  17.610 -0.2849  1.4941 -0.8170
 4605TIP3   OH238009   4.836   2.637  18.941  0.0807  0.0856 -0.5873
 4605TIP3    H138010   4.785   2.615  19.019 -1.7214  2.2660 -1.0382
 4605TIP3    H238011   4.919   2.671  18.976  1.0461 -2.8134  0.1776
 4606TIP3   OH238012   3.373   0.720  17.718  0.3652 -0.3076 -0.8763
 4606TIP3    H138013   3.301   0.717  17.654  0.4662  0.5009 -1.0408
 4606TIP3    H238014   3.405   0.810  17.713  1.6038 -0.7404 -1.0399
 4607TIP3   OH238015   5.213   6.728  16.182  0.0025  0.0210  0.4491
 4607TIP3    H138016   5.239   6.638  16.203  0.5266 -0.2772 -1.2948
 4607TIP3    H238017   5.290   6.781  16.204  0.9807 -0.4373 -1.6696
 4608TIP3   OH238018   1.325   5.145  17.758 -0.2540  0.0398 -0.3359
 4608TIP3    H138019   1.405   5.117  17.803  0.3396  0.4661 -1.1071
 4608TIP3    H238020   1.268   5.177  17.828  0.3859  0.0595  0.1864
 4609TIP3   OH238021   1.669   6.863  18.747 -0.0559  0.2277  0.2611
 4609TIP3    H138022   1.581   6.898  18.732  0.1902  0.8209  0.1801
 4609TIP3    H238023   1.722   6.899  18.675 -0.5445 -3.2239 -2.1040
 4610TIP3   OH238024   5.067   4.433  17.955 -0.6479 -0.1906 -0.2267
 4610TIP3    H138025   5.009   4.372  18.000 -2.5996  2.0735  0.5315
 4610TIP3    H238026   5.028   4.443  17.868 -1.4163  1.3004  0.2672
 4611TIP3   OH238027   4.610   6.271  17.752  0.6105 -0.1877 -0.0422
 4611TIP3    H138028   4.675   6.331  17.788  1.2760 -2.0599  2.1140
 4611TIP3    H238029   4.657   6.189  17.740 -0.9186 -1.0635 -0.2427
 4612TIP3   OH238030   0.720   2.024  19.148  0.1187 -0.4059 -0.0281
 4612TIP3    H138031   0.768   2.103  19.124  0.2393 -0.2295  0.7745
 4612TIP3    H238032   0.714   1.974  19.067 -1.7816  1.3752 -1.1094
 4613TIP3   OH238033   7.103   0.039  19.166 -0.5006  0.0277  0.5801
 4613TIP3    H138034   7.174   0.047  19.229 -0.5504 -0.9674  0.7845
 4613TIP3    H238035   7.040  -0.020  19.208 -0.7063 -0.3544 -0.2429
 4614TIP3   OH238036   6.140   2.026  16.782  0.0828  0.0342 -0.3537
 4614TIP3    H138037   6.119   1.935  16.762  1.6945 -0.4684  0.0633
 4614TIP3    H238038   6.201   2.052  16.713  0.5746  0.3817  0.1966
 4615TIP3   OH238039   3.952   4.945  17.030 -0.2502 -0.0119  0.0664
 4615TIP3    H138040   3.994   5.021  16.988  0.6572  0.3339  1.5153
 4615TIP3    H238041   3.902   4.903  16.960  0.4550  1.0636 -1.1221
 4616TIP3   OH238042   2.144   6.594  19.642  0.7677  0.7946  0.1219
 4616TIP3    H138043   2.074   6.551  19.593 -1.1082  2.2647  1.3751
 4616TIP3    H238044   2.218   6.534  19.634 -1.0977 -1.7196  0.1684
 4617TIP3   OH238045   2.512   1.042  17.636 -0.1877 -0.0996 -0.0464
 4617TIP3    H138046   2.538   1.097  17.562  0.6416 -0.0536  0.2752
 4617TIP3    H238047   2.481   0.961  17.595  2.1073 -0.8682 -0.4239
 4618TIP3   OH238048   5.043   2.477  19.160  0.0375 -0.4469 -0.3644
 4618TIP3    H138049   5.115   2.513  19.212  0.4374 -0.3197 -0.9923
 4618TIP3    H238050   5.086   2.420  19.096 -0.4893 -1.0234 -0.2163
 4619TIP3   OH238051   0.065   2.898  18.636  0.1828  0.3226  0.1418
 4619TIP3    H138052  -0.018   2.934  18.605 -1.0487 -0.1628  2.6482
 4619TIP3    H238053   0.080   2.821  18.580 -0.4393  1.0307 -1.0548
 4620TIP3   OH238054   0.053   0.098  16.836 -0.4301 -0.1558  0.1037
 4620TIP3    H138055   0.108   0.073  16.762 -2.2232  0.8455 -1.6693
 4620TIP3    H238056   0.115   0.130  16.902  1.2083 -0.4600 -1.2058
 4621TIP3   OH238057   5.098   1.326  18.169 -0.1663  0.4162  0.4856
 4621TIP3    H138058   5.030   1.259  18.182  3.2455 -3.0947  2.5294
 4621TIP3    H238059   5.142   1.300  18.088  1.0209  0.3212  1.1478
 4622TIP3   OH238060   6.375   4.765  18.640 -0.4290  0.4649  0.1459
 4622TIP3    H138061   6.316   4.787  18.712  0.1967  1.3789  0.3907
 4622TIP3    H238062   6.437   4.838  18.636 -0.2633  0.2806 -1.1124
 4623TIP3   OH238063   6.450   3.191  19.066  0.1030 -1.0541  0.7630
 4623TIP3    H138064   6.422   3.101  19.083 -1.4868 -0.7260  0.0268
 4623TIP3    H238065   6.479   3.223  19.151 -1.1788 -1.6481  1.4520
 4624TIP3   OH238066   1.085   4.226  19.737  0.2829  0.1497 -0.1059
 4624TIP3    H138067   1.027   4.301  19.723  0.6255  1.1772  3.1364
 4624TIP3    H238068   1.172   4.258  19.714  0.6497  1.3646  2.5872
 4625TIP3   OH238069   7.202   5.534  19.340 -0.1973 -0.0328  0.2390
 4625TIP3    H138070   7.267   5.560  19.275 -0.8320 -1.8610 -1.2365
 4625TIP3    H238071   7.160   5.615  19.366  0.4657  0.8223 -1.2169
 4626TIP3   OH238072   1.640   6.366  18.429 -0.4486  0.4448 -0.2813
 4626TIP3    H138073   1.658   6.456  18.400 -0.4733  0.5626  0.0679
 4626TIP3    H238074   1.717   6.316  18.401 -0.0584  0.7371  0.2497
 4627TIP3   OH238075   2.165   6.314  19.037 -0.7461  0.4607  0.0209
 4627TIP3    H138076   2.226   6.240  19.041  0.0028  1.0122 -0.8435
 4627TIP3    H238077   2.099   6.288  18.974  0.1214  0.9413 -1.1195
 4628TIP3   OH238078   1.145   4.017  18.155  0.5684 -0.2720 -0.7852
 4628TIP3    H138079   1.118   3.972  18.235  0.5766 -1.2577 -1.3159
 4628TIP3    H238080   1.115   4.107  18.167  0.2861 -0.4805  0.1860
 4629TIP3   OH238081   7.666   6.839  17.314 -0.1987 -0.1650 -0.4546
 4629TIP3    H138082   7.757   6.843  17.283 -0.3229 -0.0773 -0.8072
 4629TIP3    H238083   7.671   6.788  17.395  0.4160  1.3298  0.4889
 4630TIP3   OH238084   6.045   1.624  18.816 -0.1464 -0.3395 -0.2372
 4630TIP3    H138085   6.093   1.584  18.888 -0.5508 -1.4032 -0.5382
 4630TIP3    H238086   6.022   1.711  18.848 -0.8298 -0.9940  1.1533
 4631TIP3   OH238087   4.631   3.194  18.689 -0.2887  0.5272 -0.7378
 4631TIP3    H138088   4.627   3.173  18.595  1.0288 -1.2732 -0.4385
 4631TIP3    H238089   4.545   3.169  18.722  0.0953 -1.2999 -1.0347
 4632TIP3   OH238090   4.052   1.006  16.739  0.1838 -0.3637 -0.0297
 4632TIP3    H138091   4.004   1.087  16.721  2.5167  1.3862  1.0457
 4632TIP3    H238092   4.096   0.985  16.656 -0.5909 -0.6912 -0.3690
 4633TIP3   OH238093   7.573   1.948  17.866  0.2848  0.4939  0.3114
 4633TIP3    H138094   7.516   1.902  17.805  1.1485  0.4700 -0.5046
 4633TIP3    H238095   7.582   1.889  17.941 -0.4768  0.3586  0.3049
 4634TIP3   OH238096   3.112   6.817  18.402 -0.0026  0.1367 -0.4849
 4634TIP3    H138097   3.176   6.886  18.421 -0.8164  0.9942 -0.8076
 4634TIP3    H238098   3.079   6.838  18.315  0.0284 -0.9078 -0.7680
 4635TIP3   OH238099   2.902   4.241  18.989 -0.3207  0.1954  0.5317
 4635TIP3    H138100   2.807   4.249  18.981 -0.3041  2.1188  1.7636
 4635TIP3    H238101   2.919   4.246  19.083  1.0760  0.9090  0.2646
 4636TIP3   OH238102   4.030   4.347  18.663 -0.3296  0.0231 -0.4325
 4636TIP3    H138103   4.106   4.327  18.718 -0.6845 -1.2211 -0.3628
 4636TIP3    H238104   3.958   4.361  18.725 -0.7687 -1.5435 -0.5382
 4637TIP3   OH238105   0.382   5.810  18.788  0.2863 -0.6600  0.3511
 4637TIP3    H138106   0.440   5.734  18.796  0.7280 -0.4441 -0.6329
 4637TIP3    H238107   0.307   5.778  18.736  1.1432 -0.0930 -1.3057
 4638TIP3   OH238108   1.511   7.170  17.804  0.4270  0.7396 -0.2907
 4638TIP3    H138109   1.471   7.189  17.719 -1.8237 -0.5038  0.3849
 4638TIP3    H238110   1.562   7.091  17.790 -1.1742 -0.3486 -0.2138
 4639TIP3   OH238111   1.155   6.578  19.127  0.3407  0.2114 -0.5686
 4639TIP3    H138112   1.168   6.484  19.138 -0.2891  0.1777 -0.0708
 4639TIP3    H238113   1.125   6.589  19.037 -1.8756 -0.3256  0.0517
 4640TIP3   OH238114   2.505   0.492  17.825  0.1332  0.0473 -0.2413
 4640TIP3    H138115   2.451   0.468  17.900 -0.0563 -0.2706 -0.4740
 4640TIP3    H238116   2.549   0.410  17.800 -0.1743  0.0358 -0.7690
 4641TIP3   OH238117   0.731   1.459  18.146 -0.6577  0.3295 -0.0588
 4641TIP3    H138118   0.822   1.465  18.174 -0.5603 -0.7577 -0.1124
 4641TIP3    H238119   0.732   1.486  18.054 -0.6501  1.8272  0.3544
 4642TIP3   OH238120   0.222   3.810  18.535  0.1156 -0.5557 -0.2767
 4642TIP3    H138121   0.140   3.762  18.542  1.3446 -2.7663  0.0547
 4642TIP3    H238122   0.212   3.864  18.457 -1.4799 -1.0833 -0.4729
 4643TIP3   OH238123   0.526   5.368  17.274 -0.0893  0.2441 -0.6836
 4643TIP3    H138124   0.537   5.365  17.179 -1.7916 -1.1483 -0.8891
 4643TIP3    H238125   0.587   5.436  17.303  0.5905  0.5848 -2.7384
 4644TIP3   OH238126   2.477   5.201  19.154 -0.5582 -0.1346  0.1582
 4644TIP3    H138127   2.466   5.195  19.249  2.9139  0.2172  0.7228
 4644TIP3    H238128   2.453   5.114  19.122  1.5896 -1.4716  1.8962
 4645TIP3   OH238129   1.661   0.715  18.421  0.3872  0.2116 -0.2327
 4645TIP3    H138130   1.597   0.786  18.408  0.5137  0.1981 -0.9474
 4645TIP3    H238131   1.672   0.710  18.516 -1.1869 -0.2513 -0.0543
 4646TIP3   OH238132   5.314   5.427  16.964  0.0202  0.2554 -0.0737
 4646TIP3    H138133   5.373   5.482  16.913 -0.8231  0.7542 -0.5305
 4646TIP3    H238134   5.238   5.412  16.907 -0.7377  0.4382  0.8480
 4647TIP3   OH238135   2.954   3.816  17.910 -0.1414  0.3419 -0.2331
 4647TIP3    H138136   2.968   3.848  17.999  0.7178 -0.7944  0.0621
 4647TIP3    H238137   3.035   3.771  17.888 -0.2539  0.8000 -1.6901
 4648TIP3   OH238138   6.732   4.679  18.785 -0.3642 -0.0361 -0.1264
 4648TIP3    H138139   6.803   4.741  18.770 -0.9544  0.8554  0.6492
 4648TIP3    H238140   6.708   4.692  18.876 -1.0472 -0.8397 -0.1805
 4649TIP3   OH238141   7.368   2.549  18.944  0.2935 -0.3209  0.2184
 4649TIP3    H138142   7.375   2.638  18.909 -0.9503  0.2365  1.2807
 4649TIP3    H238143   7.316   2.502  18.879  0.6356 -0.1674 -0.1677
 4650TIP3   OH238144   4.280   6.439  18.781 -0.0440  0.1146 -0.3911
 4650TIP3    H138145   4.287   6.460  18.874  1.4931  0.3300 -0.5371
 4650TIP3    H238146   4.345   6.370  18.767 -1.6256 -1.3608 -0.9276
 4651TIP3   OH238147   4.474   7.081  18.066  0.0245  0.4135  0.7534
 4651TIP3    H138148   4.536   7.020  18.027 -0.8860  0.7532 -1.4072
 4651TIP3    H238149   4.529   7.143  18.114  1.1757 -0.5049  0.6721
 4652TIP3   OH238150   5.443   3.846  17.695  0.2407  0.7096 -0.4622
 4652TIP3    H138151   5.494   3.907  17.749  1.6257 -0.0627 -0.8384
 4652TIP3    H238152   5.355   3.849  17.732  0.6536  1.7685  0.5009
 4653TIP3   OH238153   4.255   2.107  19.144 -0.5123  0.2392  0.4675
 4653TIP3    H138154   4.216   2.194  19.149 -0.9308  0.0387  0.7886
 4653TIP3    H238155   4.349   2.123  19.133 -0.7306  0.7298 -0.8258
 4654TIP3   OH238156   4.864   2.444  17.675  0.1986  0.1470 -0.1487
 4654TIP3    H138157   4.770   2.425  17.673 -0.0016  0.9475  0.7291
 4654TIP3    H238158   4.883   2.460  17.768  1.6403 -2.0170  0.0247
 4655TIP3   OH238159   7.502   3.167  19.386  0.0965  0.4841 -0.1863
 4655TIP3    H138160   7.443   3.160  19.310 -1.6472 -2.6106  1.2423
 4655TIP3    H238161   7.448   3.205  19.455  0.4158 -0.3446  0.5403
 4656TIP3   OH238162   6.223   5.045  17.863  0.1832  0.1380 -0.0326
 4656TIP3    H138163   6.220   5.117  17.800 -2.0633 -0.1485 -0.3420
 4656TIP3    H238164   6.257   4.971  17.813  1.0363  0.5720 -0.1250
 4657TIP3   OH238165   4.886   2.865  17.426 -0.0572  0.3486  0.5387
 4657TIP3    H138166   4.913   2.899  17.341  1.5833  3.9742  2.2893
 4657TIP3    H238167   4.790   2.872  17.425 -0.1974 -1.0894 -1.4543
 4658TIP3   OH238168   3.853   4.358  18.064  0.2985  0.6364  0.1870
 4658TIP3    H138169   3.919   4.333  18.000  0.6646  0.4886  0.6172
 4658TIP3    H238170   3.870   4.451  18.081 -0.3577  0.9067 -0.5823
 4659TIP3   OH238171   0.084   6.218  19.279  0.2278  1.0643  0.3552
 4659TIP3    H138172   0.099   6.310  19.297  0.9708  1.2150 -0.8880
 4659TIP3    H238173   0.140   6.171  19.341  0.0456  1.4501  0.8148
 4660TIP3   OH238174   7.458   1.490  19.122 -0.1106  0.1944  0.2303
 4660TIP3    H138175   7.378   1.529  19.087 -1.9506 -2.6117  0.9214
 4660TIP3    H238176   7.465   1.406  19.077  1.0260 -0.6917  1.9371
 4661TIP3   OH238177   3.694   5.951  18.960  0.1459 -0.2339  0.4337
 4661TIP3    H138178   3.656   5.954  19.048  1.3027 -1.4968  0.9923
 4661TIP3    H238179   3.780   5.991  18.969 -0.1729  0.6984 -0.3967
 4662TIP3   OH238180   1.938   4.805  17.457  0.0404  0.7817 -0.0734
 4662TIP3    H138181   2.016   4.806  17.512  0.5659 -1.8107 -0.6487
 4662TIP3    H238182   1.871   4.762  17.511 -0.0789  0.2073 -0.6713
 4663TIP3   OH238183   0.264   7.306  17.936 -0.1853 -0.2238  0.2133
 4663TIP3    H138184   0.340   7.293  17.993  0.4555  0.4445 -0.4599
 4663TIP3    H238185   0.231   7.392  17.960  2.4392  1.9033 -2.9510
 4664TIP3   OH238186   6.819   6.784  18.970  0.3477 -0.4882 -0.3012
 4664TIP3    H138187   6.755   6.841  19.012  0.3456  1.0965 -2.2622
 4664TIP3    H238188   6.889   6.775  19.034 -1.3405 -1.4639  1.5151
 4665TIP3   OH238189   1.365   0.974  19.172  0.1567  0.4234 -0.1718
 4665TIP3    H138190   1.270   0.982  19.159  0.5015  1.4325 -2.7411
 4665TIP3    H238191   1.396   0.928  19.094  1.7987 -0.0945  0.7311
 4666TIP3   OH238192   4.340   0.753  19.357  0.5769 -0.0882  0.2914
 4666TIP3    H138193   4.356   0.665  19.324  0.1796 -0.0168 -0.0955
 4666TIP3    H238194   4.391   0.758  19.438 -0.1164 -0.9953  0.8023
 4667TIP3   OH238195   5.300   6.974  17.240  0.6299  0.2012  0.6146
 4667TIP3    H138196   5.332   6.898  17.192  0.1132  0.6724 -0.5224
 4667TIP3    H238197   5.270   7.034  17.172 -0.3042  0.8227  1.5437
 4668TIP3   OH238198   3.313   1.845  18.543 -0.3542  0.2447 -0.0571
 4668TIP3    H138199   3.320   1.752  18.522 -3.5618 -0.3533  0.9324
 4668TIP3    H238200   3.348   1.851  18.633 -2.1940 -0.5128  0.7568
 4669TIP3   OH238201   2.686   1.395  17.370 -0.3409  0.4824  0.2968
 4669TIP3    H138202   2.668   1.384  17.277 -0.6114 -2.0522  0.5698
 4669TIP3    H238203   2.624   1.462  17.399 -0.5708  0.9706 -1.2391
 4670TIP3   OH238204   6.647   1.395  19.577 -0.1609  0.1979  0.5338
 4670TIP3    H138205   6.736   1.378  19.544  0.3398  0.8631  1.5080
 4670TIP3    H238206   6.624   1.481  19.542  0.5492  1.1098  2.2234
 4671TIP3   OH238207   1.401   3.807  19.364 -0.6154  0.1560 -0.2021
 4671TIP3    H138208   1.332   3.745  19.386 -1.4409  0.5832 -1.5060
 4671TIP3    H238209   1.428   3.783  19.275  0.8265  0.0835  0.2253
 4672TIP3   OH238210   0.899   2.872  16.589 -0.3652 -0.3024 -0.0510
 4672TIP3    H138211   0.951   2.908  16.517  0.2606 -0.7584  0.1632
 4672TIP3    H238212   0.963   2.825  16.644 -0.8575 -0.1006  0.7120
 4673TIP3   OH238213   3.722   5.184  17.633  0.2732  0.1202  0.0117
 4673TIP3    H138214   3.759   5.164  17.719  0.8718  0.2168 -0.2145
 4673TIP3    H238215   3.688   5.273  17.641 -1.7274 -0.6694  0.8045
 4674TIP3   OH238216   2.444   6.125  18.049 -0.0027 -0.0098 -0.0290
 4674TIP3    H138217   2.389   6.203  18.039  0.3271 -0.0640 -3.5240
 4674TIP3    H238218   2.385   6.051  18.032  0.1027 -0.4596  1.4046
 4675TIP3   OH238219   5.551   6.515  16.721 -0.4420  0.4051 -0.0543
 4675TIP3    H138220   5.524   6.434  16.763  0.2662  0.4088  0.4281
 4675TIP3    H238221   5.485   6.531  16.653 -0.2659 -0.8905 -0.5574
 4676TIP3   OH238222   1.665   2.360  17.169 -0.2210  0.0196  0.3022
 4676TIP3    H138223   1.731   2.429  17.176 -0.5273  0.1453  2.7604
 4676TIP3    H238224   1.591   2.391  17.222 -1.2282 -1.2434 -0.3063
 4677TIP3   OH238225   2.983   7.169  18.622  0.1025 -0.0485  0.4960
 4677TIP3    H138226   3.060   7.113  18.631  1.2811  1.6115  1.1336
 4677TIP3    H238227   3.008   7.252  18.662 -1.5644  0.9889 -0.4754
 4678TIP3   OH238228   2.115   3.813  19.127  0.3983  0.2431  0.6738
 4678TIP3    H138229   2.033   3.828  19.080  0.1809  0.4804  1.1241
 4678TIP3    H238230   2.181   3.801  19.058  0.0100  0.1785  0.3124
 4679TIP3   OH238231   6.324   7.545  17.728 -0.1167  0.6991 -0.8011
 4679TIP3    H138232   6.282   7.562  17.812 -0.0944 -2.0826 -0.1001
 4679TIP3    H238233   6.251   7.543  17.665 -0.8299 -1.5757 -0.0221
 4680TIP3   OH238234   6.872   1.476  17.452  0.1235 -0.1308 -0.0253
 4680TIP3    H138235   6.824   1.483  17.370  0.2422  2.7735  0.0541
 4680TIP3    H238236   6.804   1.473  17.520  0.0073  1.3014 -0.0561
 4681TIP3   OH238237   7.042   6.271  19.184  0.1838 -0.2497  0.7427
 4681TIP3    H138238   6.968   6.309  19.137  1.5519  0.9723 -0.5107
 4681TIP3    H238239   7.053   6.184  19.145 -0.2545 -0.2387  0.5884
 4682TIP3   OH238240   5.352   5.303  18.176 -0.6744 -0.2928  0.3463
 4682TIP3    H138241   5.279   5.351  18.216 -1.6851 -1.3836 -0.1178
 4682TIP3    H238242   5.354   5.333  18.085 -0.5763 -0.2900  0.3498
 4683TIP3   OH238243   0.790   2.665  17.846  0.2341  0.1551  0.1372
 4683TIP3    H138244   0.876   2.679  17.806  0.1336  0.4970  0.0362
 4683TIP3    H238245   0.767   2.751  17.882  0.8519 -0.3981  1.9580
 4684TIP3   OH238246   6.609   0.518  17.967  0.1755  0.3748 -0.8073
 4684TIP3    H138247   6.638   0.442  17.916  0.4884  1.2552 -1.9836
 4684TIP3    H238248   6.676   0.584  17.952  0.6054  0.4912  1.2708
 4685TIP3   OH238249   2.585   5.326  17.767 -0.6466 -0.9167 -0.7557
 4685TIP3    H138250   2.587   5.360  17.857 -0.2748 -0.5298 -0.9071
 4685TIP3    H238251   2.556   5.399  17.714  0.9359 -0.5673 -1.1856
 4686TIP3   OH238252   3.994   6.722  18.478  0.2527 -0.1876 -0.6454
 4686TIP3    H138253   3.943   6.802  18.462  2.4721  1.6037  0.5115
 4686TIP3    H238254   4.084   6.747  18.456  1.1415 -2.1092  0.5947
 4687TIP3   OH238255   4.922   4.493  18.632 -0.6813  0.0339  0.2811
 4687TIP3    H138256   4.957   4.415  18.590 -0.7743  0.0240  0.2234
 4687TIP3    H238257   4.827   4.479  18.635 -0.5163 -0.9977  2.5324
 4688TIP3   OH238258   7.118   3.832  17.613  0.1115 -0.2617 -0.0852
 4688TIP3    H138259   7.032   3.872  17.597  0.3763  0.3992  0.1125
 4688TIP3    H238260   7.123   3.826  17.709  0.5882  0.3803 -0.0660
 4689TIP3   OH238261   4.305   4.036  17.840 -0.0042  0.6418  0.0875
 4689TIP3    H138262   4.240   4.068  17.902 -0.6932 -0.2527 -0.1389
 4689TIP3    H238263   4.255   3.982  17.779  1.0129 -0.4444  0.1736
 4690TIP3   OH238264   3.941   7.403  18.881 -0.1543  0.3062  0.1970
 4690TIP3    H138265   3.880   7.363  18.819  1.0140 -0.3980 -0.5328
 4690TIP3    H238266   3.984   7.473  18.831 -0.0178  0.4724  0.5444
 4691TIP3   OH238267   6.499   2.026  18.704 -0.2501  0.5592 -0.2629
 4691TIP3    H138268   6.506   2.118  18.680 -0.3708  0.5193 -0.4568
 4691TIP3    H238269   6.489   1.980  18.620  0.2093  0.3326 -0.1955
 4692TIP3   OH238270   0.787   6.930  17.251  0.0732  0.2028  0.1626
 4692TIP3    H138271   0.814   7.003  17.195  0.6835 -0.4649 -0.4339
 4692TIP3    H238272   0.783   6.855  17.192 -0.2005 -0.3278  0.8429
 4693TIP3   OH238273   3.283   1.952  18.059  0.2441  0.2914  1.0781
 4693TIP3    H138274   3.231   1.949  18.140  0.0002  1.8966  1.0118
 4693TIP3    H238275   3.232   2.008  18.000 -0.1236 -1.7202 -0.6203
 4694TIP3   OH238276   5.630   5.714  19.291  0.1833  0.0607 -0.4004
 4694TIP3    H138277   5.559   5.727  19.229  0.8634 -0.5669 -1.3323
 4694TIP3    H238278   5.709   5.712  19.238  0.8658  0.3658  0.5775
 4695TIP3   OH238279   5.842   2.970  18.636  0.3622  0.1173 -0.0860
 4695TIP3    H138280   5.913   2.965  18.573 -0.4814  2.8319 -1.4311
 4695TIP3    H238281   5.869   2.914  18.708  1.5687 -2.7956 -2.6110
 4696TIP3   OH238282   3.482   4.462  18.984  0.3613  0.2524  0.2096
 4696TIP3    H138283   3.491   4.406  18.907  1.5036  0.7909 -0.0677
 4696TIP3    H238284   3.571   4.471  19.017 -0.0084  0.7118  1.1191
 4697TIP3   OH238285   2.219   2.953  18.563 -0.3437 -0.4051  0.3243
 4697TIP3    H138286   2.223   3.037  18.517 -0.1656  0.0569  1.1461
 4697TIP3    H238287   2.128   2.946  18.592 -1.0222 -1.7353 -1.9179
 4698TIP3   OH238288   2.683   4.443  18.562 -0.3113  0.1562 -0.6734
 4698TIP3    H138289   2.754   4.385  18.534 -1.0342 -2.0587  1.7168
 4698TIP3    H238290   2.716   4.485  18.641 -0.6701  1.3028 -1.1108
 4699TIP3   OH238291   3.162   0.481  18.771 -0.8269  0.4632  0.1555
 4699TIP3    H138292   3.201   0.498  18.857 -0.1809  0.3480 -0.1082
 4699TIP3    H238293   3.235   0.490  18.710 -0.5172 -2.7127 -0.0973
 4700TIP3   OH238294   6.468   6.650  18.033 -0.2483  0.2880  0.2319
 4700TIP3    H138295   6.526   6.625  18.105  0.0635 -0.1350 -0.1700
 4700TIP3    H238296   6.384   6.610  18.056 -0.8070  2.0489  1.5390
 4701TIP3   OH238297   6.586   1.127  19.643 -0.3623  0.2652 -0.1952
 4701TIP3    H138298   6.599   1.219  19.665  1.1578 -0.4611  2.4130
 4701TIP3    H238299   6.509   1.101  19.692 -0.6570  0.0822 -0.7484
 4702TIP3   OH238300   5.312   4.266  18.039 -0.1859  0.4108 -0.4897
 4702TIP3    H138301   5.224   4.290  18.066 -0.5868 -1.4936  0.0432
 4702TIP3    H238302   5.306   4.173  18.016  0.8305  1.0841 -4.1208
 4703TIP3   OH238303   0.993   6.472  18.287  0.2088 -0.5755  0.1169
 4703TIP3    H138304   1.041   6.553  18.273  1.3187 -1.2267  0.1044
 4703TIP3    H238305   0.901   6.499  18.287  0.5768  0.7457  0.5820
 4704TIP3   OH238306   7.612   4.373  18.616  0.2146 -0.8313 -0.5817
 4704TIP3    H138307   7.686   4.398  18.560 -0.2873  2.8895  0.1497
 4704TIP3    H238308   7.541   4.356  18.555  0.0301  1.8669 -1.2306
 4705TIP3   OH238309   3.828   2.795  18.761 -0.4250 -0.3892 -0.1218
 4705TIP3    H138310   3.795   2.868  18.709  2.0584  0.8840 -0.0508
 4705TIP3    H238311   3.897   2.757  18.708 -0.5068 -1.5899  0.5981
 4706TIP3   OH238312   5.385   4.981  19.156  0.1533  0.0480  0.7194
 4706TIP3    H138313   5.383   5.076  19.152  2.0212  0.0786 -1.6334
 4706TIP3    H238314   5.469   4.961  19.197  0.5612 -0.5797 -0.4060
 4707TIP3   OH238315   1.790   1.081  17.827 -0.0645 -0.4654  0.2864
 4707TIP3    H138316   1.862   1.145  17.822  0.5473 -1.2159 -0.8293
 4707TIP3    H238317   1.827   1.001  17.790 -1.5895 -0.7822 -0.6231
 4708TIP3   OH238318   4.913   5.151  16.705  0.2266  0.5833  0.0913
 4708TIP3    H138319   4.830   5.194  16.725  0.5007  1.1871 -0.0491
 4708TIP3    H238320   4.937   5.184  16.618  0.8088  0.7275  0.3012
 4709TIP3   OH238321   6.105   7.342  17.797 -0.1265  0.0042 -0.6847
 4709TIP3    H138322   6.021   7.389  17.796 -1.1096 -1.5653  1.2183
 4709TIP3    H238323   6.092   7.269  17.736 -0.4994 -0.7266  0.2381
 4710TIP3   OH238324   7.028   0.686  18.197 -0.0949 -0.0571 -0.2351
 4710TIP3    H138325   7.089   0.700  18.125 -0.5538  0.9428 -0.4492
 4710TIP3    H238326   6.963   0.626  18.162  0.2709 -0.4222 -0.2949
 4711TIP3   OH238327   2.303   5.074  17.583 -0.1303 -0.4018  0.3292
 4711TIP3    H138328   2.293   4.988  17.624  0.0192 -0.0700  1.0761
 4711TIP3    H238329   2.395   5.096  17.598  0.5837 -1.2858 -2.2153
 4712TIP3   OH238330   2.261   0.870  18.141 -0.3862 -0.3022 -0.3621
 4712TIP3    H138331   2.319   0.946  18.142 -0.2323 -0.4177 -0.4265
 4712TIP3    H238332   2.175   0.906  18.121 -0.6923  0.1237  1.4895
 4713TIP3   OH238333   7.413   5.666  19.194 -0.3982  0.1466 -0.4583
 4713TIP3    H138334   7.394   5.745  19.245  1.4246 -0.0575  0.6212
 4713TIP3    H238335   7.508   5.666  19.184 -0.5333 -0.9523 -2.0609
 4714TIP3   OH238336   7.405   3.196  17.556 -0.0315  0.2471 -0.0833
 4714TIP3    H138337   7.475   3.222  17.496  1.4933  0.3182  1.6133
 4714TIP3    H238338   7.345   3.271  17.557  1.0541  1.1496  0.0724
 4715TIP3   OH238339   1.640   0.506  17.276 -0.5617  0.6917  0.3003
 4715TIP3    H138340   1.649   0.592  17.317 -0.4132  1.2984 -0.9592
 4715TIP3    H238341   1.727   0.487  17.241 -0.5115 -0.1285  0.8502
 4716TIP3   OH238342   4.487   3.722  16.807  0.1555 -0.1233 -0.1434
 4716TIP3    H138343   4.433   3.722  16.729  0.4346 -1.2429 -0.3523
 4716TIP3    H238344   4.446   3.786  16.865 -1.0936 -0.5812 -0.4896
 4717TIP3   OH238345   6.481   5.737  17.390 -0.0635 -0.2237  0.0644
 4717TIP3    H138346   6.418   5.665  17.388 -1.4463  0.9246  0.2630
 4717TIP3    H238347   6.429   5.815  17.370  1.2434  0.8195  0.5428
 4718TIP3   OH238348   6.865   1.475  18.863  0.8788 -0.0218  0.1782
 4718TIP3    H138349   6.909   1.480  18.778 -1.2385 -0.9924 -1.0468
 4718TIP3    H238350   6.934   1.496  18.926  2.5433  0.6637 -1.7442
 4719TIP3   OH238351   5.169   5.378  18.651  0.0736  0.5112  0.2208
 4719TIP3    H138352   5.166   5.302  18.594 -0.7656 -0.7874  1.8971
 4719TIP3    H238353   5.243   5.361  18.710  0.9286  1.8194 -0.4340
 4720TIP3   OH238354   7.589   7.123  19.568 -0.0647 -0.5322  0.4313
 4720TIP3    H138355   7.588   7.216  19.589  0.1931 -0.8932  2.2611
 4720TIP3    H238356   7.513   7.088  19.613 -0.3368 -1.1713 -0.5029
 4721TIP3   OH238357   3.073   4.322  17.648 -0.3268 -0.2142  0.0121
 4721TIP3    H138358   3.089   4.370  17.567 -1.1501  1.5725  0.8665
 4721TIP3    H238359   3.067   4.230  17.620  0.7513  0.1938 -1.7380
 4722TIP3   OH238360   3.556   0.468  19.155 -0.5701 -0.0785 -0.0205
 4722TIP3    H138361   3.537   0.498  19.244  0.8040 -1.2925  0.7411
 4722TIP3    H238362   3.593   0.544  19.111 -1.5820  0.6297  0.3224
 4723TIP3   OH238363   4.946   3.236  19.178  0.0791  0.6723 -0.2830
 4723TIP3    H138364   5.010   3.244  19.249  1.1614  1.9050 -1.3380
 4723TIP3    H238365   4.898   3.156  19.198  2.1393 -0.4722  0.4166
 4724TIP3   OH238366   4.829   1.511  17.867  0.0933  0.8522  0.7076
 4724TIP3    H138367   4.842   1.425  17.909 -2.1079  0.1711  0.1213
 4724TIP3    H238368   4.855   1.497  17.776 -0.1989  0.8315  0.6275
 4725TIP3   OH238369   5.057   2.495  17.371  0.0094  0.3133 -0.1735
 4725TIP3    H138370   5.043   2.452  17.287  2.0968  1.6586 -1.3209
 4725TIP3    H238371   5.150   2.481  17.390  0.0672  1.7864  0.8452
 4726TIP3   OH238372   3.294   4.641  18.930 -0.4055 -0.0064 -0.0920
 4726TIP3    H138373   3.350   4.564  18.936 -1.0036 -0.4644 -0.2132
 4726TIP3    H238374   3.261   4.653  19.019  0.9461  1.0946  0.2867
 4727TIP3   OH238375   0.178   4.048  17.325  0.2579  0.0938 -0.3676
 4727TIP3    H138376   0.213   4.116  17.382  0.2277 -0.4463  0.3136
 4727TIP3    H238377   0.239   4.045  17.251  0.0740  1.0747 -0.5703
 4728TIP3   OH238378   7.406   3.174  17.823 -0.7362  0.3045  0.1731
 4728TIP3    H138379   7.321   3.203  17.856 -1.5197  1.1403 -2.3554
 4728TIP3    H238380   7.396   3.175  17.727  0.6571 -3.9883 -0.2084
 4729TIP3   OH238381   7.475   5.062  18.958 -0.1777  0.2802  0.0414
 4729TIP3    H138382   7.546   5.036  19.017 -1.4490  1.3100  2.1274
 4729TIP3    H238383   7.406   5.094  19.016 -1.6704  0.9796 -2.0130
 4730TIP3   OH238384   3.848   3.255  17.432  0.0972 -0.1512 -0.4125
 4730TIP3    H138385   3.926   3.258  17.488  0.2313 -0.6698 -0.5623
 4730TIP3    H238386   3.830   3.346  17.411 -0.6558  0.1696  1.4402
 4731TIP3   OH238387   7.197   2.552  19.271 -0.4314  1.1088 -0.5298
 4731TIP3    H138388   7.231   2.496  19.201 -0.2928  1.3298 -0.6398
 4731TIP3    H238389   7.176   2.635  19.227 -1.1662  0.9558 -0.4790
 4732TIP3   OH238390   0.193   7.052  18.038 -0.3186 -0.4263  0.1112
 4732TIP3    H138391   0.144   7.015  17.965 -1.2998  0.7563  0.1539
 4732TIP3    H238392   0.231   7.133  18.003 -0.2807 -0.1713  0.7322
 4733TIP3   OH238393   6.610   6.600  18.660  0.2533  0.1478  1.1006
 4733TIP3    H138394   6.607   6.509  18.631  2.3024 -0.0764  1.4490
 4733TIP3    H238395   6.566   6.600  18.745 -3.5791  0.3602 -0.6658
 4734TIP3   OH238396   1.620   4.925  18.304 -0.0411 -0.1680  0.1380
 4734TIP3    H138397   1.538   4.971  18.322  0.1204  0.2943 -0.2948
 4734TIP3    H238398   1.630   4.864  18.377 -0.3998  0.2787  0.5615
 4735TIP3   OH238399   5.718   6.274  16.918 -0.3753  0.0923 -0.4679
 4735TIP3    H138400   5.650   6.242  16.858 -0.9174  0.4144 -0.0421
 4735TIP3    H238401   5.798   6.231  16.889 -0.9582 -1.1697 -0.2932
 4736TIP3   OH238402   5.584   2.088  18.042  0.2471  0.5964  0.4030
 4736TIP3    H138403   5.675   2.108  18.059  0.6999  1.2992 -2.3368
 4736TIP3    H238404   5.535   2.157  18.086  1.1771  1.4846  0.0649
 4737TIP3   OH238405   3.357   1.376  18.333  0.0195 -0.7189  0.5149
 4737TIP3    H138406   3.416   1.440  18.293 -1.1728 -0.2574 -0.6167
 4737TIP3    H238407   3.375   1.381  18.426 -0.6084  1.9325  0.5777
 4738TIP3   OH238408   3.223   0.777  18.668  0.1045 -0.1702  0.3901
 4738TIP3    H138409   3.135   0.815  18.665  1.2350  2.6423 -1.7056
 4738TIP3    H238410   3.234   0.735  18.582  0.0227 -2.7049  1.5342
 4739TIP3   OH238411   1.920   0.939  17.482  0.2863 -0.8681 -0.2723
 4739TIP3    H138412   2.011   0.966  17.475 -0.3853  1.3420 -1.2689
 4739TIP3    H238413   1.912   0.866  17.421  0.6124  1.3137 -3.1266
 4740TIP3   OH238414   6.818   4.084  18.951  0.3555  0.0547 -0.2247
 4740TIP3    H138415   6.824   4.178  18.967 -1.0844  0.9637 -3.9361
 4740TIP3    H238416   6.901   4.061  18.909  0.1474 -0.0003 -0.6087
 4741TIP3   OH238417   2.873   2.301  18.499  0.3051 -0.8707 -0.1634
 4741TIP3    H138418   2.814   2.364  18.458 -2.0215 -1.9538  1.2960
 4741TIP3    H238419   2.915   2.351  18.569 -0.3385 -0.5296 -0.0052
 4742TIP3   OH238420   6.667   6.760  18.430  0.3795 -0.7082  0.4950
 4742TIP3    H138421   6.650   6.727  18.518 -0.8413  0.7156  0.8392
 4742TIP3    H238422   6.762   6.777  18.429  0.7746 -2.6534  0.8029
 4743TIP3   OH238423   2.240   5.638  16.871 -0.4273 -0.2884  0.5013
 4743TIP3    H138424   2.206   5.570  16.929 -0.9056 -1.4415 -1.0450
 4743TIP3    H238425   2.169   5.652  16.808  0.0169  1.0241  0.2726
 4744TIP3   OH238426   4.227   1.171  19.230  0.1176 -1.0237  0.1358
 4744TIP3    H138427   4.216   1.187  19.137 -0.5701 -1.1843  0.1787
 4744TIP3    H238428   4.277   1.246  19.262 -0.3792 -0.5310 -0.2115
 4745TIP3   OH238429   2.381   6.314  18.381  0.9242 -0.5281  0.0693
 4745TIP3    H138430   2.366   6.340  18.472 -0.2166  1.7574 -0.7200
 4745TIP3    H238431   2.441   6.379  18.347  0.5543 -0.7849 -1.1051
 4746TIP3   OH238432   2.603   0.749  19.033 -0.9501 -0.4083 -0.1712
 4746TIP3    H138433   2.679   0.722  18.981 -1.0525  1.1325 -1.1729
 4746TIP3    H238434   2.634   0.747  19.124  0.6963  1.3440 -0.6387
 4747TIP3   OH238435   3.785   5.153  19.160 -0.2519 -0.5476 -0.3706
 4747TIP3    H138436   3.817   5.241  19.180  1.2926 -1.2605  0.5050
 4747TIP3    H238437   3.733   5.163  19.081 -0.8275  1.2905  0.2044
 4748TIP3   OH238438   0.599   1.398  19.306 -0.0278 -0.4375  0.1747
 4748TIP3    H138439   0.665   1.434  19.245 -0.7699 -0.0318 -0.4064
 4748TIP3    H238440   0.612   1.448  19.386 -2.8285  3.3040 -1.3969
 4749TIP3   OH238441   7.421   0.018  17.636  0.4166  0.0159  0.9416
 4749TIP3    H138442   7.516   0.027  17.626  0.3236  1.0923  0.9627
 4749TIP3    H238443   7.411  -0.025  17.721  0.9193 -1.5867  0.2275
 4750TIP3   OH238444   6.637   2.955  17.632  0.5850  0.1120  0.1395
 4750TIP3    H138445   6.673   3.037  17.599 -1.9607  1.3967  0.3027
 4750TIP3    H238446   6.543   2.962  17.617  0.1280 -2.2253  1.3875
 4751TIP3   OH238447   6.165   4.647  17.493  0.2340 -0.1390  0.4550
 4751TIP3    H138448   6.081   4.651  17.448 -0.2403 -2.1925  1.0710
 4751TIP3    H238449   6.224   4.603  17.432  0.3648 -0.3448  0.7272
 4752TIP3   OH238450   0.836   7.209  18.866 -0.7754  0.3731  0.4605
 4752TIP3    H138451   0.918   7.242  18.829 -1.0297 -0.0317 -0.4916
 4752TIP3    H238452   0.768   7.263  18.827 -0.9338  1.1104  1.7192
 4753TIP3   OH238453   5.512   7.589  17.951  0.0708  0.1012  0.4374
 4753TIP3    H138454   5.495   7.656  18.017  0.2720 -0.1155  0.7108
 4753TIP3    H238455   5.569   7.526  17.995 -1.1379 -0.9258  0.6086
 4754TIP3   OH238456   2.329   3.514  19.061 -0.2072  0.4388 -0.3664
 4754TIP3    H138457   2.396   3.462  19.018 -0.5628  0.9904 -1.6514
 4754TIP3    H238458   2.317   3.590  19.003  0.7993  2.3371  1.7736
 4755TIP3   OH238459   6.715   7.553  18.484 -0.4599  0.0009  0.2031
 4755TIP3    H138460   6.703   7.612  18.409 -0.8295 -0.5325 -0.1605
 4755TIP3    H238461   6.648   7.486  18.474 -1.1579  0.4539  1.5470
 4756TIP3   OH238462   7.529   6.963  19.022  0.1217  0.4403  0.3346
 4756TIP3    H138463   7.605   6.905  19.018 -0.7480 -0.7539  0.6412
 4756TIP3    H238464   7.547   7.020  19.097  0.3746 -0.3536  0.8924
 4757TIP3   OH238465   1.258   7.654  17.794 -0.0766 -0.2384  0.1604
 4757TIP3    H138466   1.251   7.650  17.698  0.0737  1.7828  0.0236
 4757TIP3    H238467   1.345   7.691  17.809 -0.1694 -0.3891  1.0730
 4758TIP3   OH238468   3.925   3.527  19.124 -0.5156 -0.0313  0.4110
 4758TIP3    H138469   3.979   3.602  19.150 -0.1380 -0.1681  0.0315
 4758TIP3    H238470   3.858   3.521  19.193  0.2698 -0.1811  1.1861
 4759TIP3   OH238471   4.063   0.453  18.095 -0.4790 -0.6191 -0.2035
 4759TIP3    H138472   4.014   0.519  18.045 -1.1827 -2.0843 -1.5422
 4759TIP3    H238473   4.116   0.408  18.030  1.4602 -0.1501  0.9867
 4760TIP3   OH238474   6.041   0.807  17.298  0.2901 -0.3376 -0.2541
 4760TIP3    H138475   5.956   0.850  17.289 -0.1188 -0.8851  0.7983
 4760TIP3    H238476   6.065   0.782  17.209  0.5216  1.9877 -0.9057
 4761TIP3   OH238477   4.017   3.021  17.443 -0.2061  0.1823  0.1502
 4761TIP3    H138478   3.939   3.076  17.448 -1.1408 -1.0567 -0.3194
 4761TIP3    H238479   4.090   3.082  17.454 -1.1626  1.6083 -1.0866
 4762TIP3   OH238480   4.188   5.111  19.438 -0.3178 -0.3063  0.0818
 4762TIP3    H138481   4.199   5.158  19.355 -0.7485 -1.6801 -0.7936
 4762TIP3    H238482   4.276   5.083  19.461  0.2235  2.2805  1.5071
 4763TIP3   OH238483   6.857   4.771  18.170  0.0527 -0.3543  0.4118
 4763TIP3    H138484   6.856   4.683  18.209 -1.5212 -0.3135  0.5258
 4763TIP3    H238485   6.814   4.826  18.236  2.4535  0.8609  1.0515
 4764TIP3   OH238486   2.175   1.992  17.627 -0.3038  0.6076 -0.2209
 4764TIP3    H138487   2.229   1.913  17.629  1.2597  1.6206  1.7978
 4764TIP3    H238488   2.209   2.042  17.553 -1.1222 -0.4537 -1.3409
 4765TIP3   OH238489   4.814   5.243  19.371  0.3654  0.0214  0.0087
 4765TIP3    H138490   4.793   5.260  19.279 -1.3336 -0.1577  0.3355
 4765TIP3    H238491   4.862   5.320  19.400  1.9074 -0.3947 -1.3045
 4766TIP3   OH238492   2.495   7.532  19.362 -0.2008 -0.0990  0.1137
 4766TIP3    H138493   2.581   7.491  19.354 -0.4979 -0.5895 -0.6677
 4766TIP3    H238494   2.510   7.609  19.418  0.8461  0.1233 -0.4486
 4767TIP3   OH238495   0.030   5.552  19.216 -0.1928 -0.1018 -0.3382
 4767TIP3    H138496  -0.024   5.474  19.208 -2.3589  1.2970 -0.2632
 4767TIP3    H238497   0.118   5.523  19.192 -0.9983 -2.4382 -0.7269
 4768TIP3   OH238498   3.492   7.198  18.091  0.5451  0.1411  0.1950
 4768TIP3    H138499   3.489   7.242  18.007  1.8277  2.8125  1.4269
 4768TIP3    H238500   3.413   7.228  18.137  1.2582  0.9810  0.9204
 4769TIP3   OH238501   4.471   0.768  18.671 -0.1952  0.1287  0.8478
 4769TIP3    H138502   4.482   0.680  18.706  0.0230  0.6922  2.2583
 4769TIP3    H238503   4.391   0.800  18.714  0.2087  0.9244  1.0150
 4770TIP3   OH238504   0.503   0.999  19.434  0.7780 -0.3330 -0.2377
 4770TIP3    H138505   0.557   1.021  19.510  0.7579  1.2971 -0.6747
 4770TIP3    H238506   0.564   1.001  19.360  0.2734  0.8308 -0.6345
 4771TIP3   OH238507   5.316   5.060  17.817 -0.1497  0.6739  0.1356
 4771TIP3    H138508   5.297   5.056  17.910  0.6927  1.4996  0.3576
 4771TIP3    H238509   5.293   4.973  17.784 -3.1004  1.1973  0.5601
 4772TIP3   OH238510   6.547   0.018  16.680 -0.2059 -0.4065 -0.0346
 4772TIP3    H138511   6.464   0.004  16.635  0.3091 -2.0049 -0.5732
 4772TIP3    H238512   6.546   0.110  16.704 -0.7615  0.4028 -2.7960
 4773TIP3   OH238513   0.718   2.866  19.308 -0.1974  0.2098 -0.1180
 4773TIP3    H138514   0.789   2.804  19.325 -0.5610 -0.0556  0.4609
 4773TIP3    H238515   0.756   2.930  19.248  0.4553 -0.0671 -0.0090
 4774TIP3   OH238516   1.906   2.956  18.269  0.2110  0.3417  0.2683
 4774TIP3    H138517   1.875   2.993  18.187 -0.1633 -1.4699 -0.4641
 4774TIP3    H238518   1.998   2.934  18.252  1.1322  2.9478  1.4498
 4775TIP3   OH238519   3.887   4.667  17.020 -0.4535 -0.0305 -0.3756
 4775TIP3    H138520   3.956   4.665  17.086 -0.1248  1.7834 -0.6233
 4775TIP3    H238521   3.922   4.616  16.947 -0.3152 -0.9932  0.3353
 4776TIP3   OH238522   0.066   7.592  17.087  0.1079 -0.3364  0.1064
 4776TIP3    H138523   0.124   7.564  17.017 -0.3502 -1.0728  0.0101
 4776TIP3    H238524   0.121   7.647  17.143 -0.2174  2.8039 -2.3530
 4777TIP3   OH238525   1.275   5.521  17.429 -0.2618  0.3508  0.2031
 4777TIP3    H138526   1.265   5.457  17.499  2.6725 -0.8707 -0.3448
 4777TIP3    H238527   1.276   5.470  17.348  0.2929  1.2766 -0.4016
 4778TIP3   OH238528   2.783   1.655  19.207  0.0197 -0.0185 -0.2621
 4778TIP3    H138529   2.734   1.576  19.186 -1.4613  0.8957 -0.4236
 4778TIP3    H238530   2.813   1.688  19.122  0.6211 -0.3827 -0.1958
 4779TIP3   OH238531   0.892   1.788  19.296 -0.5873  0.0792  0.2318
 4779TIP3    H138532   0.918   1.880  19.304  1.4548 -0.4166 -0.1600
 4779TIP3    H238533   0.928   1.760  19.212 -0.7589 -1.1971  0.5565
 4780TIP3   OH238534   0.004   5.041  19.106  0.8474  0.0350  0.4770
 4780TIP3    H138535   0.056   5.113  19.071 -0.3756  0.8095  0.1513
 4780TIP3    H238536   0.013   4.971  19.042 -0.0270  0.8457 -0.5955
 4781TIP3   OH238537   5.282   3.596  18.446 -0.1970  0.0443  0.6307
 4781TIP3    H138538   5.199   3.580  18.491 -0.2561 -0.6613  0.2831
 4781TIP3    H238539   5.349   3.576  18.511 -0.2920  0.0874  0.7430
 4782TIP3   OH238540   1.111   4.008  18.423  0.0980  0.2416 -0.4592
 4782TIP3    H138541   1.053   3.964  18.486 -0.7881 -0.6006 -1.8175
 4782TIP3    H238542   1.108   4.100  18.447 -1.5699  0.1675 -0.3156
 4783TIP3   OH238543   4.724   4.585  17.664 -0.2461  0.2791 -0.4082
 4783TIP3    H138544   4.710   4.508  17.609  0.0665  0.5313 -0.8483
 4783TIP3    H238545   4.784   4.640  17.614 -1.6582  1.5259 -0.7858
 4784TIP3   OH238546   6.517   2.736  18.443  0.3873  0.1168 -0.2946
 4784TIP3    H138547   6.525   2.831  18.436  2.0324 -0.0112 -0.5179
 4784TIP3    H238548   6.602   2.702  18.416  0.2269 -1.3862  0.9241
 4785TIP3   OH238549   1.156   3.239  17.600  0.5309  0.0427  0.4777
 4785TIP3    H138550   1.217   3.302  17.562  0.2399  0.5099  0.7856
 4785TIP3    H238551   1.070   3.279  17.588  0.4707  0.4425  2.0981
 4786TIP3   OH238552   2.267   5.425  17.826  0.2098  0.4726 -1.1860
 4786TIP3    H138553   2.286   5.388  17.740  0.1665  1.9396 -1.8692
 4786TIP3    H238554   2.206   5.497  17.808 -0.2157  0.4658  0.1306
 4787TIP3   OH238555   3.948   5.016  18.562  0.0316  0.2885  0.1226
 4787TIP3    H138556   3.936   4.988  18.471 -0.6925 -0.6744  0.4913
 4787TIP3    H238557   4.002   5.094  18.556 -0.7036  0.7410 -1.1941
 4788TIP3   OH238558   0.555   7.067  17.387 -0.2236  0.0902 -0.0846
 4788TIP3    H138559   0.507   7.018  17.320  0.1033  1.7145 -1.5741
 4788TIP3    H238560   0.646   7.041  17.376 -0.5710 -3.2755  2.9877
 4789TIP3   OH238561   2.740   0.322  18.714 -0.0641  0.5195  0.0942
 4789TIP3    H138562   2.820   0.280  18.747  0.6933 -0.0885 -2.3439
 4789TIP3    H238563   2.670   0.260  18.737  0.3018  0.4794  1.1701
 4790TIP3   OH238564   4.903   0.384  18.035  0.2029  0.2474  0.0023
 4790TIP3    H138565   4.858   0.465  18.061 -0.3568 -0.0770  0.0461
 4790TIP3    H238566   4.868   0.317  18.094 -0.0810 -0.2286 -0.6937
 4791TIP3   OH238567   3.973   2.666  16.738 -0.4060 -1.0299 -0.0795
 4791TIP3    H138568   3.904   2.656  16.671 -0.2413 -0.0066 -0.4213
 4791TIP3    H238569   4.048   2.700  16.689 -0.0155 -1.0620  0.4980
 4792TIP3   OH238570   0.390   1.302  16.899  0.0799  0.1564 -0.1989
 4792TIP3    H138571   0.299   1.332  16.901  0.4239  1.8206 -3.1953
 4792TIP3    H238572   0.388   1.223  16.845  0.3810  0.0041  0.0078
 4793TIP3   OH238573   0.594   0.243  17.697  0.1570 -0.2531 -0.1112
 4793TIP3    H138574   0.568   0.281  17.613  0.6053  2.4193  0.8778
 4793TIP3    H238575   0.665   0.183  17.675 -0.2609 -0.2143 -1.7115
 4794TIP3   OH238576   1.171   4.652  19.715 -0.0600  0.3564  0.1296
 4794TIP3    H138577   1.220   4.715  19.767 -1.0666  2.1907 -1.0289
 4794TIP3    H238578   1.238   4.596  19.675  0.9451  1.4340  0.2573
 4795TIP3   OH238579   2.317   5.735  19.041  0.3937 -0.1071 -0.0716
 4795TIP3    H138580   2.228   5.736  19.004  0.4885 -2.4089 -0.4877
 4795TIP3    H238581   2.303   5.740  19.136 -0.1053  0.4562 -0.1639
 4796TIP3   OH238582   3.008   4.696  17.963  0.1074  0.3304  0.1652
 4796TIP3    H138583   3.066   4.751  18.015 -0.6086 -0.5216  1.9561
 4796TIP3    H238584   2.971   4.634  18.026 -0.6940 -0.8598 -1.4033
 4797TIP3   OH238585   3.351   7.316  17.594 -0.0642 -0.2727  0.6309
 4797TIP3    H138586   3.317   7.271  17.671 -1.0813  0.2589  0.5048
 4797TIP3    H238587   3.367   7.246  17.530 -0.9727 -0.5386  0.6829
 4798TIP3   OH238588   6.510   7.589  19.025  0.5348  0.2885  0.7668
 4798TIP3    H138589   6.491   7.678  18.998 -1.4566  0.6842  3.1322
 4798TIP3    H238590   6.447   7.570  19.094  0.8078 -3.0050  0.3145
 4799TIP3   OH238591   4.646   2.127  17.398  0.0209  0.1905 -0.5154
 4799TIP3    H138592   4.716   2.127  17.464 -0.1602 -0.0209 -0.3203
 4799TIP3    H238593   4.587   2.196  17.427 -1.0611 -1.1400  0.6385
 4800TIP3   OH238594   2.842   5.177  19.223 -0.3874  0.1870  0.1310
 4800TIP3    H138595   2.917   5.129  19.187 -1.1301 -1.4641  0.6902
 4800TIP3    H238596   2.790   5.200  19.146 -0.1521 -0.1493 -0.1364
 4801TIP3   OH238597   0.740   2.243  18.322  0.7043 -0.4243 -0.1594
 4801TIP3    H138598   0.747   2.231  18.227  0.4470  1.6706 -0.4843
 4801TIP3    H238599   0.806   2.310  18.343  0.1621 -0.2302  1.0001
 4802TIP3   OH238600   6.802   0.427  17.807 -0.3078 -0.2978 -0.0242
 4802TIP3    H138601   6.885   0.469  17.783  0.2794 -0.9554  0.7932
 4802TIP3    H238602   6.769   0.390  17.726 -0.5851  1.2867 -0.6741
 4803TIP3   OH238603   5.035   6.085  17.557  0.7053 -0.6411  0.0435
 4803TIP3    H138604   5.066   6.123  17.639 -0.4158  0.8519 -0.1746
 4803TIP3    H238605   5.063   6.147  17.490  0.2337 -1.0190 -0.5129
 4804TIP3   OH238606   6.817   7.383  18.666 -0.0212  0.1952  0.4610
 4804TIP3    H138607   6.795   7.450  18.601  0.8188  0.1532  0.1214
 4804TIP3    H238608   6.864   7.431  18.735 -2.3091  0.5388  1.8688
 4805TIP3   OH238609   5.196   6.484  19.511 -0.2688  0.3434 -0.4411
 4805TIP3    H138610   5.155   6.407  19.550 -0.5668  0.9581  0.4861
 4805TIP3    H238611   5.261   6.448  19.451 -1.5908 -0.6460 -1.3517
 4806TIP3   OH238612   4.883   1.230  17.974 -0.3948 -0.2109  0.2798
 4806TIP3    H138613   4.975   1.204  17.976 -0.1524  0.3410 -1.4646
 4806TIP3    H238614   4.853   1.221  18.064  0.7284 -2.6493  0.4885
 4807TIP3   OH238615   5.810   1.337  18.710  0.3765  0.2507 -0.0894
 4807TIP3    H138616   5.836   1.428  18.726 -1.3152  0.8630 -0.5309
 4807TIP3    H238617   5.715   1.342  18.697  0.5266 -1.2986 -2.2249
 4808TIP3   OH238618   2.013   3.272  17.186  0.2027 -0.8050  0.0632
 4808TIP3    H138619   2.060   3.325  17.122 -0.3112  0.2316  0.5243
 4808TIP3    H238620   1.984   3.195  17.136  0.8679 -0.6180 -0.6351
 4809TIP3   OH238621   3.157   4.745  17.580 -0.4834  0.0743  0.2741
 4809TIP3    H138622   3.246   4.766  17.607 -0.5727 -0.1754  0.7736
 4809TIP3    H238623   3.108   4.826  17.593 -0.3471  0.1913  0.0685
 4810TIP3   OH238624   6.112   1.878  17.654 -0.0864  0.0775 -0.5506
 4810TIP3    H138625   6.029   1.924  17.638  0.0642  0.5455 -0.0096
 4810TIP3    H238626   6.088   1.785  17.654 -0.1666  0.0099 -3.1145
 4811TIP3   OH238627   3.429   6.116  18.321  0.1083  0.0924  0.3059
 4811TIP3    H138628   3.425   6.212  18.318 -1.1460  0.2286  2.9578
 4811TIP3    H238629   3.373   6.087  18.249 -1.0137  1.4049  0.6143
 4812TIP3   OH238630   6.063   5.842  18.085  0.1113  0.1039  0.0242
 4812TIP3    H138631   5.984   5.862  18.034  0.2448 -1.8444 -1.0041
 4812TIP3    H238632   6.046   5.756  18.122  1.1603  0.3210  1.0431
 4813TIP3   OH238633   3.933   4.611  18.093 -0.2612  0.0670 -0.4269
 4813TIP3    H138634   3.905   4.702  18.102  0.2560  0.3377 -1.4361
 4813TIP3    H238635   4.028   4.615  18.084 -0.1299 -0.6576  0.4463
 4814TIP3   OH238636   5.084   7.278  18.374 -0.4714 -0.6609 -0.3357
 4814TIP3    H138637   5.153   7.273  18.440  1.1491  0.0393 -1.9171
 4814TIP3    H238638   5.097   7.200  18.319 -1.7121 -1.1569  0.0316
 4815TIP3   OH238639   3.716   4.795  19.187  0.0880  0.2203  0.1292
 4815TIP3    H138640   3.762   4.839  19.258 -1.1928 -0.2366  1.2903
 4815TIP3    H238641   3.637   4.848  19.174 -0.6343 -0.7837  0.3767
 4816TIP3   OH238642   6.915   6.865  17.149 -0.1724  0.4690  0.2927
 4816TIP3    H138643   6.929   6.793  17.211  0.4242 -0.6947 -1.1207
 4816TIP3    H238644   6.985   6.927  17.170  0.9695 -0.6168 -0.1676
 4817TIP3   OH238645   5.947   4.382  18.773 -0.1488  0.0275  0.9195
 4817TIP3    H138646   5.961   4.418  18.685  2.3264 -1.8025  0.4655
 4817TIP3    H238647   5.972   4.454  18.831  1.9936  0.0748  0.0492
 4818TIP3   OH238648   5.012   5.695  18.547 -0.3081  0.0028  0.2465
 4818TIP3    H138649   5.011   5.617  18.492  0.5598  0.5526 -0.5710
 4818TIP3    H238650   5.088   5.683  18.605 -0.6040 -0.0900  0.6225
 4819TIP3   OH238651   2.316   1.540  18.697  0.2472 -0.6921  0.1144
 4819TIP3    H138652   2.340   1.573  18.611 -0.3809  1.3894  0.6832
 4819TIP3    H238653   2.222   1.521  18.690  0.0687  0.0224  0.4837
 4820TIP3   OH238654   1.697   7.633  19.022 -0.1865  0.2844  0.2356
 4820TIP3    H138655   1.746   7.564  19.067 -0.8445  0.6126  1.4989
 4820TIP3    H238656   1.649   7.588  18.953  1.7558 -0.0630 -0.9399
 4821TIP3   OH238657   4.791   2.669  18.395  0.3758  0.2126  0.0288
 4821TIP3    H138658   4.778   2.601  18.462 -0.2945  0.5244  0.2251
 4821TIP3    H238659   4.776   2.751  18.441  1.9871  0.5684 -0.0093
 4822TIP3   OH238660   1.924   3.279  17.443 -0.2684 -0.6369 -0.1246
 4822TIP3    H138661   1.925   3.266  17.348 -0.4252  1.3840 -0.4471
 4822TIP3    H238662   2.015   3.266  17.470  0.1244  0.4479 -0.8447
 4823TIP3   OH238663   0.722   2.700  19.787  0.3502  0.6197  0.2195
 4823TIP3    H138664   0.690   2.764  19.851 -0.3920 -0.5678  1.0767
 4823TIP3    H238665   0.694   2.735  19.702  1.4227  2.2596  0.5004
 4824TIP3   OH238666   5.599   6.133  17.330 -0.6050  0.0933 -0.1614
 4824TIP3    H138667   5.644   6.135  17.414 -0.1061 -0.5054 -0.4014
 4824TIP3    H238668   5.508   6.114  17.351 -0.5156  0.1122  0.2492
 4825TIP3   OH238669   4.809   0.684  16.567  0.3969 -0.1765 -0.0194
 4825TIP3    H138670   4.731   0.640  16.532  0.6153  0.0140 -0.7641
 4825TIP3    H238671   4.811   0.659  16.660 -2.9568  3.1049  1.2030
 4826TIP3   OH238672   4.002   2.405  18.890 -0.3530 -0.3486  0.5232
 4826TIP3    H138673   3.917   2.439  18.918 -0.4257  0.8359 -0.9973
 4826TIP3    H238674   3.981   2.331  18.833 -0.3050 -0.7887  1.0628
 4827TIP3   OH238675   1.631   3.839  19.525  0.1863 -0.1152  0.1621
 4827TIP3    H138676   1.553   3.822  19.472  0.5129 -0.0850 -0.3328
 4827TIP3    H238677   1.694   3.773  19.497 -0.0629 -0.9436  1.4380
 4828TIP3   OH238678   2.031   1.954  18.227  0.5074 -0.1544 -0.6965
 4828TIP3    H138679   1.963   1.888  18.211  0.1058  0.7943 -3.4545
 4828TIP3    H238680   1.983   2.037  18.232  1.1869  0.1825  0.8279
 4829TIP3   OH238681   1.920   2.835  18.581 -0.1624 -0.0259 -0.5095
 4829TIP3    H138682   1.912   2.860  18.489 -2.1045  3.2802  0.3916
 4829TIP3    H238683   1.830   2.821  18.610  0.4537 -1.6716  0.7997
 4830TIP3   OH238684   2.098   1.667  17.630 -0.4366 -0.0944  0.0350
 4830TIP3    H138685   2.134   1.701  17.548 -1.5503 -1.4658 -1.0785
 4830TIP3    H238686   2.174   1.661  17.689  0.6634 -0.4325 -1.3600
 4831TIP3   OH238687   7.594   6.264  18.080  0.2457 -0.0511 -0.5786
 4831TIP3    H138688   7.569   6.174  18.099 -2.2653  0.4365 -1.2613
 4831TIP3    H238689   7.597   6.269  17.985  0.2742  0.6273 -0.5501
 4832TIP3   OH238690   2.695   5.249  18.987 -0.5228  0.1014 -0.4363
 4832TIP3    H138691   2.613   5.245  19.036 -0.5064  1.0170 -0.3161
 4832TIP3    H238692   2.699   5.338  18.953  1.6334  0.9562  1.7212
 4833TIP3   OH238693   3.145   2.067  16.732  0.5163 -0.5017  0.5771
 4833TIP3    H138694   3.239   2.081  16.730  0.4763 -0.1574  1.0219
 4833TIP3    H238695   3.109   2.144  16.776 -0.0445 -0.2940 -0.2182
 4834TIP3   OH238696   7.238   6.886  18.968 -0.2104  0.5095 -0.2108
 4834TIP3    H138697   7.188   6.942  18.907 -0.0234  1.6750  0.6735
 4834TIP3    H238698   7.328   6.917  18.960 -0.0880  0.2674  0.2138
 4835TIP3   OH238699   6.515   0.862  19.387 -0.1858 -0.3391 -0.0130
 4835TIP3    H138700   6.604   0.832  19.405  0.0675 -0.4661 -1.3949
 4835TIP3    H238701   6.464   0.782  19.375  0.3865 -0.3760 -3.1906
 4836TIP3   OH238702   3.544   1.179  17.537 -0.1354  0.1293  0.7292
 4836TIP3    H138703   3.574   1.178  17.445  0.9515  0.3342  1.0651
 4836TIP3    H238704   3.552   1.270  17.564 -0.5153  0.0778  1.0182
 4837TIP3   OH238705   4.095   0.409  18.909  0.4488  0.2268  0.2045
 4837TIP3    H138706   4.183   0.425  18.942  0.6676  0.8793 -0.6524
 4837TIP3    H238707   4.104   0.410  18.814 -0.6228  1.1848  0.0897
 4838TIP3   OH238708   3.765   0.187  18.584  0.0227 -0.3515 -0.3039
 4838TIP3    H138709   3.738   0.216  18.671  0.3542  0.6607 -0.5326
 4838TIP3    H238710   3.701   0.227  18.524 -0.4149 -1.3219 -0.5157
 4839TIP3   OH238711   6.691   0.801  18.211 -0.0686  0.2334 -0.3697
 4839TIP3    H138712   6.759   0.850  18.257 -0.8222  1.0594 -0.1036
 4839TIP3    H238713   6.720   0.799  18.120  1.3427 -1.2511  0.0611
 4840TIP3   OH238714   5.030   4.191  18.088  0.3066 -0.3275  0.5317
 4840TIP3    H138715   5.091   4.161  18.156 -1.3056 -0.9030  1.7807
 4840TIP3    H238716   4.948   4.146  18.107  0.0296 -1.3289 -2.4407
 4841TIP3   OH238717   2.336   6.859  17.209  0.6480 -0.0745 -0.6266
 4841TIP3    H138718   2.345   6.839  17.116 -0.0535  0.2273 -0.7676
 4841TIP3    H238719   2.334   6.955  17.213 -0.9710 -0.0956 -0.4830
 4842TIP3   OH238720   4.351   2.490  19.108 -0.0645 -0.1485  0.1804
 4842TIP3    H138721   4.279   2.434  19.136 -0.6815  0.3986 -0.2686
 4842TIP3    H238722   4.355   2.559  19.174 -0.2712  0.0869 -0.0513
 4843TIP3   OH238723   3.371   1.930  17.509  0.1484  0.6906 -0.3369
 4843TIP3    H138724   3.284   1.964  17.488 -0.3398  0.1899  0.8049
 4843TIP3    H238725   3.414   1.923  17.424 -0.7553  1.3732 -0.8853
 4844TIP3   OH238726   4.761   5.714  17.400  0.4850  0.4090 -0.1200
 4844TIP3    H138727   4.673   5.696  17.366  0.8585 -1.7136 -0.1131
 4844TIP3    H238728   4.766   5.810  17.402 -1.1098  0.6187 -1.9499
 4845TIP3   OH238729   3.220   7.501  18.401  0.2475  0.1003  0.5306
 4845TIP3    H138730   3.156   7.470  18.465  0.1835  0.0832  0.4581
 4845TIP3    H238731   3.296   7.525  18.453  0.1894  0.1010  0.6140
 4846TIP3   OH238732   4.829   6.388  18.642 -0.1799 -0.2645 -0.2157
 4846TIP3    H138733   4.788   6.303  18.654  0.2505 -0.3034  1.1520
 4846TIP3    H238734   4.923   6.371  18.650  0.0025  0.1569 -1.2013
 4847TIP3   OH238735   2.375   2.455  18.166 -0.4802  0.5002  0.2782
 4847TIP3    H138736   2.339   2.432  18.252 -1.4907 -2.4905 -0.7945
 4847TIP3    H238737   2.299   2.455  18.108  0.6379 -2.4817 -1.4260
 4848TIP3   OH238738   0.522   2.701  17.649  0.6440 -0.6669 -0.2825
 4848TIP3    H138739   0.566   2.782  17.678  0.4567 -0.5738 -0.2583
 4848TIP3    H238740   0.505   2.715  17.556 -1.3982  0.2535  0.1828
 4849TIP3   OH238741   0.994   3.108  18.529  0.2899  0.0627 -0.0860
 4849TIP3    H138742   1.014   3.025  18.572 -1.1672 -0.3403 -0.1303
 4849TIP3    H238743   1.052   3.171  18.571  0.7848 -0.8074  0.5810
 4850TIP3   OH238744   7.579   2.455  17.221  0.1673 -0.1660 -0.3018
 4850TIP3    H138745   7.514   2.392  17.189  1.0336 -1.3474  0.1987
 4850TIP3    H238746   7.531   2.537  17.231 -1.5821 -1.3333  1.3525
 4851TIP3   OH238747   0.349   3.510  19.130 -0.2440 -0.7357  0.4943
 4851TIP3    H138748   0.337   3.473  19.042  1.5206  0.2860 -0.2233
 4851TIP3    H238749   0.308   3.596  19.127 -0.3335 -0.7684  0.7253
 4852TIP3   OH238750   1.183   4.057  17.866  0.0824  0.0122  0.1691
 4852TIP3    H138751   1.121   4.037  17.937  0.4980  1.0297  0.8465
 4852TIP3    H238752   1.231   3.975  17.852  0.9045  0.1362  1.9967
 4853TIP3   OH238753   4.406   2.678  18.527  0.4263  0.2470  0.3117
 4853TIP3    H138754   4.492   2.720  18.536  0.9750 -0.7941  0.0130
 4853TIP3    H238755   4.394   2.631  18.609 -0.0319  0.6910  0.5025
 4854TIP3   OH238756   3.254   0.006  18.978 -0.9783 -0.3063 -0.1825
 4854TIP3    H138757   3.306  -0.073  18.993 -2.6393 -1.4356 -0.0783
 4854TIP3    H238758   3.232   0.037  19.066 -1.8912 -0.8277 -0.2178
 4855TIP3   OH238759   0.770   1.542  19.128 -0.5166  0.2247  0.7515
 4855TIP3    H138760   0.747   1.487  19.053  1.7087 -1.3888  1.1583
 4855TIP3    H238761   0.857   1.575  19.108 -0.8814  1.7629  1.5836
 4856TIP3   OH238762   2.411   4.825  18.840 -0.6311 -0.4181  0.6960
 4856TIP3    H138763   2.318   4.805  18.839 -1.1870  1.8829 -0.0824
 4856TIP3    H238764   2.415   4.919  18.855  1.5151 -0.2051 -0.7309
 4857TIP3   OH238765   2.433   4.359  17.582 -0.3893 -0.1890 -0.4031
 4857TIP3    H138766   2.379   4.322  17.511  0.4204 -1.1632 -0.5292
 4857TIP3    H238767   2.406   4.311  17.660  1.0737 -1.5525 -0.6689
 4858TIP3   OH238768   2.002   3.342  18.895  0.2353  0.6642 -0.0399
 4858TIP3    H138769   2.011   3.426  18.848  0.7984  0.8295  0.3510
 4858TIP3    H238770   1.995   3.367  18.987  0.9225  0.2631  0.1303
 4859TIP3   OH238771   1.854   0.242  18.701 -0.4752  0.4098 -0.5253
 4859TIP3    H138772   1.766   0.207  18.716  0.0899 -0.5342  0.8448
 4859TIP3    H238773   1.842   0.312  18.637 -2.2387  0.3919 -0.2619
 4860TIP3   OH238774   2.633   3.537  16.442  0.3071  0.0995  0.5049
 4860TIP3    H138775   2.713   3.572  16.481  0.3091  0.5043  0.1532
 4860TIP3    H238776   2.647   3.545  16.348  0.2875 -0.8291  0.4159
 4861TIP3   OH238777   7.034   0.129  17.519  0.1795 -0.2253 -0.6131
 4861TIP3    H138778   7.020   0.068  17.447 -0.0509 -0.3907 -0.4328
 4861TIP3    H238779   7.047   0.073  17.596  0.5346 -0.0543 -0.5431
 4862TIP3   OH238780   6.434   5.088  17.214  0.2348  0.2637  0.5365
 4862TIP3    H138781   6.352   5.038  17.212 -1.0460  2.1968  1.2426
 4862TIP3    H238782   6.412   5.170  17.169  1.4349  1.2776  1.7167
 4863TIP3   OH238783   1.364   3.336  18.225 -0.6597 -0.5262 -0.0090
 4863TIP3    H138784   1.335   3.286  18.301  0.4698 -0.1181  0.7271
 4863TIP3    H238785   1.415   3.274  18.173  2.5500  0.2223  1.9593
 4864TIP3   OH238786   3.806   3.012  17.695 -1.0002 -0.1198  0.2600
 4864TIP3    H138787   3.769   2.943  17.750 -2.1682  0.8556  0.7367
 4864TIP3    H238788   3.791   2.981  17.605  0.0045 -1.2466  0.4649
 4865TIP3   OH238789   2.128   2.106  17.196  0.1655 -1.0338  0.0867
 4865TIP3    H138790   2.197   2.069  17.141  1.1190  0.0752  0.5060
 4865TIP3    H238791   2.062   2.037  17.200  0.4852 -1.4971 -1.6780
 4866TIP3   OH238792   6.101   2.034  17.983 -0.7687  0.3357 -0.1946
 4866TIP3    H138793   6.124   2.087  17.906  1.2208 -1.1578 -0.7331
 4866TIP3    H238794   6.092   1.945  17.949  0.9248 -0.5051  1.3375
 4867TIP3   OH238795   4.393   1.084  17.721  0.2241 -0.2784  0.9679
 4867TIP3    H138796   4.452   1.100  17.647 -0.4161 -0.9657  0.2987
 4867TIP3    H238797   4.403   1.162  17.775  1.4849 -0.2211  0.6961
 4868TIP3   OH238798   5.080   5.976  18.559  0.4083 -0.0530  0.0438
 4868TIP3    H138799   5.042   5.894  18.527  0.2525 -0.6502  1.6736
 4868TIP3    H238800   5.014   6.012  18.618  0.8851  0.7353  0.1135
 4869TIP3   OH238801   7.642   4.459  18.314  0.0039 -0.3928  0.0003
 4869TIP3    H138802   7.618   4.543  18.273 -0.1194  0.5797  1.9642
 4869TIP3    H238803   7.562   4.407  18.308  0.3930 -0.8505 -2.2227
 4870TIP3   OH238804   6.971   7.184  17.460  0.3566  0.5863 -0.2075
 4870TIP3    H138805   7.013   7.212  17.541  1.2193  0.5897 -0.6525
 4870TIP3    H238806   6.993   7.251  17.396 -0.5850  0.7500 -0.3827
 4871TIP3   OH238807   2.006   3.070  18.945  0.0299  0.2668 -0.2190
 4871TIP3    H138808   1.995   3.164  18.928  0.1307  0.4836  0.8574
 4871TIP3    H238809   2.099   3.054  18.931 -0.1117  0.1657 -1.1125
 4872TIP3   OH238810   1.709   6.960  17.750  0.0395 -0.8220 -0.4091
 4872TIP3    H138811   1.655   6.907  17.691  0.1358  0.0373 -1.2781
 4872TIP3    H238812   1.799   6.936  17.730  0.0675 -0.6351 -0.5061
 4873TIP3   OH238813   1.007   1.542  18.657 -0.4551 -0.4793 -0.2379
 4873TIP3    H138814   1.055   1.608  18.707  0.8994  0.5067 -2.6890
 4873TIP3    H238815   0.965   1.590  18.586 -0.3505 -2.0675 -1.4587
 4874TIP3   OH238816   6.381   5.995  17.587  0.1112 -0.4231  0.9937
 4874TIP3    H138817   6.455   5.935  17.599  0.6000 -0.0890 -0.2295
 4874TIP3    H238818   6.324   5.977  17.662  0.9794 -1.3381  1.4646
 4875TIP3   OH238819   3.659   6.584  17.583 -0.1728 -0.0328  0.7911
 4875TIP3    H138820   3.584   6.567  17.639 -0.5663 -0.2564  0.1939
 4875TIP3    H238821   3.623   6.591  17.495  0.6351 -1.2093  0.3469
 4876TIP3   OH238822   7.277   5.474  17.624 -0.2434  0.4699  0.1545
 4876TIP3    H138823   7.194   5.444  17.662 -0.1859 -0.0513 -0.1157
 4876TIP3    H238824   7.336   5.484  17.699 -0.2935 -0.0159  0.2595
 4877TIP3   OH238825   7.555   5.729  17.747  0.1594 -0.2656  0.4526
 4877TIP3    H138826   7.560   5.634  17.758  1.1885 -0.2483  0.2587
 4877TIP3    H238827   7.588   5.744  17.659 -1.0119  0.1965  0.0729
 4878TIP3   OH238828   6.593   6.139  18.402 -0.2176 -0.2600 -0.1284
 4878TIP3    H138829   6.539   6.061  18.419 -0.1353 -0.3126 -0.1094
 4878TIP3    H238830   6.668   6.106  18.352  0.0842 -0.2815  0.3339
 4879TIP3   OH238831   7.625   1.482  19.483 -0.3420  0.4219  0.2163
 4879TIP3    H138832   7.692   1.466  19.550 -0.0539 -2.4568 -0.6256
 4879TIP3    H238833   7.551   1.427  19.508 -1.3901  1.5304 -0.3043
 4880TIP3   OH238834   4.460   3.471  17.903  0.0858 -0.3830  0.9948
 4880TIP3    H138835   4.409   3.532  17.955 -0.2320 -0.0198  0.2597
 4880TIP3    H238836   4.401   3.441  17.834  0.0165 -2.0356  1.7167
 4881TIP3   OH238837   2.309   7.403  18.736  1.0242  0.4125  0.1942
 4881TIP3    H138838   2.395   7.437  18.710  1.4549 -0.8194 -0.0652
 4881TIP3    H238839   2.314   7.309  18.719 -0.7784  0.4761 -0.9150
 4882TIP3   OH238840   6.989   5.492  16.619 -0.3959  0.3722 -0.2893
 4882TIP3    H138841   6.920   5.431  16.593  0.2110 -0.1262 -0.7649
 4882TIP3    H238842   6.961   5.576  16.583 -1.0963  0.3247  0.1202
 4883TIP3   OH238843   6.257   6.537  19.273 -0.2387  0.2973  0.0371
 4883TIP3    H138844   6.183   6.511  19.327  0.0630 -0.7600 -0.0501
 4883TIP3    H238845   6.239   6.629  19.250 -0.5509  0.6597  1.6164
 4884TIP3   OH238846   4.214   5.482  18.509  0.5126  0.1367 -0.5262
 4884TIP3    H138847   4.294   5.520  18.473  1.1141 -0.7368 -0.1442
 4884TIP3    H238848   4.153   5.480  18.435  0.7881  0.9407 -0.7842
 4885TIP3   OH238849   3.444   5.604  18.097 -0.7081  0.5572  0.3619
 4885TIP3    H138850   3.422   5.696  18.085 -1.1652  0.2053 -1.9558
 4885TIP3    H238851   3.362   5.557  18.081 -0.2083 -0.3110  0.2428
 4886TIP3   OH238852   5.185   2.917  18.148 -0.3500 -0.5308  0.4015
 4886TIP3    H138853   5.243   2.983  18.109 -0.9329 -0.7499 -0.8912
 4886TIP3    H238854   5.164   2.953  18.234  1.6225 -0.4056  0.8941
 4887TIP3   OH238855   2.284   5.682  18.572  0.3324 -0.0399  0.0669
 4887TIP3    H138856   2.325   5.767  18.587  0.6737 -0.2984  0.5754
 4887TIP3    H238857   2.246   5.690  18.484  1.0366  0.3666 -0.2086
 4888TIP3   OH238858   2.190   2.368  17.815 -0.2229 -0.7344 -0.1225
 4888TIP3    H138859   2.162   2.278  17.835 -1.0797 -0.3198  0.6297
 4888TIP3    H238860   2.285   2.363  17.810 -0.2101 -1.5549  0.6559
 4889TIP3   OH238861   0.578   0.488  19.049  0.0250 -0.2775  0.0475
 4889TIP3    H138862   0.538   0.574  19.065 -0.4787 -0.8128  1.9470
 4889TIP3    H238863   0.612   0.494  18.960 -0.1857  1.8148  0.0460
 4890TIP3   OH238864   5.427   3.587  17.894  0.4520  0.1877 -0.1285
 4890TIP3    H138865   5.470   3.665  17.929  0.5653 -0.0415  0.2443
 4890TIP3    H238866   5.348   3.620  17.851 -0.1163  0.3906  1.0529
 4891TIP3   OH238867   4.647   4.391  18.964 -0.1851 -0.3864  0.0262
 4891TIP3    H138868   4.692   4.353  19.039 -2.3340 -1.0057  1.0814
 4891TIP3    H238869   4.695   4.472  18.947  0.1369  0.0039  2.3568
 4892TIP3   OH238870   1.401   0.816  17.586 -0.4860  0.0305  0.1972
 4892TIP3    H138871   1.369   0.727  17.575  0.7310 -0.3056 -0.9238
 4892TIP3    H238872   1.350   0.868  17.524  0.4283 -0.3418 -0.9109
 4893TIP3   OH238873   3.901   5.396  17.354 -0.2201  0.4394  0.1160
 4893TIP3    H138874   3.853   5.316  17.376 -0.4428  0.5122 -0.0981
 4893TIP3    H238875   3.948   5.375  17.274  1.0831 -0.0248  0.9748
 4894TIP3   OH238876   1.861   3.489  17.799 -0.4362  0.5838  0.3548
 4894TIP3    H138877   1.770   3.460  17.804 -0.7312  1.6957  1.7494
 4894TIP3    H238878   1.857   3.584  17.799  0.5862  0.7789 -3.0211
 4895TIP3   OH238879   4.273   1.453  17.531  0.0026 -0.7652 -0.0392
 4895TIP3    H138880   4.256   1.380  17.472  0.8854  0.0040 -1.3059
 4895TIP3    H238881   4.225   1.527  17.492  0.3307 -0.3201  0.3903
 4896TIP3   OH238882   3.197   3.709  17.827 -0.2414 -0.2500  0.0384
 4896TIP3    H138883   3.279   3.664  17.850 -1.5965 -2.3537  1.0310
 4896TIP3    H238884   3.198   3.715  17.732  0.7744 -0.8113  0.0025
 4897TIP3   OH238885   0.813   3.484  17.762  0.1779 -0.3802  0.3597
 4897TIP3    H138886   0.849   3.553  17.707 -0.2167 -0.5427 -0.1121
 4897TIP3    H238887   0.792   3.527  17.845  0.7663 -0.1331  0.3871
 4898TIP3   OH238888   7.670   5.264  19.496  0.0699 -0.4019 -1.2175
 4898TIP3    H138889   7.765   5.273  19.486  0.4383 -1.3730  0.8916
 4898TIP3    H238890   7.653   5.285  19.587 -1.8140  0.0149 -1.6191
 4899TIP3   OH238891   1.745   2.660  18.406 -0.0198  0.2506  0.3738
 4899TIP3    H138892   1.718   2.701  18.324  1.0629 -1.9193 -1.1509
 4899TIP3    H238893   1.840   2.663  18.404  0.1246 -2.3174  0.1233
 4900TIP3   OH238894   7.056   6.779  18.176  0.3932 -0.1632 -0.4738
 4900TIP3    H138895   7.099   6.804  18.258 -0.4966 -0.1121 -0.0142
 4900TIP3    H238896   7.002   6.704  18.199  0.8147 -0.7099 -1.2164
 4901TIP3   OH238897   6.042   5.124  17.164 -0.5441  0.2160 -0.0749
 4901TIP3    H138898   5.970   5.071  17.198 -1.9775  1.4188 -1.0847
 4901TIP3    H238899   6.006   5.168  17.087  1.2190  1.0383 -0.5015
 4902TIP3   OH238900   6.810   0.886  17.975 -0.5502  0.1588 -0.2768
 4902TIP3    H138901   6.753   0.851  17.907  1.3247  0.2142 -1.9770
 4902TIP3    H238902   6.892   0.907  17.930  1.0073 -0.3459  2.1081
 4903TIP3   OH238903   7.083   4.700  17.268  0.6445 -0.0976 -0.4005
 4903TIP3    H138904   7.029   4.744  17.203 -0.6703 -2.9663 -1.4628
 4903TIP3    H238905   7.089   4.609  17.236  0.4547 -1.5121  3.1383
 4904TIP3   OH238906   1.307   2.652  19.102 -0.1583 -0.3808 -0.1700
 4904TIP3    H138907   1.272   2.715  19.165 -0.8941 -1.7141  0.8029
 4904TIP3    H238908   1.394   2.687  19.080 -0.2409  0.5839  0.9022
 4905TIP3   OH238909   3.801   5.559  17.050 -0.3566 -0.0140 -0.4263
 4905TIP3    H138910   3.851   5.634  17.019  0.1304  0.2531  0.9445
 4905TIP3    H238911   3.865   5.488  17.053 -0.7179 -0.3879 -1.3081
 4906TIP3   OH238912   0.798   3.949  19.092 -0.6760  0.1034 -0.5930
 4906TIP3    H138913   0.878   3.933  19.143 -1.0615 -2.1706 -0.5965
 4906TIP3    H238914   0.738   3.992  19.154 -0.8123 -1.7755  0.6431
 4907TIP3   OH238915   3.398   3.127  18.715 -0.3733 -0.0252  0.0787
 4907TIP3    H138916   3.332   3.177  18.763  1.2355  0.6863  1.6473
 4907TIP3    H238917   3.410   3.047  18.767  0.2396  0.0164  0.0094
 4908TIP3   OH238918   3.610   2.674  18.954  0.2621  0.4775  0.6608
 4908TIP3    H138919   3.646   2.762  18.940 -1.7613  1.2525 -0.1929
 4908TIP3    H238920   3.582   2.646  18.866  0.3977 -0.8043  1.0079
 4909TIP3   OH238921   0.740   3.805  16.757  0.0585  0.6024  0.3936
 4909TIP3    H138922   0.731   3.784  16.850 -0.5682  1.2264  0.4817
 4909TIP3    H238923   0.816   3.755  16.728 -1.3178 -1.7584  0.6080
 4910TIP3   OH238924   4.712   7.067  17.418 -0.2114 -0.2544  0.2321
 4910TIP3    H138925   4.673   7.119  17.488 -1.4139  1.7638 -1.8417
 4910TIP3    H238926   4.804   7.093  17.417 -0.2370 -0.1155  0.8655
 4911TIP3   OH238927   7.018   0.814  19.504 -0.2350  0.1410  0.3049
 4911TIP3    H138928   6.946   0.876  19.495 -0.7985 -0.4083  0.9587
 4911TIP3    H238929   7.084   0.846  19.442 -0.5758  1.2943  0.5036
 4912TIP3   OH238930   7.264   2.998  17.400  0.5764 -0.3741  0.2180
 4912TIP3    H138931   7.323   2.927  17.375  1.2613  0.0820  0.5196
 4912TIP3    H238932   7.318   3.056  17.454 -0.6658 -0.9290  2.1270
 4913TIP3   OH238933   6.782   4.540  18.340 -0.3311  0.0784 -0.1007
 4913TIP3    H138934   6.702   4.546  18.393 -1.9242  0.7255 -2.4333
 4913TIP3    H238935   6.852   4.564  18.401 -2.2794  3.0005  1.2478
 4914TIP3   OH238936   0.458   1.330  17.159  0.3772  0.0899 -0.8309
 4914TIP3    H138937   0.444   1.343  17.065 -3.4618 -1.6912 -0.6846
 4914TIP3    H238938   0.469   1.235  17.168  0.6855  0.2388  0.5416
 4915TIP3   OH238939   2.440   4.037  17.691 -0.5528 -0.6716 -0.6025
 4915TIP3    H138940   2.351   4.005  17.703 -1.0395  0.6837 -0.4015
 4915TIP3    H238941   2.452   4.040  17.596 -0.7652 -0.7394 -0.6327
 4916TIP3   OH238942   2.877   1.391  19.629 -0.0276 -0.0893  0.1486
 4916TIP3    H138943   2.863   1.473  19.677 -0.1013  0.4324 -0.7226
 4916TIP3    H238944   2.927   1.418  19.551 -0.7185 -0.7490 -0.5341
 4917TIP3   OH238945   4.643   3.765  17.598 -0.1450  0.5830  0.2951
 4917TIP3    H138946   4.677   3.681  17.628  1.4366 -0.3078 -3.3882
 4917TIP3    H238947   4.551   3.749  17.580 -0.3228  0.2451  1.4366
 4918TIP3   OH238948   7.213   2.312  16.504  0.0424  0.5401 -0.0454
 4918TIP3    H138949   7.249   2.388  16.459 -0.6597  0.8236 -0.1451
 4918TIP3    H238950   7.258   2.237  16.465  2.0236  0.9804  1.2708
 4919TIP3   OH238951   3.274   5.309  17.533 -0.2622 -0.0169  0.5716
 4919TIP3    H138952   3.337   5.378  17.514 -0.8195  0.8057  1.6112
 4919TIP3    H238953   3.198   5.355  17.570 -0.4070 -1.2174  1.8518
 4920TIP3   OH238954   7.262   2.951  18.363  0.2968  0.2701  0.0458
 4920TIP3    H138955   7.281   2.975  18.272  0.1253  0.7634  0.1393
 4920TIP3    H238956   7.308   2.868  18.376 -1.9293 -1.2904 -1.3575
 4921TIP3   OH238957   5.000   3.586  18.469 -0.2407  0.6165  0.4664
 4921TIP3    H138958   4.974   3.495  18.454  0.1608  0.5912 -0.0869
 4921TIP3    H238959   4.948   3.613  18.545  0.5171 -0.4512  1.3918
 4922TIP3   OH238960   3.463   0.762  18.847  0.2345 -0.3592  0.3554
 4922TIP3    H138961   3.408   0.737  18.773 -0.4492  1.4990  0.1827
 4922TIP3    H238962   3.548   0.722  18.829 -0.2620 -0.9426 -0.8053
 4923TIP3   OH238963   0.903   1.127  17.727 -0.1566  0.5806  0.3074
 4923TIP3    H138964   0.855   1.046  17.709  0.7265  0.0849  0.1148
 4923TIP3    H238965   0.849   1.195  17.687 -0.3508 -0.0405 -0.5350
 4924TIP3   OH238966   6.868   3.818  18.697 -0.3980  0.0060 -0.6469
 4924TIP3    H138967   6.794   3.759  18.704 -0.0680 -0.3094  0.4965
 4924TIP3    H238968   6.916   3.806  18.779  0.7738  0.3873 -1.2422
 4925TIP3   OH238969   4.567   0.841  17.738 -0.8909 -0.0357 -0.2630
 4925TIP3    H138970   4.652   0.883  17.726  0.4097 -1.7842  1.8656
 4925TIP3    H238971   4.503   0.912  17.731  0.8412  1.5580 -0.7000
 4926TIP3   OH238972   5.109   6.242  17.360  0.2981  0.1973 -0.0364
 4926TIP3    H138973   5.108   6.330  17.398 -2.2628 -0.4986  1.7666
 4926TIP3    H238974   5.049   6.247  17.286  3.3157  0.8751 -2.6972
 4927TIP3   OH238975   2.425   4.245  17.885 -0.0347  0.1972 -0.3575
 4927TIP3    H138976   2.447   4.201  17.966 -0.2310 -1.8816 -1.3783
 4927TIP3    H238977   2.410   4.175  17.822  0.9288  1.7382 -2.4238
 4928TIP3   OH238978   1.609   1.753  18.909  0.0787  0.1222 -0.2156
 4928TIP3    H138979   1.592   1.793  18.995  0.6317  0.1711 -0.1261
 4928TIP3    H238980   1.616   1.827  18.850  1.2460  0.1731 -0.0254
 4929TIP3   OH238981   1.377   4.041  17.626 -0.6961 -0.0759 -0.0050
 4929TIP3    H138982   1.298   3.989  17.613 -0.2365 -0.7967  0.0070
 4929TIP3    H238983   1.446   3.976  17.643 -0.0690  0.5232 -0.2008
 4930TIP3   OH238984   4.226   6.238  19.219 -0.0139  0.4415 -0.0052
 4930TIP3    H138985   4.193   6.323  19.191  0.5340  0.9852  0.9215
 4930TIP3    H238986   4.161   6.206  19.282  0.4907  0.8607  0.7479
 4931TIP3   OH238987   6.938   3.563  17.256  0.2746  0.1743 -0.1217
 4931TIP3    H138988   6.948   3.496  17.323 -0.4290  0.0474 -0.1344
 4931TIP3    H238989   7.014   3.552  17.199  1.5041  1.0390  1.2907
 4932TIP3   OH238990   0.880   3.051  19.192  0.2976 -0.3505  0.2648
 4932TIP3    H138991   0.807   3.111  19.178  0.9808  0.1983 -1.1545
 4932TIP3    H238992   0.948   3.104  19.232 -0.2724 -1.0148  2.2011
 4933TIP3   OH238993   4.153   7.555  16.825  0.2004 -0.1539  0.4433
 4933TIP3    H138994   4.241   7.550  16.787  0.0133 -1.8244  0.1421
 4933TIP3    H238995   4.118   7.638  16.793  0.9322 -0.4058 -1.0999
 4934TIP3   OH238996   5.288   4.614  17.923  0.2367 -0.2065  0.1624
 4934TIP3    H138997   5.218   4.550  17.929 -0.5937  0.6855  0.1905
 4934TIP3    H238998   5.319   4.623  18.013  0.8833 -1.1151  0.0499
 4935TIP3   OH238999   6.658   1.634  18.701 -0.2776 -0.7912 -0.0638
 4935TIP3    H139000   6.728   1.609  18.762  0.0151 -1.4066 -0.6409
 4935TIP3    H239001   6.588   1.571  18.719 -0.2184 -0.9280 -0.3102
 4936TIP3   OH239002   5.227   2.553  19.482 -0.0004  0.0178  0.2729
 4936TIP3    H139003   5.297   2.495  19.511  0.0551 -0.0040  0.0962
 4936TIP3    H239004   5.152   2.495  19.466  0.0164  0.0115  0.2194
 4937TIP3   OH239005   7.601   4.786  19.449 -0.5809 -0.0916  0.6086
 4937TIP3    H139006   7.639   4.801  19.536 -0.1021  1.0557  0.2201
 4937TIP3    H239007   7.623   4.865  19.399  1.4908 -1.7877 -1.4022
 4938TIP3   OH239008   6.411   1.685  17.570 -0.6789 -0.0671 -0.2494
 4938TIP3    H139009   6.351   1.643  17.630 -1.1950  1.8915  0.6882
 4938TIP3    H239010   6.490   1.702  17.622 -0.9966  1.3250 -0.1899
 4939TIP3   OH239011   2.354   1.207  19.233 -0.7806  0.1084 -0.5458
 4939TIP3    H139012   2.363   1.145  19.304 -0.0027  0.7948 -0.0287
 4939TIP3    H239013   2.413   1.176  19.164  2.2918  2.0210  0.9993
 4940TIP3   OH239014   0.782   1.927  18.646 -0.1935  0.5510 -0.0057
 4940TIP3    H139015   0.807   1.847  18.599 -1.0387 -0.0826  0.5913
 4940TIP3    H239016   0.698   1.951  18.609 -0.0024  1.1053 -0.0888
 4941TIP3   OH239017   6.228   4.936  17.283 -0.3572  0.2434 -0.1620
 4941TIP3    H139018   6.147   4.962  17.239 -0.9257 -0.2823  0.5342
 4941TIP3    H239019   6.213   4.958  17.375 -0.4014 -1.4135  0.2646
 4942TIP3   OH239020   3.530   1.641  18.510 -0.3181 -0.4165  0.1309
 4942TIP3    H139021   3.590   1.683  18.571  3.2456 -1.6320 -2.1629
 4942TIP3    H239022   3.492   1.568  18.559  0.9511 -0.2334  1.4463
 4943TIP3   OH239023   2.573   2.251  18.074  0.4673  0.2443  0.7669
 4943TIP3    H139024   2.644   2.314  18.089 -0.2448  1.2982 -0.1729
 4943TIP3    H239025   2.514   2.263  18.148  1.6661 -1.2629  2.0334
 4944TIP3   OH239026   4.088   2.777  19.523  0.0565  0.2546 -0.0150
 4944TIP3    H139027   4.151   2.825  19.468 -2.0316  3.6782  0.3376
 4944TIP3    H239028   4.113   2.798  19.613 -0.7722  0.5114  0.1590
 4945TIP3   OH239029   0.440   1.028  17.084 -0.2314 -0.6669  0.1597
 4945TIP3    H139030   0.518   0.982  17.116 -0.4407 -0.6267  0.7550
 4945TIP3    H239031   0.366   0.979  17.120 -0.4706 -0.4654 -0.0524
 4946TIP3   OH239032   0.244   6.117  19.652 -0.2327 -0.3309 -0.2453
 4946TIP3    H139033   0.159   6.075  19.639 -0.7491  1.1532 -1.9770
 4946TIP3    H239034   0.229   6.185  19.718 -0.2705 -0.3616 -0.2218
 4947TIP3   OH239035   5.786   6.432  16.552  0.3489 -0.4797 -0.0274
 4947TIP3    H139036   5.732   6.356  16.530 -0.8569  0.5985 -1.0308
 4947TIP3    H239037   5.728   6.489  16.602  1.0757 -0.0113  0.2985
 4948TIP3   OH239038   7.036   5.994  18.442 -0.4610 -0.2965 -0.3565
 4948TIP3    H139039   6.981   6.041  18.379  0.4643 -0.3026 -1.2066
 4948TIP3    H239040   7.046   6.054  18.516  1.0855  1.1132 -1.6209
 4949TIP3   OH239041   1.946   2.207  18.128 -0.1671 -0.3835  0.7806
 4949TIP3    H139042   1.874   2.214  18.066 -0.4464 -1.4367  0.9538
 4949TIP3    H239043   1.904   2.220  18.214 -0.2872 -1.5694  0.9266
 4950TIP3   OH239044   1.639   1.198  18.289 -0.5524 -0.1017  0.0545
 4950TIP3    H139045   1.664   1.286  18.260 -0.0502 -0.7356 -1.5007
 4950TIP3    H239046   1.678   1.139  18.225 -0.1145 -1.5453  1.5762
 4951TIP3   OH239047   2.663   2.110  17.870  0.1400 -0.5934  0.2183
 4951TIP3    H139048   2.754   2.138  17.881  0.2785 -1.3522  1.0849
 4951TIP3    H239049   2.619   2.140  17.949 -0.2680 -0.6448  0.0139
 4952TIP3   OH239050   0.111   4.405  18.857  0.4844 -0.3108 -0.0781
 4952TIP3    H139051   0.026   4.402  18.813 -0.5990 -1.0099  1.8925
 4952TIP3    H239052   0.159   4.475  18.813 -0.4800 -0.9614 -2.2892
 4953TIP3   OH239053   2.193   6.290  19.610  0.4770  0.4159  0.2802
 4953TIP3    H139054   2.144   6.208  19.620  0.7142  0.1711 -0.5606
 4953TIP3    H239055   2.126   6.357  19.602  0.2050 -0.0580 -2.1532
 4954TIP3   OH239056   4.541   6.065  18.984 -0.1186  0.1393 -0.3277
 4954TIP3    H139057   4.623   6.114  18.976  1.0041 -1.7078 -0.6814
 4954TIP3    H239058   4.560   5.980  18.945 -1.9070 -0.6947  0.5162
 4955TIP3   OH239059   6.277   6.856  18.478  0.2964 -0.3228 -0.0093
 4955TIP3    H139060   6.254   6.947  18.462  0.7231 -0.3387 -0.7913
 4955TIP3    H239061   6.242   6.808  18.402  0.2510 -0.7796  0.2917
 4956TIP3   OH239062   6.355   7.161  17.467 -0.3243  0.2983 -0.3275
 4956TIP3    H139063   6.404   7.200  17.540 -0.0131  0.8409 -0.8154
 4956TIP3    H239064   6.406   7.084  17.442  0.4531  1.0152 -1.0166
 4957TIP3   OH239065   7.524   2.175  17.731 -0.2532  0.2531 -0.0746
 4957TIP3    H139066   7.472   2.221  17.797 -1.5463 -0.4115 -0.5976
 4957TIP3    H239067   7.547   2.092  17.772 -1.5145 -0.3854 -0.6396
 4958TIP3   OH239068   5.143   5.129  18.070 -0.3477  0.3140 -0.2945
 4958TIP3    H139069   5.203   5.166  18.135  2.6239 -0.4977 -2.3682
 4958TIP3    H239070   5.126   5.040  18.100 -0.7052  0.6054  0.3946
 4959TIP3   OH239071   7.159   0.309  17.073  0.0899  0.0167 -0.1225
 4959TIP3    H139072   7.158   0.219  17.103  0.8827 -0.4038 -1.2841
 4959TIP3    H239073   7.122   0.306  16.985 -2.0499  1.1929  0.6554
 4960TIP3   OH239074   2.600   0.638  17.626  0.6065  0.1750 -0.2084
 4960TIP3    H139075   2.686   0.676  17.644  1.4348 -2.1487  1.2482
 4960TIP3    H239076   2.572   0.601  17.709 -2.0678  1.2191 -0.5320
 4961TIP3   OH239077   7.275   6.760  17.296 -0.5617  0.7930  0.3457
 4961TIP3    H139078   7.278   6.777  17.202 -0.0910  1.6625  0.5134
 4961TIP3    H239079   7.312   6.672  17.306 -1.0294  0.5128 -0.3197
 4962TIP3   OH239080   0.846   4.041  18.670 -0.1505 -0.3895  0.0854
 4962TIP3    H139081   0.820   4.107  18.605 -0.6449 -0.6639 -0.0020
 4962TIP3    H239082   0.771   4.035  18.729  0.8463  0.9339  1.5808
 4963TIP3   OH239083   2.385   4.220  18.932 -0.7802  0.1039  0.4419
 4963TIP3    H139084   2.410   4.169  19.009 -0.6121 -1.2412 -0.4678
 4963TIP3    H239085   2.372   4.154  18.863  1.3683  1.4236 -1.3224
 4964TIP3   OH239086   4.023   2.713  17.340 -0.9177 -0.0846  0.2574
 4964TIP3    H139087   4.088   2.725  17.270 -1.0731  1.3818  0.3371
 4964TIP3    H239088   4.030   2.620  17.363  2.8055  0.4013  1.8335
 4965TIP3   OH239089   5.590   0.754  17.354 -0.1615 -0.0225  0.1552
 4965TIP3    H139090   5.589   0.737  17.448 -2.5586 -0.4725  0.0984
 4965TIP3    H239091   5.498   0.764  17.330  0.4135  0.3985 -2.1011
 4966TIP3   OH239092   6.964   0.688  18.477  0.0061  0.1010  0.1425
 4966TIP3    H139093   6.985   0.693  18.384 -2.2776  0.1124 -0.4242
 4966TIP3    H239094   6.888   0.630  18.482 -0.1375  0.3845  1.9551
 4967TIP3   OH239095   5.654   6.969  17.777 -0.4548 -0.0502 -0.3553
 4967TIP3    H139096   5.643   6.964  17.682 -0.2994  0.0322 -0.3781
 4967TIP3    H239097   5.745   6.998  17.789 -0.6843  0.6254 -0.1943
 4968TIP3   OH239098   1.235   0.853  16.442 -0.1069 -0.0414  0.6816
 4968TIP3    H139099   1.313   0.798  16.451  0.3985  0.2773 -1.3207
 4968TIP3    H239100   1.269   0.942  16.434 -0.7858  0.2915  1.4099
 4969TIP3   OH239101   5.739   4.016  17.614 -0.4056  0.0267  0.6261
 4969TIP3    H139102   5.806   3.948  17.624  0.2275  0.4924 -0.3327
 4969TIP3    H239103   5.760   4.059  17.531  0.2200  2.4641  1.9406
 4970TIP3   OH239104   5.357   6.511  18.400 -0.3610  0.4929 -0.2688
 4970TIP3    H139105   5.278   6.550  18.437  1.0605  3.3170  0.0709
 4970TIP3    H239106   5.374   6.563  18.321  1.0202 -0.1955 -0.4499
 4971TIP3   OH239107   2.154   4.899  18.893  0.2961  0.7370 -0.6537
 4971TIP3    H139108   2.125   4.828  18.837 -1.7463  0.5626  0.5129
 4971TIP3    H239109   2.158   4.976  18.836 -0.7846  0.3679 -1.2389
 4972TIP3   OH239110   2.297   0.033  17.414 -0.2791 -0.0838 -0.0634
 4972TIP3    H139111   2.243   0.004  17.341  0.4535  0.6915 -0.9310
 4972TIP3    H239112   2.268   0.122  17.433 -0.6018 -0.3511  0.7244
 4973TIP3   OH239113   2.570   2.353  18.777 -0.0832  0.0913 -0.4589
 4973TIP3    H139114   2.502   2.287  18.780  0.5438 -0.5404  0.1689
 4973TIP3    H239115   2.536   2.426  18.829 -0.0566 -0.4386  0.3066
 4974TIP3   OH239116   0.994   4.072  17.007  0.2660  0.4168 -0.2912
 4974TIP3    H139117   1.001   4.056  16.913  0.1415 -1.6219  0.0005
 4974TIP3    H239118   0.910   4.116  17.018  0.9298  2.0328 -1.2340
 4975TIP3   OH239119   7.678   6.253  19.021  0.0989  0.7524 -0.2684
 4975TIP3    H139120   7.706   6.213  19.103  1.2488 -0.1010 -1.0510
 4975TIP3    H239121   7.704   6.190  18.954 -0.5118  1.5933 -1.3167
 4976TIP3   OH239122   4.701   5.009  17.467  0.7515  0.3135 -0.1186
 4976TIP3    H139123   4.770   4.961  17.513 -0.6668 -1.2654  0.4619
 4976TIP3    H239124   4.693   5.092  17.516  1.1088 -0.2072  0.8523
 4977TIP3   OH239125   4.818   5.729  18.306  0.6212  0.3186 -0.5321
 4977TIP3    H139126   4.797   5.685  18.388  1.2887  0.3856 -0.3196
 4977TIP3    H239127   4.741   5.783  18.287 -0.1794 -0.8749 -0.7647
 4978TIP3   OH239128   2.084   7.314  19.326  0.1201  0.4045 -0.4884
 4978TIP3    H139129   2.145   7.384  19.351 -0.0665  0.7027 -0.8558
 4978TIP3    H239130   1.997   7.348  19.350 -0.1652  1.0978 -2.3456
 4979TIP3   OH239131   3.028   5.970  17.139  0.3161  0.5415  0.3328
 4979TIP3    H139132   2.983   5.990  17.057  1.1260  1.2621  0.0452
 4979TIP3    H239133   3.057   5.879  17.130  0.5396  0.6636 -0.2570
 4980TIP3   OH239134   7.479   1.748  17.441  0.2596 -0.0750  0.3858
 4980TIP3    H139135   7.528   1.803  17.501  0.3452  1.3133 -0.9015
 4980TIP3    H239136   7.545   1.713  17.381  0.2416 -1.8063  1.2972
 4981TIP3   OH239137   5.742   5.239  18.003  0.0384  0.1653 -0.3734
 4981TIP3    H139138   5.685   5.220  17.929  1.4558  1.6026 -1.9064
 4981TIP3    H239139   5.828   5.256  17.963  0.9800  0.4253  1.6506
 4982TIP3   OH239140   6.113   0.637  17.507 -0.3034  0.3963  0.4325
 4982TIP3    H139141   6.140   0.695  17.579  1.4378 -0.2064  0.3068
 4982TIP3    H239142   6.102   0.695  17.432  0.9631  0.6485  0.4265
 4983TIP3   OH239143   4.112   6.492  17.218  0.1983 -0.1486  0.3155
 4983TIP3    H139144   4.046   6.560  17.210 -0.2547 -0.6016  0.1947
 4983TIP3    H239145   4.146   6.481  17.129  1.7647  1.3746  0.6482
 4984TIP3   OH239146   6.205   7.109  18.481  0.5799 -0.9305  0.0059
 4984TIP3    H139147   6.240   7.153  18.559 -1.0836 -1.2610  0.9802
 4984TIP3    H239148   6.209   7.176  18.412  1.5208 -0.4427  0.5152
 4985TIP3   OH239149   5.885   7.203  19.146 -0.5705  0.5682 -0.4991
 4985TIP3    H139150   5.910   7.151  19.070  1.1971  0.6594 -0.0333
 4985TIP3    H239151   5.874   7.139  19.216  0.9560  0.7258 -0.0861
 4986TIP3   OH239152   4.864   2.013  16.789 -0.0192  0.6094 -0.1920
 4986TIP3    H139153   4.802   2.037  16.858  0.6132 -1.2931  1.1359
 4986TIP3    H239154   4.949   2.042  16.822  0.8810 -3.4680  1.7830
 4987TIP3   OH239155   0.633   1.356  18.513  0.2999 -0.0476 -0.2543
 4987TIP3    H139156   0.637   1.426  18.578 -0.0280 -0.6143  0.3936
 4987TIP3    H239157   0.724   1.330  18.500  0.2403 -1.5540  1.8133
 4988TIP3   OH239158   1.725   2.827  19.432 -0.6753 -0.1057  0.0369
 4988TIP3    H139159   1.772   2.862  19.508 -1.2637  1.7954 -0.4428
 4988TIP3    H239160   1.793   2.809  19.368 -0.4254  1.1693 -0.0823
 4989TIP3   OH239161   7.229   0.503  17.268  0.2998 -0.2683 -0.1169
 4989TIP3    H139162   7.207   0.436  17.203 -0.4049 -0.3353  0.1737
 4989TIP3    H239163   7.195   0.468  17.350  1.3009 -0.2425  0.3155
 4990TIP3   OH239164   2.360   7.045  19.312  0.2123  0.1429  0.0770
 4990TIP3    H139165   2.415   6.983  19.264  0.9555 -0.0963  1.1955
 4990TIP3    H239166   2.406   7.059  19.395 -0.4483  1.4356  0.2500
 4991TIP3   OH239167   0.402   0.196  17.324 -0.2221  0.0684 -0.4063
 4991TIP3    H139168   0.420   0.289  17.312 -1.5098  0.5210  0.8282
 4991TIP3    H239169   0.484   0.160  17.358  0.2877  0.7456 -0.8874
 4992TIP3   OH239170   2.813   7.518  16.845  0.2175  0.2595  0.8767
 4992TIP3    H139171   2.826   7.609  16.817  2.4085 -0.4156 -0.5086
 4992TIP3    H239172   2.899   7.490  16.877 -0.4291 -1.3532  1.2965
 4993TIP3   OH239173   6.704   1.711  16.486  0.8398  0.5994 -0.3228
 4993TIP3    H139174   6.800   1.704  16.489  1.0108  1.7458 -1.8964
 4993TIP3    H239175   6.680   1.754  16.568  1.5879 -0.2052  0.3474
 4994TIP3   OH239176   6.228   7.315  18.959  0.0527 -0.2531 -0.2792
 4994TIP3    H139177   6.184   7.348  19.038 -1.8988 -0.9964 -0.9731
 4994TIP3    H239178   6.268   7.392  18.919  1.5847  0.0567  1.6802
 4995TIP3   OH239179   6.897   5.870  18.807 -0.3671  0.0444  0.1719
 4995TIP3    H139180   6.928   5.808  18.741 -0.7664 -0.5354  0.5171
 4995TIP3    H239181   6.934   5.954  18.781 -0.2525 -0.2413 -0.6009
 4996TIP3   OH239182   7.600   5.995  18.130  0.0689 -0.1798  0.2655
 4996TIP3    H139183   7.530   5.950  18.083  0.1863  0.0056 -0.0897
 4996TIP3    H239184   7.677   5.939  18.119  1.0152  1.4699 -2.7287
 4997TIP3   OH239185   7.408   0.956  19.176 -0.1267 -0.0042  0.2434
 4997TIP3    H139186   7.390   0.972  19.084  0.8214  0.7258  0.1665
 4997TIP3    H239187   7.454   0.872  19.177  1.6517  0.9063 -0.1981
 4998TIP3   OH239188   3.338   3.630  18.504  0.3142 -0.1155 -0.3238
 4998TIP3    H139189   3.399   3.561  18.529 -0.3477 -0.7376 -0.3849
 4998TIP3    H239190   3.281   3.589  18.438 -1.6846 -0.3162  1.4422
 4999TIP3   OH239191   1.482   6.383  19.105 -0.3420 -0.1944 -0.4222
 4999TIP3    H139192   1.392   6.357  19.123 -0.4614 -0.2489 -1.0576
 4999TIP3    H239193   1.487   6.389  19.009  0.6330 -1.2867 -0.4707
 5000TIP3   OH239194   6.932   2.886  18.098  0.9612  0.2150 -0.3775
 5000TIP3    H139195   7.007   2.826  18.095  0.2716 -0.6334 -1.3152
 5000TIP3    H239196   6.909   2.900  18.006 -0.8109 -0.5607 -0.0858
 5001TIP3   OH239197   1.918   0.667  16.233  0.1125  0.0839  0.3145
 5001TIP3    H139198   1.877   0.582  16.213 -1.2104  0.7328  0.1427
 5001TIP3    H239199   1.844   0.728  16.239  0.9354  0.9988  1.6424
 5002TIP3   OH239200   1.691   2.685  18.667 -0.1078  0.5202 -0.0520
 5002TIP3    H139201   1.607   2.730  18.680  0.5503  1.5656  0.7098
 5002TIP3    H239202   1.700   2.678  18.572 -1.2018  0.0964 -0.1409
 5003TIP3   OH239203   5.249   3.538  16.783  0.2207  0.4542 -0.4086
 5003TIP3    H139204   5.163   3.516  16.818  0.7093 -1.6886 -0.4146
 5003TIP3    H239205   5.268   3.625  16.818 -0.3933 -0.5352  2.6247
 5004TIP3   OH239206   3.523   3.810  17.577  0.4371  0.6845 -0.2960
 5004TIP3    H139207   3.436   3.780  17.551  0.3158 -0.2114  1.0321
 5004TIP3    H239208   3.509   3.901  17.605 -0.4463  0.0546  1.4802
 5005TIP3   OH239209   7.006   2.531  16.682  0.1971 -0.0384 -0.1164
 5005TIP3    H139210   6.914   2.510  16.664 -0.0653  0.5923  0.4768
 5005TIP3    H239211   7.049   2.445  16.686 -0.3815 -0.3442 -0.2966
 5006TIP3   OH239212   7.157   3.676  17.382 -0.3699  0.4663  0.2708
 5006TIP3    H139213   7.072   3.668  17.339 -0.2716  2.6125 -0.4357
 5006TIP3    H239214   7.135   3.698  17.473 -0.5905  1.0346  0.0877
 5007TIP3   OH239215   2.155   1.908  18.646 -0.4710 -0.3069  0.0557
 5007TIP3    H139216   2.226   1.876  18.701 -0.7429 -0.2912  0.4251
 5007TIP3    H239217   2.193   1.917  18.559  0.0179 -0.1377  0.2873
 5008TIP3   OH239218   5.633   7.345  19.255  0.5294 -0.6470 -0.1792
 5008TIP3    H139219   5.720   7.331  19.218  0.7704 -1.1426  0.5476
 5008TIP3    H239220   5.650   7.370  19.346 -0.0851 -0.9906  0.0377
 5009TIP3   OH239221   6.053   4.605  18.872  0.1570  0.0165 -0.4947
 5009TIP3    H139222   6.037   4.686  18.824 -0.0331  0.3632  0.1477
 5009TIP3    H239223   6.133   4.621  18.921  1.1002 -0.8029 -1.6883
 5010TIP3   OH239224   4.714   0.118  18.024 -0.0636  0.0158 -0.2026
 5010TIP3    H139225   4.659   0.063  18.080  1.1011 -0.8310  0.1494
 5010TIP3    H239226   4.653   0.157  17.961 -1.0400 -1.0402  0.0518
 5011TIP3   OH239227   5.468   3.856  17.404 -0.5734  0.1563  0.1012
 5011TIP3    H139228   5.380   3.820  17.400 -0.5746  0.2580 -1.1876
 5011TIP3    H239229   5.485   3.867  17.498 -1.3757 -1.1760  0.4303
 5012TIP3   OH239230   0.712   1.119  19.211  0.1055  0.1082  0.0986
 5012TIP3    H139231   0.783   1.158  19.161  1.4020 -1.9009  0.2611
 5012TIP3    H239232   0.681   1.190  19.268  0.2694  1.7203 -1.7206
 5013TIP3   OH239233   5.541   1.314  19.356 -0.4366 -0.0632  0.3460
 5013TIP3    H139234   5.584   1.232  19.382  1.2075  0.5725 -0.1803
 5013TIP3    H239235   5.601   1.352  19.291 -2.1246  0.6232 -0.8762
 5014TIP3   OH239236   3.000   2.029  19.120  0.7553  0.2203 -0.3644
 5014TIP3    H139237   2.945   2.006  19.196  0.9748  1.4258  0.1815
 5014TIP3    H239238   2.939   2.035  19.047  0.3808  0.1143 -0.0645
 5015TIP3   OH239239   3.740   3.788  17.998 -0.6465 -0.3714 -0.2114
 5015TIP3    H139240   3.689   3.865  17.975  0.5616  1.0535  1.5660
 5015TIP3    H239241   3.786   3.813  18.078  2.0075 -1.9173 -1.1140
 5016TIP3   OH239242   7.633   1.542  17.111 -0.4124  0.3562 -0.4757
 5016TIP3    H139243   7.551   1.524  17.064 -1.2726 -0.9375  1.3733
 5016TIP3    H239244   7.700   1.494  17.062 -0.8692  0.8647 -1.6229
 5017TIP3   OH239245   0.018   3.520  19.107  0.4141  0.4432 -0.1065
 5017TIP3    H139246   0.046   3.436  19.143 -1.9062  0.8018  2.9955
 5017TIP3    H239247  -0.049   3.497  19.043 -0.5348 -0.1677  1.0413
 5018TIP3   OH239248   0.388   3.249  18.020 -0.4260  0.7389  0.3718
 5018TIP3    H139249   0.478   3.267  18.048 -0.4823 -1.2799  2.1112
 5018TIP3    H239250   0.379   3.154  18.028 -2.5566  0.8355 -0.3014
 5019TIP3   OH239251   6.573   7.293  19.008 -0.0925  0.2488  0.0315
 5019TIP3    H139252   6.556   7.244  18.927 -0.3442 -0.1140  0.3047
 5019TIP3    H239253   6.564   7.385  18.982  2.1438  0.2788 -0.9341
 5020TIP3   OH239254   6.208   1.230  17.680 -0.7558  0.1775  0.4920
 5020TIP3    H139255   6.293   1.274  17.677  0.3972 -1.8954 -2.6885
 5020TIP3    H239256   6.211   1.177  17.760  0.9051  0.2399  0.5016
 5021TIP3   OH239257   6.855   2.757  17.843 -0.3886 -0.5684 -0.2154
 5021TIP3    H139258   6.822   2.847  17.840 -1.4370 -0.9274  0.1077
 5021TIP3    H239259   6.810   2.713  17.771  0.1695 -0.8270 -0.4105
 5022TIP3   OH239260   4.279   6.071  19.546  0.3137 -0.0926 -0.1392
 5022TIP3    H139261   4.230   6.142  19.587  1.7129  1.1966 -0.5822
 5022TIP3    H239262   4.221   6.037  19.478  0.6117  2.6562 -1.9469
 5023TIP3   OH239263   3.140   3.554  18.350  0.3005 -0.5075  0.8199
 5023TIP3    H139264   3.155   3.460  18.349  1.9959 -0.3375  2.7458
 5023TIP3    H239265   3.047   3.563  18.369 -0.7005 -1.7028 -2.7975
 5024TIP3   OH239266   4.648   4.409  17.476  0.1531  0.3687 -0.6251
 5024TIP3    H139267   4.554   4.394  17.469 -0.0243  0.8015  0.5189
 5024TIP3    H239268   4.684   4.381  17.392 -0.6930 -2.1135 -0.2468
 5025TIP3   OH239269   0.798   0.877  18.795  0.0653  0.0711 -0.1155
 5025TIP3    H139270   0.822   0.902  18.884  0.2448  0.4724 -0.2741
 5025TIP3    H239271   0.704   0.861  18.799  0.4346 -2.2903  0.7059
 5026TIP3   OH239272   1.002   4.454  18.135 -0.0819  0.3033 -0.4135
 5026TIP3    H139273   0.935   4.513  18.171 -0.6859  0.0032 -1.0228
 5026TIP3    H239274   1.035   4.501  18.058 -0.7435 -0.2550 -1.0458
 5027TIP3   OH239275   5.675   2.571  18.536 -0.8850 -0.2552  0.0745
 5027TIP3    H139276   5.714   2.645  18.489 -2.9345  0.5733 -0.4453
 5027TIP3    H239277   5.640   2.514  18.468 -1.7146 -0.3074  0.5341
 5028TIP3   OH239278   0.114   5.903  18.892  0.2917 -0.4670 -0.3318
 5028TIP3    H139279   0.110   5.820  18.844 -0.9880  0.3026 -1.6361
 5028TIP3    H239280   0.039   5.953  18.859  0.2163  0.6711  1.4484
 5029TIP3   OH239281   3.199   5.703  18.329 -0.4410 -0.2416 -0.0790
 5029TIP3    H139282   3.289   5.683  18.354 -0.4632  0.6575  0.7434
 5029TIP3    H239283   3.152   5.712  18.411 -1.6044 -1.9708 -0.4872
 5030TIP3   OH239284   0.732   3.770  17.040  0.3390  0.0718 -1.0770
 5030TIP3    H139285   0.662   3.783  17.104 -0.3100 -2.5066 -1.1423
 5030TIP3    H239286   0.812   3.793  17.087 -0.1220 -1.7987  0.7545
 5031TIP3   OH239287   6.627   4.403  17.745 -0.1780  0.3773  0.2679
 5031TIP3    H139288   6.583   4.320  17.728 -1.5646  0.9823  0.7545
 5031TIP3    H239289   6.567   4.470  17.711  0.2716  1.2339  1.0896
 5032TIP3   OH239290   4.378   2.662  19.324  0.2755 -0.0684 -0.0110
 5032TIP3    H139291   4.370   2.754  19.350 -1.6940 -0.6627  1.7549
 5032TIP3    H239292   4.446   2.627  19.382 -1.2772 -0.4318  1.6890
 5033TIP3   OH239293   6.557   7.332  18.059 -0.4362  0.2358  0.6796
 5033TIP3    H139294   6.649   7.312  18.078 -0.6316 -0.5491  0.8317
 5033TIP3    H239295   6.523   7.253  18.018 -1.2622  0.2086  1.3874
 5034TIP3   OH239296   3.462   1.976  17.243  0.9328 -0.3246  0.3833
 5034TIP3    H139297   3.540   1.950  17.194  0.8528  0.8100 -0.3923
 5034TIP3    H239298   3.408   2.024  17.180 -0.5689 -1.3542  0.8066
 5035TIP3   OH239299   5.640   7.432  18.396 -0.0500  0.1884  0.1842
 5035TIP3    H139300   5.570   7.427  18.460 -0.8302  2.3137 -0.4110
 5035TIP3    H239301   5.713   7.385  18.436 -1.0348  0.0563  1.9056
 5036TIP3   OH239302   3.863   0.622  19.020  0.2383 -0.3783  0.1816
 5036TIP3    H139303   3.901   0.541  18.985  1.1474 -0.3866  1.1112
 5036TIP3    H239304   3.906   0.633  19.105  2.0982  2.4278 -0.9597
 5037TIP3   OH239305   1.812   4.616  17.618 -0.2304 -0.6205  0.1860
 5037TIP3    H139306   1.810   4.524  17.641 -0.1502 -1.0936 -1.5594
 5037TIP3    H239307   1.721   4.638  17.597 -0.4773  0.0631  1.8207
 5038TIP3   OH239308   0.143   6.316  19.865  0.3126  0.2585  0.4186
 5038TIP3    H139309   0.060   6.270  19.855  0.7826 -0.8642  1.4129
 5038TIP3    H239310   0.122   6.408  19.851 -1.2504  0.0846  1.4051
 5039TIP3   OH239311   4.347   4.952  19.245  0.2750  0.0364  0.7027
 5039TIP3    H139312   4.405   5.001  19.303  0.9293  2.5491 -1.8486
 5039TIP3    H239313   4.387   4.960  19.158 -0.6463 -3.4970 -0.2386
 5040TIP3   OH239314   4.742   1.918  17.051  0.8657  0.2512 -0.2821
 5040TIP3    H139315   4.799   1.924  17.128  2.2750 -0.5753 -1.2198
 5040TIP3    H239316   4.766   1.836  17.009 -1.6912 -0.6014 -0.2526
 5041TIP3   OH239317   3.736   3.631  17.617 -0.4135 -0.2381  0.1412
 5041TIP3    H139318   3.693   3.555  17.656 -0.8369 -0.1463 -0.1393
 5041TIP3    H239319   3.665   3.680  17.576  0.1095 -0.7374 -1.4336
 5042TIP3   OH239320   1.812   4.028  17.803 -0.3051 -0.0431 -0.4213
 5042TIP3    H139321   1.750   3.980  17.749 -1.3000 -0.7649  1.2661
 5042TIP3    H239322   1.765   4.044  17.885  1.7224 -0.6818  0.9654
 5043TIP3   OH239323   2.100   0.740  17.013  0.3922 -0.8289 -0.0803
 5043TIP3    H139324   2.129   0.669  17.070  1.5730  1.0046  1.7562
 5043TIP3    H239325   2.130   0.715  16.926 -1.4821 -3.7380 -0.0067
 5044TIP3   OH239326   4.731   5.365  18.060 -0.2984 -0.3068 -1.0327
 5044TIP3    H139327   4.789   5.316  18.003  0.9912 -0.8670  0.6738
 5044TIP3    H239328   4.643   5.335  18.037  0.2607 -1.3312 -1.9317
 5045TIP3   OH239329   0.256   4.230  17.488 -0.0249 -0.7050  0.3125
 5045TIP3    H139330   0.339   4.278  17.482 -0.8835  1.0302  1.3368
 5045TIP3    H239331   0.238   4.225  17.582 -0.8882 -1.4282  0.1236
 5046TIP3   OH239332   6.539   2.540  18.696 -0.4843  0.2372  1.2789
 5046TIP3    H139333   6.529   2.607  18.628  1.1030 -0.3430  0.4366
 5046TIP3    H239334   6.517   2.586  18.777  1.0447  1.9678  0.7845
 5047TIP3   OH239335   2.370   5.999  17.441  0.2533 -0.5404  0.0091
 5047TIP3    H139336   2.448   6.044  17.408  0.5283  0.5794  1.9780
 5047TIP3    H239337   2.300   6.028  17.383  1.3742 -2.3233 -2.3999
 5048TIP3   OH239338   1.972   7.568  19.519  0.1231  0.5014 -0.4694
 5048TIP3    H139339   1.959   7.661  19.534  0.6256  0.6417 -0.8970
 5048TIP3    H239340   2.064   7.560  19.494  0.6052 -0.3393  1.4050
 5049TIP3   OH239341   2.807   7.308  18.998  0.2376 -0.1891 -0.4375
 5049TIP3    H139342   2.760   7.367  19.057  1.0369 -0.1852  0.2164
 5049TIP3    H239343   2.822   7.229  19.051 -0.2878 -0.7534 -1.1057
 5050TIP3   OH239344   4.805   4.269  17.861 -0.0316 -0.1235  0.7479
 5050TIP3    H139345   4.807   4.308  17.948  0.8342 -0.9694  1.1301
 5050TIP3    H239346   4.713   4.252  17.844 -0.1794 -0.2478  1.6313
 5051TIP3   OH239347   2.565   1.351  17.146  0.2784  0.2180 -0.2909
 5051TIP3    H139348   2.472   1.335  17.131  0.3036 -1.2566  0.8333
 5051TIP3    H239349   2.601   1.264  17.162  1.6196  0.8956  0.4964
 5052TIP3   OH239350   4.084   5.750  18.107 -0.1545 -0.7011 -0.5116
 5052TIP3    H139351   4.114   5.735  18.197 -0.8405 -0.2547 -0.2019
 5052TIP3    H239352   4.017   5.683  18.092 -3.1832  1.7569  0.8512
 5053TIP3   OH239353   0.170   7.228  18.583  0.1743  0.1677 -0.1139
 5053TIP3    H139354   0.104   7.296  18.571 -0.8535 -0.8358 -0.4016
 5053TIP3    H239355   0.170   7.180  18.500  2.0624  0.7984 -0.5105
 5054TIP3   OH239356   0.519   5.693  18.168 -0.6644  0.4047 -0.0892
 5054TIP3    H139357   0.476   5.777  18.149 -0.6851  0.5188  0.4462
 5054TIP3    H239358   0.604   5.699  18.125 -1.1032  0.2522 -1.0062
 5055TIP3   OH239359   2.335   3.207  17.012  0.1887  0.0930  0.1895
 5055TIP3    H139360   2.274   3.161  17.070 -1.0438 -1.1246 -1.9360
 5055TIP3    H239361   2.303   3.187  16.924  0.4785  3.8314 -0.9369
 5056TIP3   OH239362   1.452   4.651  19.046 -0.2579  0.1154  0.8170
 5056TIP3    H139363   1.404   4.726  19.011 -0.9169  0.5894  2.6514
 5056TIP3    H239364   1.544   4.674  19.033 -0.4560  1.0649  0.9911
 5057TIP3   OH239365   6.958   5.568  19.642 -0.2235  0.2635  0.0856
 5057TIP3    H139366   7.009   5.634  19.595 -1.4928  0.5084 -1.0360
 5057TIP3    H239367   6.928   5.508  19.573 -2.5467  0.8987  0.4563
 5058TIP3   OH239368   0.188   5.401  18.654  0.1542 -0.2358 -0.3127
 5058TIP3    H139369   0.114   5.446  18.613  1.2949  0.4299 -1.7326
 5058TIP3    H239370   0.152   5.364  18.735 -1.5300  0.7020 -0.5910
 5059TIP3   OH239371   7.663   3.118  17.351 -0.3606 -0.0080  0.3874
 5059TIP3    H139372   7.619   3.057  17.293  1.1370 -0.5455 -0.2235
 5059TIP3    H239373   7.734   3.155  17.299  0.0496  0.6862  1.3920
 5060TIP3   OH239374   5.604   4.032  17.847  0.8070 -0.2386  0.0569
 5060TIP3    H139375   5.666   4.013  17.776  3.0610  3.1518  0.8453
 5060TIP3    H239376   5.660   4.055  17.921 -1.4889 -1.3101  2.2396
 5061TIP3   OH239377   7.052   0.660  16.887  0.0835  0.7225  0.1268
 5061TIP3    H139378   7.084   0.660  16.977 -0.4290  0.4099  0.3111
 5061TIP3    H239379   6.968   0.705  16.891  0.3660  1.3034 -0.3128
 5062TIP3   OH239380   7.139   6.176  19.412 -0.1836  0.6312  0.0573
 5062TIP3    H139381   7.102   6.215  19.333 -0.1679  0.6788  0.0739
 5062TIP3    H239382   7.087   6.097  19.426  1.1641 -0.5401 -1.2042
 5063TIP3   OH239383   6.081   4.374  17.578 -0.3757  0.2263 -0.2749
 5063TIP3    H139384   6.103   4.458  17.536 -0.8686  0.6760  0.3412
 5063TIP3    H239385   6.019   4.333  17.517  1.0924 -0.4526 -1.3685
 5064TIP3   OH239386   2.278   6.354  18.649  0.0910  0.0690  0.7055
 5064TIP3    H139387   2.306   6.263  18.654  1.1175  0.4068  1.7021
 5064TIP3    H239388   2.183   6.351  18.657 -0.1095 -1.0282 -1.4005
 5065TIP3   OH239389   5.941   1.046  16.740 -0.3307  0.4328  0.2753
 5065TIP3    H139390   5.851   1.068  16.763 -1.5690 -3.1336 -0.5197
 5065TIP3    H239391   5.940   1.040  16.645  1.0273  1.1833  0.1904
 5066TIP3   OH239392   6.758   2.662  19.532 -0.3814  0.0712 -0.1933
 5066TIP3    H139393   6.820   2.714  19.481  0.6529  0.1747  1.1037
 5066TIP3    H239394   6.808   2.585  19.561  0.6125  2.0391  4.2739
 5067TIP3   OH239395   4.415   5.696  17.700 -0.1632 -0.7538  0.7746
 5067TIP3    H139396   4.460   5.676  17.782  2.6682  2.8928  0.3525
 5067TIP3    H239397   4.356   5.769  17.722  1.2947  0.8908 -0.4692
 5068TIP3   OH239398   5.206   4.465  18.451 -0.3936  0.6591  0.3810
 5068TIP3    H139399   5.215   4.381  18.407 -1.9108 -0.5089  2.1445
 5068TIP3    H239400   5.281   4.469  18.510 -0.0959  0.7426  0.0011
 5069TIP3   OH239401   7.052   0.155  18.932  0.0035  0.5245  0.1262
 5069TIP3    H139402   6.964   0.181  18.959 -0.5323 -2.2677  1.3734
 5069TIP3    H239403   7.085   0.102  19.004  2.2538  0.4813 -0.8512
 5070TIP3   OH239404   0.722   5.220  19.342 -0.0833  0.3186 -0.1601
 5070TIP3    H139405   0.721   5.254  19.431  0.0325  0.7799 -0.3277
 5070TIP3    H239406   0.638   5.176  19.331  0.4768 -0.9906  0.6403
 5071TIP3   OH239407   4.250   3.205  17.867 -0.5653 -0.2388  0.1062
 5071TIP3    H139408   4.185   3.136  17.854 -0.8415  0.2742 -1.3219
 5071TIP3    H239409   4.327   3.159  17.901 -0.4475 -1.4115 -1.6272
 5072TIP3   OH239410   3.268   6.719  16.472 -0.3258 -0.1631  0.7866
 5072TIP3    H139411   3.315   6.659  16.415 -1.7708  0.4944 -1.2241
 5072TIP3    H239412   3.331   6.788  16.492 -0.0038  0.0159 -0.7388
 5073TIP3   OH239413   6.526   5.582  17.137  0.4099 -0.1439 -0.2929
 5073TIP3    H139414   6.556   5.640  17.207 -1.0215  0.6741 -0.3230
 5073TIP3    H239415   6.560   5.621  17.057  0.3661  0.0411 -0.2237
 5074TIP3   OH239416   2.015   6.871  17.175  0.7630  0.1499 -0.3727
 5074TIP3    H139417   1.928   6.874  17.133  0.4052  0.7746  0.3737
 5074TIP3    H239418   2.073   6.911  17.111  0.6960 -1.1616 -1.2879
 5075TIP3   OH239419   7.602   6.770  19.661 -0.0820 -0.2628 -0.5311
 5075TIP3    H139420   7.600   6.857  19.699 -0.0044 -0.4010 -0.2077
 5075TIP3    H239421   7.516   6.760  19.620  0.2134  0.2881 -1.3056
 5076TIP3   OH239422   5.608   2.171  18.374  0.3207  0.3490 -0.7850
 5076TIP3    H139423   5.582   2.243  18.431 -0.6544  0.6559 -1.5866
 5076TIP3    H239424   5.527   2.123  18.357  0.7057 -0.1008 -1.3921
 5077TIP3   OH239425   2.339   0.463  19.238  0.0793  0.3691 -0.7966
 5077TIP3    H139426   2.288   0.530  19.192  0.1620  1.0596  0.1091
 5077TIP3    H239427   2.277   0.390  19.248  0.3491 -0.2268 -2.8890
 5078TIP3   OH239428   5.046   6.444  18.227  0.2320  0.0589 -0.5373
 5078TIP3    H139429   4.978   6.465  18.163 -0.4817  1.3433  0.5959
 5078TIP3    H239430   4.998   6.420  18.306  1.0877 -2.3004 -0.6574
 5079TIP3   OH239431   7.661   0.200  19.196 -0.2987  0.3151 -0.5367
 5079TIP3    H139432   7.640   0.265  19.130  2.6920  1.3271 -0.6827
 5079TIP3    H239433   7.640   0.116  19.156 -0.2707  0.9999 -2.0520
 5080TIP3   OH239434   4.017   5.112  17.548 -0.1908  0.0477 -0.1518
 5080TIP3    H139435   3.938   5.068  17.580 -1.0732  1.7435  0.0720
 5080TIP3    H239436   4.018   5.093  17.454 -0.0112 -1.2208  0.0772
 5081TIP3   OH239437   7.467   3.736  18.775 -0.1279  0.9182 -0.7019
 5081TIP3    H139438   7.499   3.817  18.815  3.2420 -1.2008  1.3768
 5081TIP3    H239439   7.536   3.710  18.715  0.0879 -1.5680  0.5000
 5082TIP3   OH239440   2.065   5.580  19.253  0.2043  0.0491 -0.1889
 5082TIP3    H139441   2.083   5.498  19.206 -2.0692 -1.6780  1.7112
 5082TIP3    H239442   2.152   5.612  19.279  1.3177 -0.4604 -2.9033
 5083TIP3   OH239443   7.390   4.504  19.211 -0.4180  0.5772 -0.7189
 5083TIP3    H139444   7.313   4.555  19.188 -0.4318  1.2756  0.7441
 5083TIP3    H239445   7.382   4.490  19.305 -0.5756 -2.4476 -1.0878
 5084TIP3   OH239446   6.924   2.518  18.896 -0.0850 -0.0202  0.0937
 5084TIP3    H139447   6.938   2.590  18.834  0.2923 -0.1786 -0.0081
 5084TIP3    H239448   6.865   2.458  18.851 -0.8897  0.5144  0.4129
 5085TIP3   OH239449   6.855   5.634  19.395 -0.6515  0.0733 -0.6464
 5085TIP3    H139450   6.905   5.628  19.314 -0.9684 -0.0577 -0.8333
 5085TIP3    H239451   6.764   5.625  19.368 -0.6791 -1.7442 -0.1036
 5086TIP3   OH239452   3.740   0.941  18.356 -0.4142 -0.2897  0.1271
 5086TIP3    H139453   3.698   1.015  18.314 -0.0439 -0.4986 -0.6184
 5086TIP3    H239454   3.689   0.865  18.328 -0.4663 -0.3773  0.4560
 5087TIP3   OH239455   3.531   6.392  17.877  0.1668 -0.1855  0.5097
 5087TIP3    H139456   3.455   6.353  17.834  0.5552 -0.0260 -0.3428
 5087TIP3    H239457   3.504   6.482  17.894  0.9297  0.5703 -1.8876
 5088TIP3   OH239458   1.898   0.867  18.296  0.5911 -0.1943 -0.3970
 5088TIP3    H139459   1.897   0.904  18.208  0.2468 -1.0452 -0.7570
 5088TIP3    H239460   1.806   0.849  18.316  0.6579  0.0491  0.1643
 5089TIP3   OH239461   6.363   0.198  19.097 -0.4999 -0.7107 -0.0077
 5089TIP3    H139462   6.410   0.151  19.165  3.1400  0.7895 -1.2811
 5089TIP3    H239463   6.345   0.284  19.134  3.6630  1.0244 -1.3987
 5090TIP3   OH239464   1.933   3.747  17.801 -0.4822  0.5708 -0.0195
 5090TIP3    H139465   1.995   3.772  17.732 -0.3978  0.3997 -0.0057
 5090TIP3    H239466   1.851   3.789  17.775 -0.6657 -0.1533 -0.6665
 5091TIP3   OH239467   6.619   5.663  18.112  0.1457  0.5969 -0.3795
 5091TIP3    H139468   6.673   5.634  18.038 -0.8693  1.4843 -1.4969
 5091TIP3    H239469   6.657   5.618  18.188  3.8170  2.6816 -0.7245
 5092TIP3   OH239470   1.370   4.605  18.248 -0.0401 -0.2976 -0.5899
 5092TIP3    H139471   1.326   4.641  18.325 -1.2595  0.2577 -1.5182
 5092TIP3    H239472   1.333   4.517  18.237  2.1959 -1.5484  1.0740
 5093TIP3   OH239473   7.123   0.745  17.164  0.1377  0.1980  0.3888
 5093TIP3    H139474   7.057   0.786  17.220  1.0908 -0.7773  2.3384
 5093TIP3    H239475   7.158   0.673  17.217  1.1323 -0.7751 -1.4773
 5094TIP3   OH239476   5.091   0.319  17.767  0.1572  0.3159  0.3627
 5094TIP3    H139477   5.028   0.389  17.752  0.6608  0.6952 -0.0117
 5094TIP3    H239478   5.153   0.327  17.694  0.7229  0.0431  0.8101
 5095TIP3   OH239479   2.292   5.364  17.545 -0.0876 -0.3979  0.4339
 5095TIP3    H139480   2.208   5.380  17.502  0.5663 -0.9097 -1.1143
 5095TIP3    H239481   2.289   5.272  17.569 -0.3297 -0.1857  1.2454
 5096TIP3   OH239482   7.424   1.247  18.965 -0.2057 -0.1735  1.2961
 5096TIP3    H139483   7.491   1.200  18.915  0.6181  1.9648  0.2700
 5096TIP3    H239484   7.341   1.218  18.926  0.3737  0.5912 -0.6469
 5097TIP3   OH239485   7.281   2.652  17.458 -0.5943 -0.3925  0.2044
 5097TIP3    H139486   7.342   2.688  17.393  0.6287  0.5706  1.8051
 5097TIP3    H239487   7.335   2.596  17.513 -1.0523  0.6799  1.8161
 5098TIP3   OH239488   0.223   2.939  17.805  0.5042 -0.2491 -0.1178
 5098TIP3    H139489   0.215   3.027  17.767  1.2434 -0.0934  0.0767
 5098TIP3    H239490   0.181   2.882  17.741 -2.0420  0.4805  0.7839
 5099TIP3   OH239491   3.250   0.638  17.444 -0.1571  0.0819 -0.0207
 5099TIP3    H139492   3.249   0.556  17.396 -0.2953 -0.3132  0.6439
 5099TIP3    H239493   3.170   0.683  17.417  0.9118  0.9686 -1.9813
 5100TIP3   OH239494   7.274   5.728  18.724 -0.0095  0.2428  0.0799
 5100TIP3    H139495   7.202   5.729  18.661 -0.6453  1.5857  0.7832
 5100TIP3    H239496   7.326   5.805  18.702  0.0389  0.4434  0.8746
 5101TIP3   OH239497   7.530   3.175  18.802  0.5685 -0.5689  0.2495
 5101TIP3    H139498   7.496   3.125  18.728 -1.4861  0.2856  0.5405
 5101TIP3    H239499   7.457   3.232  18.828  1.4615 -0.3412  2.4862
 5102TIP3   OH239500   4.108   0.072  18.079 -0.3559  0.3176 -0.4277
 5102TIP3    H139501   4.025   0.099  18.119 -1.0124 -0.7055 -1.0497
 5102TIP3    H239502   4.098   0.095  17.986  0.1539  0.4025 -0.4648
 5103TIP3   OH239503   5.162   4.878  17.640  0.1834 -0.5150  0.5097
 5103TIP3    H139504   5.105   4.953  17.626 -0.0199 -0.3315  2.1272
 5103TIP3    H239505   5.223   4.880  17.566  0.1428  1.1970  0.4813
 5104TIP3   OH239506   1.783   1.283  18.824 -0.0344  0.3491  0.1528
 5104TIP3    H139507   1.771   1.377  18.814 -1.0193  0.5100  2.4295
 5104TIP3    H239508   1.712   1.244  18.772 -0.9078  0.9330  0.8801
 5105TIP3   OH239509   5.156   2.845  19.349  0.1719 -0.7032  0.5802
 5105TIP3    H139510   5.200   2.780  19.403  1.1748 -0.0170  0.6164
 5105TIP3    H239511   5.099   2.893  19.409  0.5999 -0.5339  0.8502
 5106TIP3   OH239512   3.890   4.341  17.386 -1.0348  0.3093  0.0177
 5106TIP3    H139513   3.973   4.293  17.386 -0.0298  1.9489 -0.8431
 5106TIP3    H239514   3.837   4.297  17.452  1.3395  0.5667  2.2968
 5107TIP3   OH239515   2.092   2.411  19.449  0.1225 -0.1124 -0.1384
 5107TIP3    H139516   2.075   2.503  19.429 -0.3201 -0.3584 -0.9433
 5107TIP3    H239517   2.008   2.368  19.439  0.3847 -0.6571 -0.0397
 5108TIP3   OH239518   2.085   6.065  19.258 -0.0159  0.0655  0.3390
 5108TIP3    H139519   2.112   6.057  19.350  0.0288 -1.9391  0.1879
 5108TIP3    H239520   2.164   6.096  19.213 -0.2024  1.6428  1.0302
 5109TIP3   OH239521   0.998   5.187  19.283 -0.0760  0.6535  0.0578
 5109TIP3    H139522   0.909   5.217  19.303 -0.4857 -0.3524 -0.1583
 5109TIP3    H239523   1.021   5.130  19.356  0.7143  1.5273  0.4989
 5110TIP3   OH239524   5.989   5.552  19.213  0.2130 -0.0676 -0.4288
 5110TIP3    H139525   5.928   5.482  19.234 -1.1240  0.1860 -3.1320
 5110TIP3    H239526   5.960   5.626  19.267 -1.4169 -0.1914 -1.0865
 5111TIP3   OH239527   1.058   0.390  18.362 -0.1401  0.4508  0.1137
 5111TIP3    H139528   1.046   0.328  18.434 -0.5827  0.9175  0.4456
 5111TIP3    H239529   1.152   0.411  18.364 -0.0101 -0.1185  0.0678
 5112TIP3   OH239530   0.670   1.291  17.745  0.8366 -0.2468 -0.2004
 5112TIP3    H139531   0.629   1.250  17.821 -0.1491  0.4958 -0.3030
 5112TIP3    H239532   0.669   1.385  17.765  0.6716 -0.0521 -1.0734
 5113TIP3   OH239533   1.885   7.248  18.696 -0.1484  0.5193 -0.0820
 5113TIP3    H139534   1.952   7.200  18.744  0.2904  0.1777 -1.0038
 5113TIP3    H239535   1.900   7.224  18.604 -1.1118  0.9608 -0.3638
 5114TIP3   OH239536   4.515   1.358  17.643  0.1286 -0.6869  0.2137
 5114TIP3    H139537   4.427   1.357  17.605 -0.1075 -0.5169  0.7379
 5114TIP3    H239538   4.547   1.447  17.627  0.1076 -0.6755  0.2356
 5115TIP3   OH239539   6.670   1.455  17.246 -0.2904  0.2724  0.0587
 5115TIP3    H139540   6.606   1.522  17.267 -1.5109 -0.6916 -0.4832
 5115TIP3    H239541   6.671   1.452  17.150 -0.2460 -0.4680  0.0770
 5116TIP3   OH239542   0.232   0.332  17.630 -0.3820  1.0892  0.6544
 5116TIP3    H139543   0.198   0.374  17.551  0.4846 -0.3791 -0.5577
 5116TIP3    H239544   0.320   0.367  17.639  0.3090 -0.2819 -0.3056
 5117TIP3   OH239545   6.233   5.247  18.222  0.0646 -0.1125 -0.2169
 5117TIP3    H139546   6.177   5.299  18.280  0.3996  0.8673 -0.7401
 5117TIP3    H239547   6.186   5.164  18.211 -1.3199  0.6927 -0.6723
 5118TIP3   OH239548   2.774   6.171  19.523 -0.5165 -0.5086 -0.1115
 5118TIP3    H139549   2.869   6.178  19.524 -0.6230  1.1126  1.1446
 5118TIP3    H239550   2.755   6.093  19.576  0.0240  1.0386  2.4943
 5119TIP3   OH239551   2.700   0.419  18.228 -0.2173 -0.7210 -0.2862
 5119TIP3    H139552   2.684   0.509  18.200  0.0536 -0.9559 -1.2501
 5119TIP3    H239553   2.771   0.389  18.172 -1.2352 -1.9816 -0.9640
 5120TIP3   OH239554   3.661   7.543  17.760 -0.2745  0.0969 -0.5740
 5120TIP3    H139555   3.723   7.542  17.833 -0.6573 -0.9731 -0.2423
 5120TIP3    H239556   3.599   7.613  17.782 -0.8437 -0.7196  0.5433
 5121TIP3   OH239557   2.656   1.118  17.404  0.2280  0.0325  0.1386
 5121TIP3    H139558   2.673   1.208  17.431 -0.1142  0.1120  0.0918
 5121TIP3    H239559   2.630   1.125  17.312  2.3081 -0.3238 -0.5338
 5122TIP3   OH239560   2.348   4.009  19.205  0.1864  0.4699 -0.1543
 5122TIP3    H139561   2.257   3.980  19.216 -0.0484  0.5350 -1.7461
 5122TIP3    H239562   2.368   4.055  19.287 -1.4693  1.1100 -0.0742
 5123TIP3   OH239563   5.751   3.931  18.711 -0.2835  0.0603 -0.2170
 5123TIP3    H139564   5.774   3.842  18.738 -3.2547 -0.4177  1.2178
 5123TIP3    H239565   5.775   3.936  18.619  0.9185 -1.8602 -0.0411
 5124TIP3   OH239566   5.851   3.971  18.251 -0.0042 -0.1738  0.3947
 5124TIP3    H139567   5.947   3.969  18.257 -0.0023  1.7476  2.4835
 5124TIP3    H239568   5.822   3.889  18.291  0.7455 -0.6505 -0.0208
 5125TIP3   OH239569   1.549   5.021  19.248  0.0856 -0.1564 -0.4054
 5125TIP3    H139570   1.457   5.035  19.225 -0.0214 -1.9949 -1.2511
 5125TIP3    H239571   1.565   4.928  19.231  1.3989 -0.5255  2.2593
 5126TIP3   OH239572   4.107   3.279  17.504  0.4691 -0.3368 -0.3836
 5126TIP3    H139573   4.155   3.315  17.579 -0.0740  1.2397 -0.7444
 5126TIP3    H239574   4.175   3.241  17.448  1.3497  1.6055 -0.7488
 5127TIP3   OH239575   2.104   6.252  17.397  0.0448  0.3998  0.2590
 5127TIP3    H139576   2.158   6.234  17.319  0.3142 -1.6523  0.8850
 5127TIP3    H239577   2.151   6.322  17.442  1.4670 -0.3990  0.0672
 5128TIP3   OH239578   7.223   4.978  18.854  0.7038 -0.0715 -0.4382
 5128TIP3    H139579   7.309   5.002  18.889 -0.0278  2.9484 -0.4177
 5128TIP3    H239580   7.179   4.934  18.926  0.7238  2.3353  1.1650
 5129TIP3   OH239581   4.273   4.954  18.677  0.2699  0.1629 -0.2576
 5129TIP3    H139582   4.261   5.016  18.749  0.1882 -0.2766  0.1142
 5129TIP3    H239583   4.263   4.868  18.718 -1.1065 -0.0710 -1.0464
 5130TIP3   OH239584   6.786   2.342  18.708  0.3114  0.5725 -0.7859
 5130TIP3    H139585   6.699   2.378  18.722 -0.0272  0.0609 -1.5263
 5130TIP3    H239586   6.778   2.250  18.732  1.0903  0.8595  0.7769
 5131TIP3   OH239587   2.675   5.017  18.038 -0.1975 -0.2747  0.3349
 5131TIP3    H139588   2.594   5.064  18.057 -0.4282  0.9280 -2.8778
 5131TIP3    H239589   2.742   5.063  18.087 -0.9531  1.2173  0.0395
 5132TIP3   OH239590   1.689   3.064  18.908  0.3161 -0.0824  0.6066
 5132TIP3    H139591   1.732   3.112  18.837 -0.4345 -0.8352 -0.3868
 5132TIP3    H239592   1.733   3.094  18.988  1.4237  0.5119 -0.2042
 5133TIP3   OH239593   1.193   0.509  18.009 -0.0199  0.0975  0.1057
 5133TIP3    H139594   1.243   0.440  17.965 -0.9822 -0.6304  0.1396
 5133TIP3    H239595   1.119   0.464  18.050  0.7479  0.7360  2.3887
 5134TIP3   OH239596   6.264   5.375  19.503 -0.9023  0.3602  0.3673
 5134TIP3    H139597   6.276   5.388  19.597  1.1498  1.0549  0.0487
 5134TIP3    H239598   6.292   5.457  19.463 -0.1609 -0.4884 -0.9358
 5135TIP3   OH239599   1.208   3.606  19.358  0.2929 -0.3562 -0.0259
 5135TIP3    H139600   1.117   3.627  19.378  0.4632 -0.6249  1.1171
 5135TIP3    H239601   1.208   3.585  19.265 -0.4480  1.5765 -0.4942
 5136TIP3   OH239602   4.677   3.989  17.761 -0.3496  0.3073 -0.0960
 5136TIP3    H139603   4.656   3.932  17.687 -2.2805  0.9224 -0.0835
 5136TIP3    H239604   4.768   4.015  17.747  0.3328 -2.0750 -0.5340
 5137TIP3   OH239605   6.119   5.971  19.389 -0.3745  0.0985 -0.9349
 5137TIP3    H139606   6.164   6.050  19.360 -0.5951  0.8360  0.6055
 5137TIP3    H239607   6.187   5.904  19.392  0.5461  1.0449  0.7695
 5138TIP3   OH239608   6.606   1.801  17.752 -0.1134 -0.1904  0.0730
 5138TIP3    H139609   6.673   1.845  17.701 -0.2786  0.0953  0.1014
 5138TIP3    H239610   6.650   1.723  17.787  0.0322 -0.3255 -0.4037
 5139TIP3   OH239611   2.700   3.749  18.184 -0.2729 -0.0230  0.4107
 5139TIP3    H139612   2.784   3.789  18.209  0.7225 -0.8332 -1.4659
 5139TIP3    H239613   2.725   3.672  18.133 -2.1821 -0.7725  0.5467
 5140TIP3   OH239614   4.513   2.167  18.680  0.1973 -0.3093 -0.7445
 5140TIP3    H139615   4.452   2.096  18.701  0.0446 -0.3279 -1.2449
 5140TIP3    H239616   4.539   2.151  18.589 -0.9704  1.0690 -1.3834
 5141TIP3   OH239617   5.519   0.463  18.622 -0.2619 -0.6762  0.2295
 5141TIP3    H139618   5.531   0.558  18.627  0.3604 -0.7621  0.4827
 5141TIP3    H239619   5.424   0.451  18.613 -0.2346  0.0183 -1.2184
 5142TIP3   OH239620   0.119   1.228  19.455  0.1413 -0.4514  0.5073
 5142TIP3    H139621   0.080   1.264  19.535  1.0896 -1.2229  1.3450
 5142TIP3    H239622   0.144   1.305  19.404 -0.3265  0.0554  1.0223
 5143TIP3   OH239623   3.992   6.931  18.237  0.6316  0.2669  0.6987
 5143TIP3    H139624   3.921   6.914  18.299  0.1093  1.0074  0.3108
 5143TIP3    H239625   4.011   7.024  18.247 -0.0134  0.5881 -0.8055
 5144TIP3   OH239626   3.715   6.875  17.236  0.0254 -0.8479 -0.2155
 5144TIP3    H139627   3.715   6.827  17.153  0.3143 -0.3234 -0.5278
 5144TIP3    H239628   3.661   6.952  17.218 -0.1557 -0.8836  0.1764
 5145TIP3   OH239629   7.052   6.639  17.377  0.4732 -0.5775 -0.7701
 5145TIP3    H139630   7.080   6.592  17.456  1.1527 -2.7094 -2.1687
 5145TIP3    H239631   7.121   6.703  17.362  0.1179  0.1574  0.5756
 5146TIP3   OH239632   0.757   3.384  19.607  0.7133  0.2107 -0.4123
 5146TIP3    H139633   0.673   3.339  19.619  0.5684  0.4938 -0.3426
 5146TIP3    H239634   0.745   3.434  19.526  0.6720  0.5671 -0.1879
 5147TIP3   OH239635   5.494   5.273  18.406  0.5885  0.0011  0.2192
 5147TIP3    H139636   5.508   5.179  18.418  2.7337  0.3260  0.5388
 5147TIP3    H239637   5.440   5.279  18.327  1.4597 -1.4578 -0.5359
 5148TIP3   OH239638   3.522   5.822  17.637  0.0990  0.2985 -0.1289
 5148TIP3    H139639   3.603   5.822  17.688  0.0503  0.5375 -0.0499
 5148TIP3    H239640   3.536   5.756  17.569  0.0459 -0.2487  0.3792
 5149TIP3   OH239641   6.020   3.319  17.805  0.1434  0.5010  0.1329
 5149TIP3    H139642   5.975   3.397  17.839 -0.0027  0.2507  0.5254
 5149TIP3    H239643   6.112   3.344  17.799  0.3651  0.1974  1.8142
 5150TIP3   OH239644   7.596   6.271  19.534  0.1249 -0.2371 -0.4211
 5150TIP3    H139645   7.660   6.316  19.589 -0.3124  0.0906 -0.1792
 5150TIP3    H239646   7.609   6.178  19.554 -0.9839 -0.0632  1.3150
 5151TIP3   OH239647   0.019   1.427  18.700  0.2122  0.0710  0.0187
 5151TIP3    H139648  -0.010   1.337  18.684 -0.7901  0.4236 -0.1490
 5151TIP3    H239649   0.055   1.456  18.617  1.3300 -0.4527  0.2965
 5152TIP3   OH239650   1.391   1.124  18.298  0.1991  0.3480  0.2976
 5152TIP3    H139651   1.482   1.130  18.329 -0.1355  0.7049  1.2394
 5152TIP3    H239652   1.338   1.127  18.378 -0.6019 -1.5024 -0.1020
 5153TIP3   OH239653   7.185   2.327  17.548  0.4447 -0.2759  0.0495
 5153TIP3    H139654   7.216   2.258  17.489  1.2935  2.4123 -2.9359
 5153TIP3    H239655   7.263   2.376  17.571 -0.3399  0.6986  0.7309
 5154TIP3   OH239656   5.257   0.145  17.256  0.0286 -0.4843 -0.3046
 5154TIP3    H139657   5.272   0.170  17.165  2.2243  0.2800  0.1948
 5154TIP3    H239658   5.163   0.129  17.262 -0.4441  1.1132 -2.3000
 5155TIP3   OH239659   6.947   3.272  18.141 -0.1818  0.4546  0.0608
 5155TIP3    H139660   6.954   3.184  18.176  0.9329  0.5021 -0.0088
 5155TIP3    H239661   6.995   3.269  18.058  1.2171  1.4881  0.7911
 5156TIP3   OH239662   5.170   3.836  17.480  0.0949 -0.0079  0.0946
 5156TIP3    H139663   5.079   3.863  17.491  0.2266  0.7281 -0.5389
 5156TIP3    H239664   5.165   3.744  17.453 -0.4044 -0.2932  1.0961
 5157TIP3   OH239665   0.989   6.249  19.332  0.6554 -0.2408 -0.3660
 5157TIP3    H139666   1.016   6.166  19.372  1.0076 -0.3590 -0.8292
 5157TIP3    H239667   1.011   6.316  19.397 -0.0802 -0.5482  0.2141
 5158TIP3   OH239668   4.241   5.124  18.916 -0.1357 -0.1115  0.2654
 5158TIP3    H139669   4.223   5.218  18.923 -1.4576 -0.2256 -1.0351
 5158TIP3    H239670   4.155   5.083  18.925  0.1753 -1.0824 -0.9597
 5159TIP3   OH239671   2.746   0.914  17.969  0.1087  0.1397  0.0086
 5159TIP3    H139672   2.665   0.949  18.005 -0.1834 -1.7160  1.2931
 5159TIP3    H239673   2.810   0.921  18.039  1.3050  2.1821 -1.2008
 5160TIP3   OH239674   1.162   6.668  17.828  0.0648  0.2541 -0.1102
 5160TIP3    H139675   1.250   6.631  17.821  0.9687  1.9904  1.2718
 5160TIP3    H239676   1.176   6.759  17.856 -2.2302 -0.2993  3.4036
 5161TIP3   OH239677   5.883   7.552  18.202  0.0453 -0.3018  0.1475
 5161TIP3    H139678   5.860   7.482  18.140  1.5958  0.1908 -1.0611
 5161TIP3    H239679   5.962   7.591  18.165  1.1967 -0.1373  2.5939
 5162TIP3   OH239680   6.138   7.036  18.104  0.0436 -0.1434  0.0876
 5162TIP3    H139681   6.064   6.997  18.151  0.6304  0.6195  1.7503
 5162TIP3    H239682   6.182   6.962  18.062 -0.7462 -0.8126  0.4065
 5163TIP3   OH239683   3.580   5.544  19.438 -0.1314 -0.1207 -0.5419
 5163TIP3    H139684   3.535   5.468  19.403  1.5450 -0.9421 -1.0223
 5163TIP3    H239685   3.662   5.509  19.474 -0.1237  1.2170  0.8373
 5164TIP3   OH239686   6.095   2.333  17.039  0.3421 -0.4266 -0.0227
 5164TIP3    H139687   6.143   2.364  16.962  0.1852  1.6007  0.6209
 5164TIP3    H239688   6.010   2.306  17.005  0.3089  0.3658 -0.6109
 5165TIP3   OH239689   1.597   5.478  17.963 -0.2968 -0.6348  0.4614
 5165TIP3    H139690   1.664   5.512  17.903  0.2614 -1.0505  0.8469
 5165TIP3    H239691   1.515   5.488  17.914  0.2853 -2.1535 -0.8928
 5166TIP3   OH239692   6.782   0.205  18.926 -0.4617 -0.0088  0.4087
 5166TIP3    H139693   6.818   0.254  18.853  0.6362 -0.4263  0.6565
 5166TIP3    H239694   6.766   0.118  18.891 -1.4471  0.2270  0.2460
 5167TIP3   OH239695   5.520   4.801  17.814  0.3964 -0.2067  0.1444
 5167TIP3    H139696   5.462   4.736  17.853  1.2518 -1.7431 -1.0387
 5167TIP3    H239697   5.498   4.883  17.859 -0.6902 -1.2989  1.6986
 5168TIP3   OH239698   2.657   0.210  18.471 -0.4045 -0.4789  0.0003
 5168TIP3    H139699   2.741   0.254  18.484  0.2075 -1.3104 -0.9227
 5168TIP3    H239700   2.620   0.201  18.558 -1.1111  2.8200  0.1772
 5169TIP3   OH239701   2.160   3.814  17.050  0.1518 -0.1267 -0.4278
 5169TIP3    H139702   2.211   3.776  16.979  0.5101 -0.9514  0.2573
 5169TIP3    H239703   2.204   3.785  17.130 -0.2162  0.8243  0.1388
 5170TIP3   OH239704   4.934   6.264  16.805 -0.3278 -0.4842  0.2683
 5170TIP3    H139705   4.888   6.323  16.744 -0.4478 -0.1531  0.6691
 5170TIP3    H239706   4.868   6.199  16.829 -0.6018  0.0072  0.8645
 5171TIP3   OH239707   7.090   7.392  17.358 -0.1162 -0.6103 -0.4936
 5171TIP3    H139708   7.167   7.449  17.347  0.1708 -1.0452 -0.7904
 5171TIP3    H239709   7.059   7.411  17.446  0.6262 -0.7792 -0.1889
 5172TIP3   OH239710   4.264   3.626  18.006 -0.0485 -0.2724  0.0687
 5172TIP3    H139711   4.249   3.670  18.090 -0.8538 -1.0145  0.3306
 5172TIP3    H239712   4.195   3.560  18.001 -1.1633  0.9436 -2.0392
 5173TIP3   OH239713   4.938   0.627  18.661  0.0573 -0.0096 -0.2242
 5173TIP3    H139714   5.010   0.573  18.630  1.0927  0.9703  0.3941
 5173TIP3    H239715   4.917   0.683  18.586  0.9122  0.6719  0.0257
 5174TIP3   OH239716   1.628   4.035  19.211  0.2679 -0.0639 -0.3704
 5174TIP3    H139717   1.543   4.074  19.191  1.1062  1.3190 -1.4558
 5174TIP3    H239718   1.638   4.046  19.305  0.7366  3.0780 -0.6838
 5175TIP3   OH239719   3.052   3.968  19.034  0.0378 -0.3218  0.4103
 5175TIP3    H139720   3.030   3.929  19.119  0.0935 -1.6712 -0.1693
 5175TIP3    H239721   2.968   3.993  18.996 -0.1846 -1.5978  0.0098
 5176TIP3   OH239722   1.576   6.125  19.159  0.0618 -0.0970  0.4742
 5176TIP3    H139723   1.575   6.221  19.158  1.6923 -0.0550  0.5954
 5176TIP3    H239724   1.517   6.102  19.231  0.9006  0.8806  1.5203
 5177TIP3   OH239725   3.654   0.745  18.171  0.0106  0.0139  0.2823
 5177TIP3    H139726   3.630   0.834  18.144  0.8274  0.4814  1.0486
 5177TIP3    H239727   3.597   0.688  18.120 -0.5883  0.9854 -0.1532
 5178TIP3   OH239728   4.683   2.010  17.869  0.1779  0.5674 -0.0773
 5178TIP3    H139729   4.760   1.998  17.925 -1.2717  0.9835  2.1505
 5178TIP3    H239730   4.609   2.014  17.931 -1.5365  1.0684 -2.0523
 5179TIP3   OH239731   4.408   7.304  19.368 -0.3447  0.6521  0.4659
 5179TIP3    H139732   4.345   7.248  19.413  0.4598 -0.1930  0.5738
 5179TIP3    H239733   4.479   7.245  19.343  0.2629  1.5252  0.0735
 5180TIP3   OH239734   5.651   5.464  18.517 -0.3903  0.0061 -0.0268
 5180TIP3    H139735   5.596   5.392  18.484 -0.4820  0.2449 -0.3987
 5180TIP3    H239736   5.589   5.531  18.545 -0.2873  0.5723 -1.1150
 5181TIP3   OH239737   5.319   6.051  17.330  0.7642  0.3944  0.2149
 5181TIP3    H139738   5.310   6.009  17.415 -0.0540 -2.9049 -1.3345
 5181TIP3    H239739   5.244   6.110  17.324  1.3060  1.3431  2.0492
 5182TIP3   OH239740   1.879   4.268  17.371  0.0746  0.6575 -0.2333
 5182TIP3    H139741   1.867   4.264  17.276  0.5024  0.0506 -0.2654
 5182TIP3    H239742   1.790   4.259  17.406 -0.0133  0.2036 -0.5605
 5183TIP3   OH239743   5.930   6.768  18.491  0.3653 -0.6752  0.0106
 5183TIP3    H139744   5.968   6.718  18.562 -2.4310 -0.2281  1.9684
 5183TIP3    H239745   5.836   6.752  18.497 -0.0721 -0.1715 -3.2854
 5184TIP3   OH239746   0.410   7.557  17.835 -0.0241 -0.6583  0.5047
 5184TIP3    H139747   0.477   7.494  17.806  0.5423 -1.1319  2.7143
 5184TIP3    H239748   0.448   7.599  17.912 -2.7919 -1.9503  2.7343
 5185TIP3   OH239749   1.016   1.976  17.952 -0.4419 -0.2451  0.5712
 5185TIP3    H139750   0.941   2.030  17.978  1.1723  0.6919  3.6721
 5185TIP3    H239751   0.990   1.887  17.977 -0.6513  0.0387  1.4127
 5186TIP3   OH239752   7.086   6.801  17.656  0.0431 -0.5158 -0.1589
 5186TIP3    H139753   7.083   6.854  17.735  1.6613 -0.1304 -0.3322
 5186TIP3    H239754   7.173   6.817  17.619 -0.4859 -1.0856 -1.7410
 5187TIP3   OH239755   4.983   6.630  19.633  0.3228  0.3663 -0.5301
 5187TIP3    H139756   4.945   6.586  19.557  2.3299  0.2320 -1.5077
 5187TIP3    H239757   5.077   6.626  19.619  0.6749  3.3534  0.2340
 5188TIP3   OH239758   1.361   1.001  16.904  0.3773 -0.1378 -0.2812
 5188TIP3    H139759   1.271   1.034  16.893  1.0253  1.5173 -0.8702
 5188TIP3    H239760   1.406   1.069  16.953  1.6483 -0.3725 -1.0779
 5189TIP3   OH239761   7.632   3.736  18.574  0.0407  0.0295 -0.1564
 5189TIP3    H139762   7.634   3.682  18.495 -2.6495 -1.9806  1.0110
 5189TIP3    H239763   7.557   3.794  18.562 -1.1005 -1.0603  1.2823
 5190TIP3   OH239764   0.971   0.911  17.453 -0.0825 -0.8510  0.3103
 5190TIP3    H139765   0.897   0.898  17.512  0.2239 -1.0579  0.6511
 5190TIP3    H239766   0.937   0.889  17.366  0.7812 -5.5827  0.9323
 5191TIP3   OH239767   5.230   3.221  17.092 -0.3279  0.0763  0.8857
 5191TIP3    H139768   5.177   3.191  17.165  1.3109  0.1253  2.1543
 5191TIP3    H239769   5.250   3.312  17.112 -0.1040  0.1795  0.2230
 5192TIP3   OH239770   6.265   3.150  17.968 -0.5053  0.6370  0.4775
 5192TIP3    H139771   6.179   3.114  17.945 -0.5282 -0.7672  2.4599
 5192TIP3    H239772   6.307   3.167  17.884 -1.8612 -0.8092 -0.5735
 5193TIP3   OH239773   7.382   6.884  17.811 -0.3687 -0.1312  0.2773
 5193TIP3    H139774   7.365   6.873  17.717 -2.9285 -2.6246  0.9063
 5193TIP3    H239775   7.352   6.973  17.830  0.8226  0.6721 -1.3208
 5194TIP3   OH239776   3.945   3.209  19.114 -0.2562  0.3235 -0.3170
 5194TIP3    H139777   3.924   3.192  19.206  1.3339 -1.4078 -0.2148
 5194TIP3    H239778   3.897   3.288  19.093 -1.9796 -0.1505  1.5313
 5195TIP3   OH239779   3.095   3.712  16.999  0.2525  0.4843 -0.2299
 5195TIP3    H139780   3.110   3.796  16.955 -0.4914  1.7061  1.7117
 5195TIP3    H239781   3.031   3.667  16.944 -0.8256  2.0569 -0.3347
 5196TIP3   OH239782   5.269   7.010  16.734  0.3466  0.7457  0.1952
 5196TIP3    H139783   5.360   6.996  16.707 -0.0146 -0.3145 -0.5141
 5196TIP3    H239784   5.217   6.987  16.657 -0.5477  0.8712  0.7490
 5197TIP3   OH239785   2.215   2.794  17.315  0.6150 -0.1729 -0.3835
 5197TIP3    H139786   2.150   2.792  17.244  0.3214  2.2340 -0.2752
 5197TIP3    H239787   2.181   2.859  17.376  1.3651 -1.4896  1.5143
 5198TIP3   OH239788   7.287   5.273  17.317 -0.1377  0.2582 -0.3134
 5198TIP3    H139789   7.269   5.221  17.395 -0.6888 -0.4554 -0.9015
 5198TIP3    H239790   7.214   5.336  17.314  0.3228  0.8254  0.1868
 5199TIP3   OH239791   3.577   3.285  17.176  0.4729  0.1743 -0.0726
 5199TIP3    H139792   3.630   3.362  17.199  0.2455  0.9950 -2.0899
 5199TIP3    H239793   3.591   3.274  17.082 -2.2507 -0.1186 -0.5014
 5200TIP3   OH239794   5.371   7.252  18.930 -0.5770 -0.2049 -0.0666
 5200TIP3    H139795   5.364   7.218  19.019 -2.0656 -0.0571 -0.0989
 5200TIP3    H239796   5.293   7.307  18.920 -0.8695 -0.8680 -1.7273
 5201TIP3   OH239797   2.019   1.909  18.925 -1.0126 -0.2483 -0.0443
 5201TIP3    H139798   2.015   1.820  18.889  1.6986 -0.1085 -0.9201
 5201TIP3    H239799   2.041   1.964  18.849  0.2284  0.7182  0.9608
 5202TIP3   OH239800   2.602   7.464  19.112 -0.4384  0.9209  0.3379
 5202TIP3    H139801   2.538   7.461  19.183 -1.2153 -0.8895 -0.3887
 5202TIP3    H239802   2.584   7.546  19.066 -2.5753  0.2349 -0.1346
 5203TIP3   OH239803   1.157   3.849  16.893  0.2091  0.5653  0.1075
 5203TIP3    H139804   1.103   3.914  16.847 -1.0100 -0.8512 -0.5564
 5203TIP3    H239805   1.180   3.785  16.826 -0.4845 -0.8447  1.1529
 5204TIP3   OH239806   6.080   1.760  17.927  0.4588 -0.0575  0.2281
 5204TIP3    H139807   6.044   1.736  18.012 -0.8991  0.1157 -0.2878
 5204TIP3    H239808   6.024   1.716  17.863  0.1311  1.5334 -0.6329
 5205TIP3   OH239809   6.704   3.448  17.456  0.5291  0.3533 -0.2997
 5205TIP3    H139810   6.780   3.484  17.503 -0.2806  0.1708  1.2215
 5205TIP3    H239811   6.629   3.469  17.512 -0.5599  0.4892 -1.7436
 5206TIP3   OH239812   5.380   6.806  17.479  0.2729 -0.0502 -0.0771
 5206TIP3    H139813   5.379   6.765  17.393  1.1420  0.1981 -0.2243
 5206TIP3    H239814   5.465   6.781  17.516 -0.4648 -0.9076  1.0885
 5207TIP3   OH239815   4.552   6.299  17.468 -0.1519  0.0549 -0.4333
 5207TIP3    H139816   4.532   6.209  17.444  1.6319 -0.1855 -1.2125
 5207TIP3    H239817   4.579   6.294  17.559  0.6803 -0.3480 -0.6923
 5208TIP3   OH239818   2.132   4.711  19.120 -0.0359 -0.1177 -0.0342
 5208TIP3    H139819   2.134   4.771  19.046 -2.1161 -1.2979 -1.1371
 5208TIP3    H239820   2.062   4.649  19.099 -1.6858  0.2957  3.5330
 5209TIP3   OH239821   7.352   1.886  16.692 -0.0272 -0.7191 -0.2078
 5209TIP3    H139822   7.294   1.839  16.632  1.2793 -1.1568 -1.1959
 5209TIP3    H239823   7.408   1.818  16.730  0.8241 -0.1639 -0.4251
 5210TIP3   OH239824   3.070   0.311  17.549 -0.1474 -0.1732 -0.3519
 5210TIP3    H139825   3.073   0.250  17.475 -2.4894 -0.8731  0.0424
 5210TIP3    H239826   2.997   0.280  17.602  0.2325  1.4929  1.2345
 5211TIP3   OH239827   2.848   5.282  18.447 -0.2786  1.0326  0.2565
 5211TIP3    H139828   2.849   5.322  18.534 -1.7932  0.9999  0.3135
 5211TIP3    H239829   2.902   5.203  18.457 -0.9438  0.6911  1.3363
 5212TIP3   OH239830   6.451   1.956  18.437  0.1289  0.6821 -0.5307
 5212TIP3    H139831   6.524   1.920  18.386 -1.4687 -2.2433 -1.0284
 5212TIP3    H239832   6.399   2.005  18.373 -0.6920 -1.1147 -1.3146
 5213TIP3   OH239833   3.317   0.375  17.335  0.3983  0.2168  0.1987
 5213TIP3    H139834   3.408   0.349  17.348  0.5809  0.9095  0.3413
 5213TIP3    H239835   3.305   0.376  17.240  0.5979  0.3042  0.1723
 5214TIP3   OH239836   0.629   4.230  17.686 -0.0656 -0.3389  0.2251
 5214TIP3    H139837   0.658   4.140  17.701 -0.0093 -0.5168 -0.9099
 5214TIP3    H239838   0.698   4.284  17.723  0.5679 -0.7649 -0.3228
 5215TIP3   OH239839   0.504   6.045  19.752  0.4004  0.2693  0.0403
 5215TIP3    H139840   0.462   6.072  19.834  0.1330  0.3322 -0.1184
 5215TIP3    H239841   0.441   6.067  19.684  0.2048 -0.6849 -0.1006
 5216TIP3   OH239842   5.263   6.855  18.351 -0.0460 -0.0850 -0.2448
 5216TIP3    H139843   5.312   6.794  18.296  1.3673  0.5664  0.2642
 5216TIP3    H239844   5.175   6.816  18.357  0.6022 -1.6692 -0.5429
 5217TIP3   OH239845   1.957   1.276  18.089  0.7422  0.2025 -0.1633
 5217TIP3    H139846   1.876   1.323  18.111  0.0648 -0.6393 -0.8094
 5217TIP3    H239847   2.012   1.342  18.047 -0.5408  0.2334 -1.8791
 5218TIP3   OH239848   1.312   3.157  18.451 -0.3752  0.7561  0.2114
 5218TIP3    H139849   1.277   3.145  18.539  1.4678  0.9707  1.0128
 5218TIP3    H239850   1.406   3.145  18.460 -0.0702  1.3761 -1.6345
 5219TIP3   OH239851   1.411   6.533  17.822  0.4081 -0.1427 -0.4895
 5219TIP3    H139852   1.419   6.599  17.890 -1.2301 -0.8790  0.5072
 5219TIP3    H239853   1.497   6.528  17.782  0.2466  3.5934 -1.6208
 5220TIP3   OH239854   3.073   0.876  17.766 -0.3476  0.2071  0.0328
 5220TIP3    H139855   3.043   0.955  17.811 -2.4833 -0.5046 -0.0321
 5220TIP3    H239856   3.136   0.908  17.701 -0.0606  1.6624  0.9766
 5221TIP3   OH239857   0.840   2.595  17.563 -0.6342 -0.2792 -1.1508
 5221TIP3    H139858   0.921   2.631  17.600 -0.0029 -2.3642 -0.3505
 5221TIP3    H239859   0.770   2.630  17.618 -0.3065  1.3371 -1.6926
 5222TIP3   OH239860   6.100   7.135  17.619  0.1896 -0.1247  0.3685
 5222TIP3    H139861   6.050   7.084  17.555 -0.7620  0.0741  0.9329
 5222TIP3    H239862   6.175   7.168  17.570  0.3110 -1.2636 -0.2533
 5223TIP3   OH239863   7.144   5.024  17.824 -0.4325  0.3217 -0.0963
 5223TIP3    H139864   7.132   5.077  17.745 -1.5712  0.3244  0.0604
 5223TIP3    H239865   7.171   4.938  17.791  0.7726  0.7996 -0.3856
 5224TIP3   OH239866   6.101   2.773  19.312 -0.0102  0.9196 -0.3379
 5224TIP3    H139867   6.078   2.812  19.396  0.5635 -1.8815  1.2055
 5224TIP3    H239868   6.196   2.777  19.308 -0.0803  3.2142 -2.0646
 5225TIP3   OH239869   7.310   3.671  18.402  0.5042  0.3632  0.2517
 5225TIP3    H139870   7.314   3.757  18.359  0.6691  2.1821  3.5534
 5225TIP3    H239871   7.222   3.667  18.438  1.0645 -0.0294  1.6175
 5226TIP3   OH239872   4.803   0.820  17.911 -0.1110 -0.0896  0.2141
 5226TIP3    H139873   4.816   0.872  17.990 -0.0484  0.7506 -0.3255
 5226TIP3    H239874   4.708   0.817  17.899 -0.0940  0.7409 -0.2666
 5227TIP3   OH239875   7.426   4.179  17.118  0.3034  0.3900  0.3202
 5227TIP3    H139876   7.479   4.155  17.194  0.3989 -2.5093 -0.5376
 5227TIP3    H239877   7.490   4.201  17.051  0.2243  2.4671  0.8493
 5228TIP3   OH239878   0.374   0.459  18.090  0.5268  0.2549 -0.6435
 5228TIP3    H139879   0.314   0.527  18.063 -0.1926 -0.3888 -0.6925
 5228TIP3    H239880   0.432   0.502  18.153  0.8057  1.1877 -1.5124
 5229TIP3   OH239881   5.864   0.417  19.137  0.2034  0.3053  0.2556
 5229TIP3    H139882   5.791   0.357  19.123 -1.3786  2.1436  0.1441
 5229TIP3    H239883   5.862   0.476  19.061  0.0862  2.0300  1.5220
 5230TIP3   OH239884   5.934   4.673  18.556 -0.1392 -0.0461 -0.0454
 5230TIP3    H139885   5.851   4.630  18.580  0.3328 -0.4240  0.9735
 5230TIP3    H239886   5.910   4.735  18.487 -1.6266  1.2350  1.5426
 5231TIP3   OH239887   4.389   5.812  19.542  0.0747  0.0455  0.6691
 5231TIP3    H139888   4.413   5.833  19.452 -1.1127 -0.5508  0.2087
 5231TIP3    H239889   4.353   5.894  19.577  2.0670  0.7804  1.1793
 5232TIP3   OH239890   4.962   7.221  17.367  0.5183 -0.5083  0.0893
 5232TIP3    H139891   5.032   7.268  17.410 -2.3569  2.3838  2.0875
 5232TIP3    H239892   4.929   7.282  17.301 -1.2057 -0.9809  0.4566
 5233TIP3   OH239893   3.821   7.677  19.248 -0.2542  0.3531 -0.2798
 5233TIP3    H139894   3.732   7.650  19.268 -0.6576  1.0056 -1.1238
 5233TIP3    H239895   3.815   7.718  19.161  0.6587  1.3854  0.1108
 5234TIP3   OH239896   0.915   1.277  18.632  0.0072  0.0147  0.2547
 5234TIP3    H139897   0.915   1.372  18.647  0.2331 -0.0083  0.4121
 5234TIP3    H239898   0.987   1.262  18.571  0.5153 -0.1508  0.8851
 5235TIP3   OH239899   2.613   5.593  19.349 -0.2345  0.5036 -0.0255
 5235TIP3    H139900   2.651   5.678  19.373  0.6561  0.4237 -1.0853
 5235TIP3    H239901   2.679   5.529  19.376  0.1550  0.3224 -1.3424
 5236TIP3   OH239902   0.003   5.815  16.993  0.7531  0.4825  0.2330
 5236TIP3    H139903  -0.026   5.886  17.050  1.4230  1.9881 -1.2067
 5236TIP3    H239904  -0.067   5.750  16.998 -0.7041  1.9960  0.3107
 5237TIP3   OH239905   0.471   4.702  19.606 -0.4545 -0.2280  0.0936
 5237TIP3    H139906   0.478   4.761  19.681  0.9450  0.3082 -0.4236
 5237TIP3    H239907   0.378   4.680  19.602 -0.8611  1.1659  0.9024
 5238TIP3   OH239908   6.032   4.653  17.804 -0.0809 -0.6860  0.3015
 5238TIP3    H139909   6.088   4.656  17.727 -0.9110 -0.9934 -0.3322
 5238TIP3    H239910   5.981   4.734  17.799  1.7004  0.6299  1.9929
 5239TIP3   OH239911   1.587   7.219  18.169  0.4235 -0.2938 -0.0438
 5239TIP3    H139912   1.607   7.135  18.127  1.0419 -0.1286 -0.0823
 5239TIP3    H239913   1.641   7.283  18.123 -0.2115  0.1670 -0.1613
 5240TIP3   OH239914   1.442   5.046  18.033  0.0950 -0.5055 -0.2194
 5240TIP3    H139915   1.389   5.071  18.109 -2.8850 -1.3425 -1.8852
 5240TIP3    H239916   1.488   4.967  18.062  1.2688  0.7605  1.5727
 5241TIP3   OH239917   7.124   5.130  17.577  0.1662 -0.0474  0.0667
 5241TIP3    H139918   7.115   5.076  17.498 -0.0882 -0.9399  0.6920
 5241TIP3    H239919   7.062   5.201  17.563  0.8233  0.3490 -0.9684
 5242TIP3   OH239920   5.942   4.220  19.365  0.4422 -0.1415 -0.0430
 5242TIP3    H139921   5.929   4.220  19.460 -0.8299  0.0175 -0.2018
 5242TIP3    H239922   5.854   4.215  19.328  0.8638  0.6720 -1.2252
 5243TIP3   OH239923   2.779   3.975  18.955 -0.3492 -0.2135  0.4571
 5243TIP3    H139924   2.712   4.030  18.994 -1.5800 -1.5533  0.3308
 5243TIP3    H239925   2.762   3.979  18.861  0.3531  0.1942  0.3430
 5244TIP3   OH239926   3.118   2.495  18.411 -0.4263  0.6725 -0.3494
 5244TIP3    H139927   3.187   2.429  18.417 -0.7525  0.3703  0.1704
 5244TIP3    H239928   3.089   2.508  18.501 -0.8719  0.9880 -0.5316
 5245TIP3   OH239929   2.292   7.515  18.987  0.0793 -0.6385  0.0996
 5245TIP3    H139930   2.286   7.459  18.910 -0.7584  0.5757 -0.7679
 5245TIP3    H239931   2.291   7.455  19.061 -2.0645 -1.7427 -0.7265
 5246TIP3   OH239932   0.203   3.757  19.015  0.0423  0.2874 -0.4293
 5246TIP3    H139933   0.207   3.709  18.933 -0.1017  1.6132 -1.2450
 5246TIP3    H239934   0.130   3.718  19.063  1.6101 -2.0992  0.1603
 5247TIP3   OH239935   2.391   7.129  17.225  0.5939 -0.0394  0.0913
 5247TIP3    H139936   2.322   7.191  17.245  0.0103 -0.9270  0.9075
 5247TIP3    H239937   2.405   7.139  17.131 -0.3114  0.4890 -0.0034
 5248TIP3   OH239938   0.822   0.899  19.089  0.3976  0.3788  0.0801
 5248TIP3    H139939   0.784   0.963  19.149 -0.2503  0.5194 -0.4649
 5248TIP3    H239940   0.785   0.815  19.116  0.8631  0.3032  0.4841
 5249TIP3   OH239941   3.227   5.715  19.078 -0.0365 -0.4980 -0.3433
 5249TIP3    H139942   3.144   5.674  19.101  0.5722 -1.7132 -0.1982
 5249TIP3    H239943   3.291   5.643  19.082  1.6102  0.9032  2.6177
 5250TIP3   OH239944   0.952   7.573  18.184  0.1802  0.4150  0.2982
 5250TIP3    H139945   0.878   7.611  18.230 -0.2091  0.5755 -0.4326
 5250TIP3    H239946   1.014   7.548  18.252 -0.2236  0.9705  0.8727
 5251TIP3   OH239947   7.680   2.975  19.519  0.2726 -0.3721  0.4935
 5251TIP3    H139948   7.733   3.043  19.559 -0.5397  0.4936  0.1332
 5251TIP3    H239949   7.615   3.022  19.466 -0.0528 -1.4258 -0.0907
 5252TIP3   OH239950   3.887   4.553  18.538  0.1338  0.5240 -0.0571
 5252TIP3    H139951   3.952   4.491  18.571  0.3139  0.8067  0.1251
 5252TIP3    H239952   3.852   4.511  18.459 -0.8127 -0.4691  0.8692
 5253TIP3   OH239953   6.963   4.475  18.151 -0.5415  0.5635 -0.3024
 5253TIP3    H139954   6.898   4.433  18.095  0.7179 -1.0029 -0.6661
 5253TIP3    H239955   6.916   4.497  18.231 -1.4868 -0.6538 -0.4952
 5254TIP3   OH239956   0.715   0.152  17.451  0.2052  1.0973  0.1252
 5254TIP3    H139957   0.740   0.204  17.375 -1.6984 -1.0478 -2.1326
 5254TIP3    H239958   0.799   0.125  17.489  1.2968  0.7908 -2.2832
 5255TIP3   OH239959   2.729   7.602  18.362  0.0337  0.4709  0.0204
 5255TIP3    H139960   2.814   7.559  18.362  0.3206  1.0350  0.4263
 5255TIP3    H239961   2.718   7.635  18.451 -0.2926  1.0082 -0.2110
 5256TIP3   OH239962   0.306   3.760  19.666  0.0277 -0.0016 -0.6932
 5256TIP3    H139963   0.257   3.695  19.616 -1.2090 -0.0281  0.5015
 5256TIP3    H239964   0.395   3.754  19.631 -0.4377 -1.1373 -1.7680
 5257TIP3   OH239965   4.187   7.417  18.693  0.0797 -0.1718  0.1416
 5257TIP3    H139966   4.257   7.387  18.751 -0.4568 -1.1561  0.3088
 5257TIP3    H239967   4.198   7.512  18.689 -0.6599  0.1137  2.9531
 5258TIP3   OH239968   4.721   5.557  18.483 -0.2482  0.1864 -0.2895
 5258TIP3    H139969   4.725   5.477  18.429  2.1661 -0.1257  0.2390
 5258TIP3    H239970   4.693   5.526  18.569  0.6087 -0.1117 -0.1066
 5259TIP3   OH239971   5.969   1.336  17.339 -0.2209  0.0843  0.1561
 5259TIP3    H139972   5.997   1.255  17.383  1.1765  0.8979  0.8597
 5259TIP3    H239973   5.904   1.308  17.275  0.0028 -1.5561  0.6020
 5260TIP3   OH239974   2.276   4.900  19.430  0.4077  0.0655  0.2696
 5260TIP3    H139975   2.235   4.814  19.440 -1.4773  1.0626  1.9850
 5260TIP3    H239976   2.334   4.891  19.354 -0.3275 -2.4691 -0.0747
 5261TIP3   OH239977   4.878   4.838  17.640  0.4739 -0.3617  0.3004
 5261TIP3    H139978   4.945   4.780  17.677  2.6569  1.2843 -0.7855
 5261TIP3    H239979   4.859   4.801  17.554  1.4847  0.1888 -0.1820
 5262TIP3   OH239980   5.410   7.571  19.304 -0.2151  0.0149  0.1781
 5262TIP3    H139981   5.425   7.592  19.212 -1.0572  0.1639  0.0665
 5262TIP3    H239982   5.478   7.507  19.326  0.3501  0.4158 -0.3806
 5263TIP3   OH239983   6.129   5.470  16.206  0.0053  0.2250 -0.3514
 5263TIP3    H139984   6.078   5.396  16.173  0.4681 -1.6344  2.6564
 5263TIP3    H239985   6.218   5.454  16.174  0.1823 -0.7892  0.5922
 5264TIP3   OH239986   1.274   2.209  19.167  0.0453  0.6188  0.1159
 5264TIP3    H139987   1.256   2.243  19.254  1.2534  0.1101  0.5802
 5264TIP3    H239988   1.369   2.207  19.160  0.0042 -1.1764 -0.4755
 5265TIP3   OH239989   2.665   0.752  19.293 -0.1088 -0.4603  0.1826
 5265TIP3    H139990   2.713   0.832  19.313  1.5241 -0.9574 -1.4742
 5265TIP3    H239991   2.574   0.771  19.318  0.1188  2.1220 -0.6980
 5266TIP3   OH239992   6.791   1.438  16.699 -0.4871 -0.1200 -0.2574
 5266TIP3    H139993   6.775   1.386  16.778  1.1817  0.5033  0.5413
 5266TIP3    H239994   6.741   1.394  16.631 -0.8351 -1.5066  0.8471
 5267TIP3   OH239995   4.043   6.977  18.736  0.6539  0.1256  0.4746
 5267TIP3    H139996   4.106   6.926  18.685  0.3688 -0.4152  0.6517
 5267TIP3    H239997   4.038   7.061  18.691  1.2171  0.0384  0.2417
 5268TIP3   OH239998   1.371   7.509  17.292 -0.1856  0.4413  0.3446
 5268TIP3    H139999   1.420   7.472  17.219 -0.3479 -0.1913  0.5411
 5268TIP3    H240000   1.281   7.479  17.277 -0.1125 -0.2124  1.1139
 5269TIP3   OH240001   5.212   3.588  17.359 -0.3767  0.6512 -0.2403
 5269TIP3    H140002   5.235   3.556  17.272 -0.7089 -1.1014  0.2714
 5269TIP3    H240003   5.271   3.540  17.418  0.2718  2.2647  0.4804
 5270TIP3   OH240004   6.315   6.174  17.411 -0.1293  0.4217  1.3423
 5270TIP3    H140005   6.325   6.114  17.484  1.2129  1.6328  2.2089
 5270TIP3    H240006   6.387   6.151  17.351 -2.1374 -1.6229 -0.4634
 5271TIP3   OH240007   0.558   6.620  18.030 -0.0996  0.0656  0.4386
 5271TIP3    H140008   0.624   6.688  18.041 -0.3335  0.1376  1.4091
 5271TIP3    H240009   0.554   6.606  17.935 -0.2246  1.5763  0.1949
 5272TIP3   OH240010   1.907   3.566  17.457  0.1112 -0.0347 -0.4472
 5272TIP3    H140011   1.906   3.483  17.410  1.3236 -0.6666  0.5914
 5272TIP3    H240012   1.995   3.571  17.495  0.3233  2.0690 -1.0731
 5273TIP3   OH240013   1.223   5.437  18.994  0.0468  0.5299 -0.1020
 5273TIP3    H140014   1.151   5.465  19.051  0.2829  1.5833 -0.3165
 5273TIP3    H240015   1.274   5.516  18.978  0.7798 -0.0409 -0.6446
 5274TIP3   OH240016   0.987   6.000  18.190  0.5469  0.5299 -0.2902
 5274TIP3    H140017   0.896   6.028  18.181  0.6652  0.3736 -2.3831
 5274TIP3    H240018   1.038   6.074  18.160  0.9622 -0.6040 -2.5471
 5275TIP3   OH240019   7.439   4.954  18.218 -0.4762 -0.2936  0.2807
 5275TIP3    H140020   7.455   4.989  18.306 -1.8056 -0.9539  0.8151
 5275TIP3    H240021   7.346   4.933  18.217 -0.3043 -1.1241 -0.9905
 5276TIP3   OH240022   4.529   6.150  19.513  0.2721 -0.1293 -0.1799
 5276TIP3    H140023   4.528   6.147  19.417  0.1855  1.6015 -0.2578
 5276TIP3    H240024   4.450   6.104  19.539 -0.2442  0.2887 -0.9784
 5277TIP3   OH240025   0.425   2.954  18.003 -0.3035  0.1624 -0.3002
 5277TIP3    H140026   0.364   2.974  17.932  0.3772  3.0139 -0.2113
 5277TIP3    H240027   0.397   2.869  18.036 -0.2965 -1.6235 -4.3295
 5278TIP3   OH240028   3.183   6.587  17.459 -0.2376  0.0553  0.1489
 5278TIP3    H140029   3.139   6.506  17.432 -1.8937  1.2637 -0.9770
 5278TIP3    H240030   3.232   6.614  17.381  0.6703 -0.0857  0.6660
 5279TIP3   OH240031   2.835   7.605  17.447 -0.1348  0.0335 -0.9994
 5279TIP3    H140032   2.798   7.591  17.534  1.8763  0.0517 -0.0704
 5279TIP3    H240033   2.779   7.671  17.406 -0.8506  0.3518  0.4472
 5280TIP3   OH240034   0.750   6.303  17.718 -0.4255  0.2536  0.0950
 5280TIP3    H140035   0.814   6.247  17.674 -2.4011 -2.0813 -0.0423
 5280TIP3    H240036   0.674   6.304  17.660 -1.7851  0.0233  1.7729
 5281TIP3   OH240037   5.611   5.498  18.105 -0.3120 -0.4425  0.8504
 5281TIP3    H140038   5.551   5.437  18.146 -1.0289 -0.1316  0.2788
 5281TIP3    H240039   5.663   5.445  18.045 -0.2355 -0.6537  1.1015
 5282TIP3   OH240040   6.644   5.258  19.639 -0.1162  0.9566 -0.4596
 5282TIP3    H140041   6.558   5.247  19.599  0.9091 -1.4349 -2.3117
 5282TIP3    H240042   6.702   5.279  19.566  1.3210 -0.4580  0.1931
 5283TIP3   OH240043   1.965   4.467  19.108  0.5014  0.5817 -0.2609
 5283TIP3    H140044   1.877   4.500  19.090  0.8252  1.7291  0.1762
 5283TIP3    H240045   1.959   4.429  19.196 -0.0397 -1.2158 -1.0259
 5284TIP3   OH240046   4.747   5.242  18.657  0.4327 -0.4243 -0.0568
 5284TIP3    H140047   4.729   5.231  18.564  1.2171 -0.3014 -0.2320
 5284TIP3    H240048   4.824   5.188  18.673  0.8808  0.3051  0.3088
 5285TIP3   OH240049   4.943   1.624  18.715 -0.0005 -0.4353 -0.4776
 5285TIP3    H140050   5.023   1.587  18.679  1.4055  0.5032  1.5165
 5285TIP3    H240051   4.910   1.557  18.775 -0.7290 -0.8025 -1.2636
 5286TIP3   OH240052   6.395   4.254  17.672  0.6328 -0.1662 -0.8164
 5286TIP3    H140053   6.362   4.337  17.638 -0.4855 -0.8007 -1.3555
 5286TIP3    H240054   6.325   4.223  17.731  1.2145 -0.5301 -0.3068
 5287TIP3   OH240055   7.077   5.237  19.121 -0.1245 -0.4503  0.0070
 5287TIP3    H140056   7.109   5.295  19.052 -1.6341  0.9729  0.4477
 5287TIP3    H240057   7.000   5.195  19.083 -0.5965 -0.1293  0.5828
 5288TIP3   OH240058   5.340   5.694  18.280 -0.4436 -0.0141 -0.2328
 5288TIP3    H140059   5.281   5.666  18.210  2.8335 -2.0155 -2.5102
 5288TIP3    H240060   5.331   5.627  18.347 -2.1577  0.8312  0.4371
 5289TIP3   OH240061   5.377   2.442  19.083  0.0406 -0.6875 -0.5475
 5289TIP3    H140062   5.427   2.470  19.160 -2.8168 -2.2321  2.1401
 5289TIP3    H240063   5.355   2.523  19.038  0.3218  0.4736  1.3043
 5290TIP3   OH240064   7.446   2.928  17.665 -0.4996 -0.7205  0.6589
 5290TIP3    H140065   7.433   2.951  17.757  3.3737 -0.8924  1.4341
 5290TIP3    H240066   7.474   3.009  17.624 -1.7378 -0.7544 -0.2706
 5291TIP3   OH240067   7.136   0.045  17.196  0.0409 -0.8437 -0.1236
 5291TIP3    H140068   7.088  -0.002  17.127 -2.4701  0.2370  0.7941
 5291TIP3    H240069   7.137  -0.016  17.270 -0.9209 -0.4596  0.2154
 5292TIP3   OH240070   7.061   4.009  18.372  0.4254  0.5600 -0.0812
 5292TIP3    H140071   7.080   3.989  18.464  0.9196  0.1131 -0.2742
 5292TIP3    H240072   7.014   4.092  18.375 -0.2302  0.1865  0.6281
 5293TIP3   OH240073   2.700   5.481  18.022  0.2400 -0.7824 -0.0002
 5293TIP3    H140074   2.676   5.533  17.945  0.1233 -1.4744 -0.4330
 5293TIP3    H240075   2.660   5.528  18.095 -0.8895 -0.9053 -0.5138
 5294TIP3   OH240076   2.393   3.076  17.943  0.5592  0.0468  0.2155
 5294TIP3    H140077   2.433   2.990  17.930  0.3614  0.1344 -1.0368
 5294TIP3    H240078   2.459   3.127  17.989  0.5017 -0.9050  1.4290
 5295TIP3   OH240079   4.705   0.365  18.800 -0.0431  0.4669 -0.0886
 5295TIP3    H140080   4.801   0.364  18.807 -0.1125  1.3587  1.1070
 5295TIP3    H240081   4.680   0.273  18.805  0.5528  0.3629  3.1930
 5296TIP3   OH240082   5.690   0.505  18.920  0.4169  0.1659 -0.0464
 5296TIP3    H140083   5.595   0.502  18.930  0.6464  0.4820  2.7979
 5296TIP3    H240084   5.708   0.591  18.881 -0.4546 -0.1898 -1.3039
 5297TIP3   OH240085   0.261   2.797  19.693 -0.0598 -1.0838  0.5883
 5297TIP3    H140086   0.186   2.852  19.673  0.6041 -0.7828 -1.2394
 5297TIP3    H240087   0.285   2.821  19.783 -0.3802  0.9188  0.1804
 5298TIP3   OH240088   2.133   6.954  19.190  0.5033 -0.3050 -0.1359
 5298TIP3    H140089   2.092   7.027  19.144 -0.7458 -0.0394  1.3128
 5298TIP3    H240090   2.196   6.996  19.249  0.9931 -0.5221 -0.5070
 5299TIP3   OH240091   1.957   0.658  17.434  0.5953  0.2299  0.1910
 5299TIP3    H140092   1.864   0.662  17.457  0.7793  0.7475  0.8950
 5299TIP3    H240093   1.961   0.596  17.361 -0.2730  0.0377  0.2910
 5300TIP3   OH240094   5.798   5.963  19.215 -0.8051 -0.3030 -0.1893
 5300TIP3    H140095   5.756   6.048  19.205 -0.6278  0.2524  2.7897
 5300TIP3    H240096   5.831   5.942  19.127 -2.6876  1.6637 -1.4682
 5301TIP3   OH240097   6.790   3.775  19.266 -0.3568  0.0329 -0.0206
 5301TIP3    H140098   6.753   3.793  19.353 -2.8035 -0.3217 -0.9125
 5301TIP3    H240099   6.875   3.819  19.267 -0.1141 -0.3031  2.6726
 5302TIP3   OH240100   0.356   6.880  18.461  0.0272  0.2223 -0.1799
 5302TIP3    H140101   0.290   6.862  18.393  1.8135 -0.8145 -1.7354
 5302TIP3    H240102   0.404   6.956  18.428  0.5613  0.0542  0.2106
 5303TIP3   OH240103   0.289   2.125  17.299  0.2709 -0.0548 -0.2787
 5303TIP3    H140104   0.349   2.197  17.279  0.4415  0.7506  2.6657
 5303TIP3    H240105   0.328   2.049  17.256  1.7861  1.0370 -0.9115
 5304TIP3   OH240106   1.680   2.401  18.311 -0.3615  0.4008  0.6494
 5304TIP3    H140107   1.705   2.490  18.336  0.0195  0.3657  0.4070
 5304TIP3    H240108   1.657   2.407  18.218  1.5144 -0.0994  0.1076
 5305TIP3   OH240109   1.009   5.346  18.222  0.6436  0.3299 -0.0305
 5305TIP3    H140110   1.005   5.386  18.135  2.2264  0.9339  0.1373
 5305TIP3    H240111   1.023   5.419  18.282  1.3147 -0.2398  0.5367
 5306TIP3   OH240112   0.114   4.110  18.376 -0.4991 -0.2075  0.0284
 5306TIP3    H140113   0.029   4.153  18.389 -0.2585  0.4489 -0.5107
 5306TIP3    H240114   0.163   4.170  18.321 -0.1293 -1.1435 -0.7002
 5307TIP3   OH240115   1.725   6.197  18.838 -0.0902  0.5582 -0.0041
 5307TIP3    H140116   1.647   6.239  18.802 -0.9205 -1.5091 -0.8126
 5307TIP3    H240117   1.770   6.266  18.887 -1.8574  2.0750 -0.4136
 5308TIP3   OH240118   4.169   3.132  19.004 -0.6626 -0.7730 -0.0485
 5308TIP3    H140119   4.197   3.041  19.007  1.3201 -0.1825  1.0435
 5308TIP3    H240120   4.081   3.132  19.043 -1.1264 -2.3186 -1.0109
 5309TIP3   OH240121   2.523   1.624  17.414 -0.5711 -0.3667 -0.7207
 5309TIP3    H140122   2.561   1.655  17.332 -0.5078  1.3115 -0.1007
 5309TIP3    H240123   2.455   1.688  17.436 -0.3091 -0.5360  0.7368
 5310TIP3   OH240124   4.653   2.245  17.761  0.2152  1.1312  0.1678
 5310TIP3    H140125   4.589   2.282  17.822  0.2393  0.4944  0.5916
 5310TIP3    H240126   4.682   2.164  17.804  0.9050  1.1423 -0.2701
 5311TIP3   OH240127   5.073   1.812  18.537 -0.6318 -0.0771 -0.5390
 5311TIP3    H140128   5.106   1.736  18.489  0.4052 -0.4508  0.6943
 5311TIP3    H240129   5.034   1.775  18.617  2.4092  0.7484  1.5051
 5312TIP3   OH240130   2.054   4.273  17.959 -0.0759  0.9289  0.6460
 5312TIP3    H140131   2.149   4.277  17.967  0.1048 -0.4961 -0.2642
 5312TIP3    H240132   2.037   4.293  17.867 -0.5725  0.3593  0.6091
 5313TIP3   OH240133   5.432   0.228  18.962  0.0241  0.4000 -0.0827
 5313TIP3    H140134   5.433   0.192  18.873  0.9403 -0.8898  0.4265
 5313TIP3    H240135   5.444   0.323  18.949 -0.8150  0.3499 -1.3644
 5314TIP3   OH240136   1.685   1.981  18.750 -0.0557 -0.2351 -0.0144
 5314TIP3    H140137   1.624   2.024  18.690  1.2926  1.9115  0.0461
 5314TIP3    H240138   1.766   1.972  18.699 -0.3667 -3.2265 -0.1784
 5315TIP3   OH240139   4.237   6.792  18.725 -0.5501  0.3437  0.4586
 5315TIP3    H140140   4.198   6.720  18.775  1.0236 -1.1069 -0.3124
 5315TIP3    H240141   4.308   6.824  18.780  0.3920 -0.4310 -0.2825
 5316TIP3   OH240142   6.738   3.261  17.138  0.5351 -0.2461  0.1415
 5316TIP3    H140143   6.762   3.278  17.229 -4.0168  0.2350  1.5097
 5316TIP3    H240144   6.760   3.343  17.093  2.0128 -0.1491  0.9588
 5317TIP3   OH240145   6.010   6.486  19.424  0.6129  0.2125  0.4175
 5317TIP3    H140146   5.964   6.404  19.440  0.0644  0.2678 -0.6947
 5317TIP3    H240147   5.942   6.553  19.433 -0.2907  0.1327 -3.5933
 5318TIP3   OH240148   3.100   1.442  18.737 -0.1175  0.4149  0.1084
 5318TIP3    H140149   3.176   1.490  18.704  1.7691 -0.5575  2.5997
 5318TIP3    H240150   3.126   1.350  18.730 -0.7178  0.0948  1.6737
 5319TIP3   OH240151   3.180   4.880  16.966  0.0844 -0.3668  0.9194
 5319TIP3    H140152   3.209   4.965  16.932 -0.1532  0.2784  2.2282
 5319TIP3    H240153   3.086   4.877  16.947  0.3253 -0.9291 -0.2694
 5320TIP3   OH240154   3.412   5.332  19.391  0.4918  0.0552 -0.0613
 5320TIP3    H140155   3.435   5.239  19.389 -0.7929 -0.3071  0.5395
 5320TIP3    H240156   3.318   5.333  19.373  0.6829  1.3333 -1.1142
 5321TIP3   OH240157   3.114   4.239  17.132  0.4591  1.0675  0.5242
 5321TIP3    H140158   3.042   4.254  17.193 -0.0436  1.6810 -0.1970
 5321TIP3    H240159   3.102   4.306  17.064  1.7251  1.1918  0.4014
 5322TIP3   OH240160   0.825   5.763  19.045  0.5112  0.6849  0.1648
 5322TIP3    H140161   0.780   5.823  19.104 -1.5145 -2.4716  2.1139
 5322TIP3    H240162   0.764   5.749  18.974  0.5027  0.1101  0.2844
 5323TIP3   OH240163   6.147   1.866  18.494 -0.1753  0.5393 -0.5258
 5323TIP3    H140164   6.199   1.879  18.415 -0.0787  1.0082 -0.3848
 5323TIP3    H240165   6.199   1.904  18.564 -0.2800  0.1672 -0.2378
 5324TIP3   OH240166   0.765   5.435  19.061  0.0596  0.5518  0.4159
 5324TIP3    H140167   0.794   5.431  18.970  0.9031  0.7550  0.6690
 5324TIP3    H240168   0.726   5.349  19.077  1.9797 -0.3691  0.5187
 5325TIP3   OH240169   6.812   5.304  16.528 -0.2954  0.7835 -0.6933
 5325TIP3    H140170   6.843   5.220  16.562  0.2847  0.5689 -1.7041
 5325TIP3    H240171   6.724   5.314  16.565  0.7560  1.2138  1.9301
 5326TIP3   OH240172   3.364   4.419  19.218 -0.3406 -0.2985 -0.0749
 5326TIP3    H140173   3.327   4.335  19.244  2.1648 -1.3722  0.2764
 5326TIP3    H240174   3.398   4.405  19.130 -1.2543  0.8439 -0.6428
 5327TIP3   OH240175   2.819   1.563  17.119  0.3903  0.1246 -0.4391
 5327TIP3    H140176   2.843   1.598  17.205 -0.8877 -0.2893  0.1044
 5327TIP3    H240177   2.900   1.524  17.085  0.8924  0.2413  0.6061
 5328TIP3   OH240178   6.583   5.318  17.375  0.0556  0.1057  0.2912
 5328TIP3    H140179   6.661   5.308  17.320  0.8534  1.6697  1.0708
 5328TIP3    H240180   6.527   5.244  17.350  2.2178 -1.7094  0.4367
 5329TIP3   OH240181   0.971   2.352  17.954 -0.0805  0.0824  0.0647
 5329TIP3    H140182   1.061   2.365  17.986  0.1590 -1.4264  0.0710
 5329TIP3    H240183   0.980   2.351  17.859  0.0074 -0.6583  0.0764
 5330TIP3   OH240184   0.913   0.576  19.438  0.0458  0.2273  0.3449
 5330TIP3    H140185   0.820   0.597  19.448  0.1391  0.9297 -0.1940
 5330TIP3    H240186   0.944   0.636  19.371  0.5016 -1.1676 -0.7483
 5331TIP3   OH240187   4.181   0.981  18.368 -0.1317  0.4734 -1.0679
 5331TIP3    H140188   4.248   1.045  18.391  0.6086 -0.9582  0.9980
 5331TIP3    H240189   4.226   0.918  18.312  0.0434 -0.0072 -0.4001
 5332TIP3   OH240190   0.044   7.062  19.232  0.3490 -0.1018  0.1512
 5332TIP3    H140191   0.076   7.003  19.299  1.5737  1.1335  0.7191
 5332TIP3    H240192   0.096   7.142  19.244 -1.8275  1.4311  0.0158
 5333TIP3   OH240193   1.576   6.764  19.594  0.1223  0.0003  0.5568
 5333TIP3    H140194   1.496   6.809  19.566  0.5596 -0.4209 -1.5105
 5333TIP3    H240195   1.638   6.835  19.612 -0.0044  0.2891 -0.1230
 5334TIP3   OH240196   4.786   0.396  19.151 -0.2721  0.1316  0.3856
 5334TIP3    H140197   4.762   0.451  19.077 -0.0202  0.4942  0.5677
 5334TIP3    H240198   4.863   0.348  19.122 -0.6082 -0.2709  0.1565
 5335TIP3   OH240199   6.770   1.036  18.696 -0.0808 -0.0110 -0.5662
 5335TIP3    H140200   6.856   1.000  18.719  0.8730  2.2528 -0.3837
 5335TIP3    H240201   6.727   1.049  18.781 -0.2083 -0.1598 -0.6065
 5336TIP3   OH240202   0.630   2.818  19.573 -0.7921  0.5755  0.1097
 5336TIP3    H140203   0.548   2.834  19.619 -0.9578  0.5916 -0.1888
 5336TIP3    H240204   0.612   2.743  19.516  0.0077 -0.7965  1.5723
 5337TIP3   OH240205   1.437   2.892  17.148 -0.0131  0.1103 -0.2955
 5337TIP3    H140206   1.495   2.885  17.073 -1.7076 -1.2508 -1.5427
 5337TIP3    H240207   1.370   2.956  17.121 -0.2163  0.1835  0.3545
 5338TIP3   OH240208   7.525   2.056  18.363  0.0772 -0.0276  0.2146
 5338TIP3    H140209   7.523   2.137  18.414 -0.4589 -0.0381  0.2171
 5338TIP3    H240210   7.618   2.035  18.355  0.1601 -0.4813  1.9051
 5339TIP3   OH240211   6.189   0.503  16.784  0.1211 -0.0323  0.4773
 5339TIP3    H140212   6.131   0.572  16.752  1.3515  0.9550  0.2984
 5339TIP3    H240213   6.260   0.499  16.719  0.4250 -1.0064  0.8412
 5340TIP3   OH240214   5.314   2.703  16.827 -0.1533 -0.5722  0.0947
 5340TIP3    H140215   5.261   2.766  16.877 -0.5088 -0.8604  0.0896
 5340TIP3    H240216   5.312   2.623  16.879 -0.6687 -0.9262 -0.4552
 5341TIP3   OH240217   1.901   4.291  19.320  0.1386  0.4689  0.0817
 5341TIP3    H140218   1.902   4.212  19.266  1.2774  2.0357 -2.3432
 5341TIP3    H240219   1.809   4.309  19.336 -0.1442 -2.0692  1.9363
 5342TIP3   OH240220   6.099   2.025  18.965 -0.3663  0.2526 -0.3881
 5342TIP3    H140221   6.065   1.961  19.027 -0.6841  0.8341  0.0558
 5342TIP3    H240222   6.073   2.110  19.002  1.2820  0.7131 -0.1929
 5343TIP3   OH240223   0.965   6.054  17.006  0.2047  0.9405  0.2129
 5343TIP3    H140224   0.896   5.989  16.996  0.0926  0.9009  1.1659
 5343TIP3    H240225   0.998   6.067  16.917  0.4439 -0.6575  0.0276
 5344TIP3   OH240226   2.430   7.028  17.863  0.7066  0.5638  0.1152
 5344TIP3    H140227   2.370   6.977  17.917  1.8524 -0.7687  0.2113
 5344TIP3    H240228   2.401   7.012  17.773  2.3412 -2.2551 -0.0642
 5345TIP3   OH240229   4.539   2.130  19.225 -0.2963 -0.0309  0.6303
 5345TIP3    H140230   4.620   2.175  19.200  0.0554  0.1071  1.9327
 5345TIP3    H240231   4.502   2.183  19.295 -0.7760 -0.8500  1.0234
 5346TIP3   OH240232   0.320   3.304  18.515 -0.2201  0.2841 -0.0550
 5346TIP3    H140233   0.405   3.345  18.527  0.0772 -0.0785 -0.8426
 5346TIP3    H240234   0.269   3.369  18.466 -0.3421  0.4225  0.2483
 5347TIP3   OH240235   7.249   3.566  18.681  0.4277  0.4438 -0.7349
 5347TIP3    H140236   7.169   3.616  18.666  0.7561  1.1507 -0.1752
 5347TIP3    H240237   7.318   3.632  18.690  0.5642  0.0435  2.0461
 5348TIP3   OH240238   3.695   5.529  17.969  0.4209 -0.3367 -0.4168
 5348TIP3    H140239   3.613   5.565  18.002  0.8252  0.3045 -0.0800
 5348TIP3    H240240   3.670   5.478  17.892 -0.2818 -0.0802 -0.3657
 5349TIP3   OH240241   6.560   4.292  18.527 -0.3809 -0.6094 -0.2999
 5349TIP3    H140242   6.574   4.379  18.565 -1.9999 -0.3358 -0.2342
 5349TIP3    H240243   6.637   4.242  18.552 -0.8123 -0.1021  2.3542
 5350TIP3   OH240244   3.808   3.306  18.541  0.1500  0.0459  0.1303
 5350TIP3    H140245   3.893   3.262  18.537  0.6189  0.6205  2.1325
 5350TIP3    H240246   3.778   3.291  18.631 -2.2726 -0.8032 -0.7412
 5351TIP3   OH240247   5.768   3.517  17.640 -0.2313  0.0564  0.5225
 5351TIP3    H140248   5.852   3.532  17.597 -0.2580  0.6872  0.6725
 5351TIP3    H240249   5.790   3.516  17.733 -0.2016 -1.1054  0.5097
 5352TIP3   OH240250   3.409   1.350  17.875 -0.0046 -0.5717  0.6181
 5352TIP3    H140251   3.416   1.429  17.928 -1.5734  0.7122 -0.9475
 5352TIP3    H240252   3.415   1.382  17.784  0.4154 -2.3963 -0.0363
 5353TIP3   OH240253   1.538   3.432  19.070 -0.6146 -0.2932  0.5145
 5353TIP3    H140254   1.505   3.356  19.024  1.3752 -1.0931  0.3152
 5353TIP3    H240255   1.585   3.396  19.146  1.2637  0.6270 -0.1513
 5354TIP3   OH240256   0.137   0.801  18.500 -0.3246 -0.3498 -0.0493
 5354TIP3    H140257   0.094   0.821  18.583  0.4626 -0.0253  0.2880
 5354TIP3    H240258   0.179   0.716  18.514 -0.9099 -0.7054 -0.4059
 5355TIP3   OH240259   5.259   2.811  17.423  0.0949  0.1667 -0.0631
 5355TIP3    H140260   5.335   2.757  17.442 -0.1999 -0.9039 -1.7494
 5355TIP3    H240261   5.251   2.811  17.327 -0.1185  2.9591 -0.1570
 5356TIP3   OH240262   0.035   0.235  17.851  0.5138 -0.5995 -0.3655
 5356TIP3    H140263   0.005   0.163  17.796  1.7651 -0.8259 -0.8029
 5356TIP3    H240264   0.094   0.284  17.795 -0.7822  1.1453 -0.2606
 5357TIP3   OH240265   3.135   5.128  17.992  0.5836  0.3210  0.1413
 5357TIP3    H140266   3.203   5.127  18.058  0.4367 -0.5031  0.2979
 5357TIP3    H240267   3.071   5.063  18.022  0.0207  0.6592 -0.2962
 5358TIP3   OH240268   6.543   6.607  18.919 -0.0708  0.1843 -0.1635
 5358TIP3    H140269   6.608   6.677  18.918 -0.5938  0.6771 -0.8907
 5358TIP3    H240270   6.580   6.540  18.976  1.5664 -0.0202 -1.4127
 5359TIP3   OH240271   5.256   3.598  18.188 -0.1028 -0.3462  0.3535
 5359TIP3    H140272   5.308   3.674  18.165  0.4006 -0.8377 -0.1655
 5359TIP3    H240273   5.265   3.591  18.284 -0.5307  0.5035  0.4679
 5360TIP3   OH240274   6.030   2.357  19.154  0.1896  0.0653 -0.2588
 5360TIP3    H140275   5.948   2.308  19.154  0.4874 -0.4392 -0.2433
 5360TIP3    H240276   6.097   2.291  19.174  0.4579  0.7008  1.0266
 5361TIP3   OH240277   5.847   0.039  18.944 -0.1522 -0.0444 -0.1763
 5361TIP3    H140278   5.937   0.072  18.935  0.3347 -1.5843 -1.2215
 5361TIP3    H240279   5.794   0.102  18.895  0.5198  0.1415 -0.6773
 5362TIP3   OH240280   5.595   5.107  17.761 -1.1624 -0.5020  0.8947
 5362TIP3    H140281   5.500   5.120  17.766 -0.9862  1.7350 -0.2991
 5362TIP3    H240282   5.609   5.059  17.680 -1.3191 -1.8263  1.6298
 5363TIP3   OH240283   5.900   5.173  18.406 -0.1537 -0.3610 -0.1501
 5363TIP3    H140284   5.922   5.266  18.395  1.6092 -0.7146 -0.0198
 5363TIP3    H240285   5.882   5.163  18.499  2.1935 -0.5597  0.3617
 5364TIP3   OH240286   6.155   6.880  17.832 -0.0641 -0.3951  0.3083
 5364TIP3    H140287   6.221   6.830  17.785  0.1577 -2.0902  2.3045
 5364TIP3    H240288   6.145   6.960  17.780  0.3855 -1.9575 -2.3813
 5365TIP3   OH240289   7.076   5.219  18.430  0.2412 -0.0134  0.8015
 5365TIP3    H140290   7.133   5.175  18.494  0.2827 -0.9127  0.1748
 5365TIP3    H240291   7.132   5.232  18.353 -0.0653  0.1818  0.6093
 5366TIP3   OH240292   0.497   6.946  17.151  0.1976 -0.6916  0.2422
 5366TIP3    H140293   0.525   7.015  17.090 -1.7844  0.7709  0.8684
 5366TIP3    H240294   0.549   6.869  17.126 -0.5064 -0.1892 -3.3269
 5367TIP3   OH240295   2.243   4.856  17.697 -0.2465 -0.1186  0.2055
 5367TIP3    H140296   2.173   4.827  17.755 -0.3063 -0.0196  0.1822
 5367TIP3    H240297   2.309   4.787  17.704 -1.0812 -1.1058 -1.1141
 5368TIP3   OH240298   5.902   2.674  17.251 -0.7230  0.6116 -0.0278
 5368TIP3    H140299   5.969   2.686  17.184 -0.6854 -1.3113 -0.4002
 5368TIP3    H240300   5.834   2.621  17.207 -1.5934  0.9401  0.8902
 5369TIP3   OH240301   5.284   5.791  18.680 -0.0406 -0.4624  0.1017
 5369TIP3    H140302   5.336   5.863  18.717  0.9433 -0.8878 -0.4221
 5369TIP3    H240303   5.221   5.835  18.622  1.1909 -0.0715 -0.9724
 5370TIP3   OH240304   2.807   2.457  18.088  0.3770 -0.6612  0.6793
 5370TIP3    H140305   2.787   2.525  18.024 -0.4228 -1.0845  0.4669
 5370TIP3    H240306   2.902   2.458  18.096  0.4480 -0.3015 -0.1744
 5371TIP3   OH240307   7.242   6.260  18.643  1.1058 -0.9239  0.1192
 5371TIP3    H140308   7.199   6.343  18.661 -0.0720 -1.6327  0.6778
 5371TIP3    H240309   7.266   6.226  18.729  0.9115 -1.5077 -0.0515
 5372TIP3   OH240310   1.806   2.963  17.996 -0.2450  0.3169  0.2316
 5372TIP3    H140311   1.896   2.949  17.968  0.7937  1.8111  2.4905
 5372TIP3    H240312   1.767   3.015  17.926  0.8172  0.1282 -0.5306
 5373TIP3   OH240313   7.535   1.776  18.087 -0.0043 -0.0254  0.2810
 5373TIP3    H140314   7.584   1.772  18.170 -1.5118 -0.5850  1.1947
 5373TIP3    H240315   7.487   1.693  18.084 -0.5069  0.2897 -0.8225
 5374TIP3   OH240316   6.990   0.714  17.485  0.3890 -0.0700  0.9675
 5374TIP3    H140317   7.067   0.689  17.535  0.5325 -0.0294  0.7694
 5374TIP3    H240318   6.979   0.808  17.503  1.4253  0.3399 -0.3712
 5375TIP3   OH240319   4.191   2.354  17.760  0.2895 -0.7947  0.2725
 5375TIP3    H140320   4.136   2.276  17.763 -2.3119  0.9750  2.0972
 5375TIP3    H240321   4.203   2.371  17.667 -0.5518 -2.3610 -0.1562
 5376TIP3   OH240322   7.459   5.052  18.477 -0.7231  0.0174 -0.2238
 5376TIP3    H140323   7.418   5.122  18.528  1.3600  1.1761 -0.0196
 5376TIP3    H240324   7.491   4.991  18.544 -0.1670  0.2675 -0.2585
 5377TIP3   OH240325   2.426   0.803  19.574 -0.3106 -0.1118  0.1173
 5377TIP3    H140326   2.416   0.723  19.626 -2.1967 -0.3308 -0.5161
 5377TIP3    H240327   2.345   0.851  19.588 -0.3050  0.4554 -1.5632
 5378TIP3   OH240328   4.474   0.435  18.530 -0.0744 -0.1593 -0.3586
 5378TIP3    H140329   4.480   0.500  18.600  1.3210  0.4141 -0.9679
 5378TIP3    H240330   4.442   0.356  18.574 -1.3907  0.7908  0.4783
 5379TIP3   OH240331   6.620   5.363  16.886  0.7745  0.1433  0.0870
 5379TIP3    H140332   6.712   5.340  16.892  0.7612  0.0239 -0.1434
 5379TIP3    H240333   6.611   5.403  16.799  0.5396 -0.1582 -0.0255
 5380TIP3   OH240334   2.997   0.978  18.702  0.0380 -0.2480 -0.3438
 5380TIP3    H140335   2.909   1.005  18.676 -0.2059  0.0562  0.7304
 5380TIP3    H240336   3.052   1.055  18.686 -0.3898  0.4612  1.3745
 5381TIP3   OH240337   1.941   4.342  18.212  0.3626 -0.5917  0.2706
 5381TIP3    H140338   1.908   4.432  18.218  0.4376 -0.5880  0.6373
 5381TIP3    H240339   1.997   4.342  18.134 -0.4611 -0.5824 -0.3442
 5382TIP3   OH240340   4.656   0.946  18.755  0.2008 -0.5107  0.3510
 5382TIP3    H140341   4.591   0.885  18.721 -0.5683  0.1767  0.5583
 5382TIP3    H240342   4.719   0.891  18.802 -0.1772 -1.1879  0.0764
 5383TIP3   OH240343   2.529   1.912  18.121 -0.3289 -0.0305 -0.1247
 5383TIP3    H140344   2.602   1.949  18.170 -0.3553  0.8885 -0.7583
 5383TIP3    H240345   2.473   1.987  18.100 -1.9395 -0.7995  1.1033
 5384TIP3   OH240346   0.383   0.958  18.432 -0.2201  0.5714  0.1452
 5384TIP3    H140347   0.292   0.948  18.460 -0.1912 -1.0537 -0.2038
 5384TIP3    H240348   0.419   1.025  18.490 -2.4291  3.6528 -1.7664
 5385TIP3   OH240349   6.096   2.221  17.776  0.5918 -0.6869  0.0922
 5385TIP3    H140350   6.070   2.252  17.689 -2.1488 -0.3349  0.9319
 5385TIP3    H240351   6.154   2.289  17.809  2.2960 -1.1958 -1.7095
 5386TIP3   OH240352   2.618   5.072  17.644  0.2559  0.1384  0.1339
 5386TIP3    H140353   2.692   5.107  17.594 -1.4414  0.1825 -2.5151
 5386TIP3    H240354   2.591   5.145  17.700  0.0162  1.3622 -1.4984
 5387TIP3   OH240355   1.799   6.960  19.145 -0.4790  0.1344 -0.3984
 5387TIP3    H140356   1.796   7.027  19.076 -1.1542  0.2891 -0.2195
 5387TIP3    H240357   1.841   7.004  19.219 -0.9264  0.3717 -0.2793
 5388TIP3   OH240358   4.015   4.697  19.370 -0.4270  0.4504 -0.2223
 5388TIP3    H140359   4.000   4.787  19.341 -0.5280  0.3872 -0.3646
 5388TIP3    H240360   3.966   4.691  19.452  0.5662  0.8942  0.4231
 5389TIP3   OH240361   7.428   5.255  17.596 -0.1293  0.0363 -0.6066
 5389TIP3    H140362   7.514   5.297  17.600  0.3026 -0.5941 -2.2819
 5389TIP3    H240363   7.365   5.327  17.606  0.6078  0.8638 -1.6970
 5390TIP3   OH240364   1.230   5.860  19.005 -0.2223  0.2938 -0.2040
 5390TIP3    H140365   1.160   5.892  19.062 -1.2667 -0.9520 -0.7329
 5390TIP3    H240366   1.190   5.787  18.958  1.5772 -0.7502 -0.1841
 5391TIP3   OH240367   2.934   5.174  12.586 -0.8051 -0.7038  0.6601
 5391TIP3    H140368   3.002   5.116  12.553 -0.5031 -0.6565  1.1905
 5391TIP3    H240369   2.933   5.158  12.681  1.3768  2.2873  1.3206
 5392TIP3   OH240370   0.495   3.210  13.453  0.3867  0.1623  0.3118
 5392TIP3    H140371   0.512   3.292  13.499 -1.2479 -1.0388  3.2603
 5392TIP3    H240372   0.534   3.142  13.508 -3.5609 -1.5465  1.3321
 5393TIP3   OH240373   4.230   5.003  11.553  0.1306  0.4691  0.2875
 5393TIP3    H140374   4.243   5.095  11.531  1.0655  0.2749 -0.0195
 5393TIP3    H240375   4.159   4.974  11.497 -1.2726  1.3977  1.5024
 5394TIP3   OH240376   5.215   1.827  12.812  0.0980  0.8975 -0.1764
 5394TIP3    H140377   5.301   1.798  12.842 -0.2480 -2.4191 -1.9343
 5394TIP3    H240378   5.231   1.870  12.729  0.0403 -0.4946 -0.9324
 5395TIP3   OH240379   5.579   4.034  10.619 -0.5941 -0.2895  0.1613
 5395TIP3    H140380   5.569   4.099  10.689 -0.8560  1.1841 -1.2054
 5395TIP3    H240381   5.495   4.034  10.574 -0.4561 -1.2859 -0.1181
 5396TIP3   OH240382   4.649   5.554  12.351 -0.3183  0.1086  0.0399
 5396TIP3    H140383   4.646   5.648  12.371  0.0084 -0.0228  0.7621
 5396TIP3    H240384   4.588   5.542  12.279  0.8343  1.1492 -1.1651
 5397TIP3   OH240385   3.114   4.183  12.839  0.2847 -0.3075 -0.2587
 5397TIP3    H140386   3.040   4.123  12.835  0.7983 -1.1362  1.6160
 5397TIP3    H240387   3.148   4.173  12.928  1.6927  1.2080 -0.5831
 5398TIP3   OH240388   7.548   0.868  12.474  0.0886  0.0001  0.0130
 5398TIP3    H140389   7.583   0.916  12.399 -1.7057 -0.4112 -1.1519
 5398TIP3    H240390   7.466   0.912  12.494 -1.4331 -2.2787 -0.8471
 5399TIP3   OH240391   5.928   5.853  11.013 -0.1485  0.3579 -0.0877
 5399TIP3    H140392   6.004   5.908  10.990 -0.5523  0.7608 -0.4959
 5399TIP3    H240393   5.964   5.784  11.068  0.7334 -0.1595 -1.2627
 5400TIP3   OH240394   0.838   6.787  11.577  0.1318 -0.0423 -0.1332
 5400TIP3    H140395   0.819   6.795  11.483 -0.0903  0.5306 -0.0412
 5400TIP3    H240396   0.829   6.694  11.595  0.3064 -0.1768 -0.7107
 5401TIP3   OH240397   2.761   1.281  11.921 -0.0835  0.0336  0.3974
 5401TIP3    H140398   2.738   1.321  11.838 -1.9293 -1.3914  0.1455
 5401TIP3    H240399   2.795   1.353  11.974 -0.9263  1.4076 -0.8456
 5402TIP3   OH240400   3.960   0.602  11.834  0.0545  0.1022 -0.4133
 5402TIP3    H140401   3.927   0.524  11.790  0.6682 -0.0934 -0.5351
 5402TIP3    H240402   3.980   0.663  11.763 -0.0824  0.2380 -0.3368
 5403TIP3   OH240403   4.678   2.947  11.021 -0.0140 -0.2506 -0.3371
 5403TIP3    H140404   4.770   2.922  11.035 -0.6897 -1.6000  2.5633
 5403TIP3    H240405   4.637   2.868  10.988 -0.5558 -0.4341  0.7306
 5404TIP3   OH240406   0.030   1.319  12.092 -0.4391  0.1341  0.5520
 5404TIP3    H140407  -0.030   1.322  12.167 -2.8042 -2.9446 -0.9571
 5404TIP3    H240408   0.097   1.256  12.118 -1.5821 -1.3819  0.0035
 5405TIP3   OH240409   4.180   0.140  12.824  0.5837 -0.6249  0.3174
 5405TIP3    H140410   4.184   0.161  12.731 -0.2686 -0.0766  0.3881
 5405TIP3    H240411   4.087   0.148  12.846  0.9694  0.8974  1.5767
 5406TIP3   OH240412   7.235   6.458  12.043 -0.6835 -0.0129  0.4494
 5406TIP3    H140413   7.304   6.398  12.074 -1.0229 -0.4035  0.4600
 5406TIP3    H240414   7.225   6.521  12.115  0.8980  1.1442 -0.2658
 5407TIP3   OH240415   1.150   6.606  11.499  0.4546 -0.4683 -0.0113
 5407TIP3    H140416   1.127   6.699  11.507  0.5471 -0.5865  2.0654
 5407TIP3    H240417   1.103   6.577  11.421  0.7816  1.4132 -0.9677
 5408TIP3   OH240418   1.549   7.223  10.746  0.1464 -0.0264 -0.5631
 5408TIP3    H140419   1.518   7.153  10.803  0.0421  0.0667 -0.5052
 5408TIP3    H240420   1.535   7.304  10.796  0.2053  0.0419 -0.6552
 5409TIP3   OH240421   3.086   6.841  13.003  0.0642  0.3400 -0.5958
 5409TIP3    H140422   3.174   6.848  12.966  0.0970  1.2428 -0.3654
 5409TIP3    H240423   3.058   6.932  13.018 -1.3834  0.1425 -1.7678
 5410TIP3   OH240424   4.568   6.107  11.220 -0.3792 -0.0370  0.2856
 5410TIP3    H140425   4.579   6.113  11.315 -0.4404  0.8859  0.2395
 5410TIP3    H240426   4.474   6.093  11.207 -0.3444 -0.3621  0.3587
 5411TIP3   OH240427   7.589   5.366  10.696 -0.1310 -0.3275  0.1748
 5411TIP3    H140428   7.495   5.358  10.683 -0.2519  1.3138 -0.2284
 5411TIP3    H240429   7.598   5.436  10.760  0.8282  0.5093 -0.8262
 5412TIP3   OH240430   0.338   1.744  12.095 -0.7305 -0.4395  0.3701
 5412TIP3    H140431   0.377   1.720  12.179 -1.6574 -0.2591  0.8617
 5412TIP3    H240432   0.408   1.789  12.049  0.1661 -1.5822  0.5542
 5413TIP3   OH240433   1.030   7.301  11.427  0.1282 -0.2556  0.2172
 5413TIP3    H140434   0.941   7.285  11.456  0.3703  0.7395  1.6173
 5413TIP3    H240435   1.023   7.376  11.368  0.0513 -0.0471  0.4889
 5414TIP3   OH240436   4.298   7.630  10.806 -0.1483  0.4685  0.0038
 5414TIP3    H140437   4.297   7.726  10.807  1.2445  0.5079  0.6146
 5414TIP3    H240438   4.206   7.605  10.810 -0.5092  1.8094  1.9855
 5415TIP3   OH240439   1.648   3.333  12.027  0.0786 -0.4641  0.4414
 5415TIP3    H140440   1.624   3.315  12.118  0.9174 -1.9265  0.4085
 5415TIP3    H240441   1.722   3.274  12.010 -0.3399 -0.5351 -1.3183
 5416TIP3   OH240442   6.561   7.538  11.885  0.0006  0.2650 -0.7235
 5416TIP3    H140443   6.471   7.566  11.901  0.4481  0.5276  1.7041
 5416TIP3    H240444   6.564   7.448  11.919  1.3473  1.2998  2.2342
 5417TIP3   OH240445   2.312   7.314  11.038 -0.0924  0.3112  0.4511
 5417TIP3    H140446   2.288   7.402  11.066 -0.1731  0.4297  0.0287
 5417TIP3    H240447   2.248   7.293  10.969 -0.5316 -0.3625  1.0405
 5418TIP3   OH240448   6.482   7.384  12.939  0.4646 -0.3896 -0.1936
 5418TIP3    H140449   6.531   7.318  12.988  0.6893  0.7270  1.1533
 5418TIP3    H240450   6.550   7.445  12.908  0.0443  0.7344  1.0053
 5419TIP3   OH240451   2.247   6.406  11.203  0.1683 -0.0378  0.3643
 5419TIP3    H140452   2.163   6.363  11.219 -0.5428  1.7642  1.7164
 5419TIP3    H240453   2.311   6.351  11.248 -0.5238 -0.4446  0.8668
 5420TIP3   OH240454   0.067   5.411  11.347 -0.0053  0.3257  0.7885
 5420TIP3    H140455  -0.008   5.353  11.364 -0.1025  0.1618 -0.1405
 5420TIP3    H240456   0.030   5.499  11.351 -0.1870  0.2573  0.6269
 5421TIP3   OH240457   2.862   6.533  11.235 -0.2392 -0.1320 -0.2307
 5421TIP3    H140458   2.939   6.529  11.178 -0.2343 -1.2138 -0.1730
 5421TIP3    H240459   2.880   6.606  11.294  0.2748  0.2830 -0.8783
 5422TIP3   OH240460   2.702   4.381  13.213  0.1413  0.2201 -0.4007
 5422TIP3    H140461   2.714   4.475  13.229 -0.2471  0.4078 -1.1948
 5422TIP3    H240462   2.608   4.368  13.215  0.2086 -0.2198  0.0370
 5423TIP3   OH240463   2.573   1.037  11.561 -0.1753 -0.0955  0.1366
 5423TIP3    H140464   2.636   0.965  11.560 -1.8112 -1.5671 -1.2013
 5423TIP3    H240465   2.575   1.069  11.651 -0.4160 -2.7396  1.1659
 5424TIP3   OH240466   4.814   6.152  11.105 -0.5700 -0.3447  0.3559
 5424TIP3    H140467   4.842   6.108  11.025  0.8303 -0.0108  0.6506
 5424TIP3    H240468   4.729   6.111  11.126 -0.5534 -1.0162 -0.8232
 5425TIP3   OH240469   1.512   7.377  12.470  0.2474  0.4947 -0.0205
 5425TIP3    H140470   1.447   7.315  12.437 -1.1258  0.3770  2.6359
 5425TIP3    H240471   1.472   7.414  12.549  1.0072  4.7649 -1.3537
 5426TIP3   OH240472   6.490   6.505  11.890  0.1552  0.3450  0.3606
 5426TIP3    H140473   6.438   6.514  11.810  0.0117  1.5070  0.5699
 5426TIP3    H240474   6.460   6.423  11.929 -1.5374  0.9744  0.4618
 5427TIP3   OH240475   3.424   3.665  10.971 -0.0574  0.6224  0.3330
 5427TIP3    H140476   3.497   3.605  10.982  0.1474  1.1172  1.9042
 5427TIP3    H240477   3.382   3.668  11.057 -0.2157  2.5134  0.2323
 5428TIP3   OH240478   0.220   6.215  11.739  0.3395  0.2043  0.0809
 5428TIP3    H140479   0.141   6.167  11.763  0.4729 -0.3249 -0.5118
 5428TIP3    H240480   0.209   6.302  11.778  0.9146 -0.8497  2.8225
 5429TIP3   OH240481   6.138   3.402  11.083  0.1055  0.0798 -0.4283
 5429TIP3    H140482   6.058   3.449  11.106  1.2614  1.9828 -0.0912
 5429TIP3    H240483   6.133   3.393  10.988 -0.4049  0.3530 -0.4343
 5430TIP3   OH240484   1.220   6.028  13.008 -0.3924 -0.6334 -0.3212
 5430TIP3    H140485   1.179   5.959  13.060 -1.3507  0.0494 -0.1521
 5430TIP3    H240486   1.186   6.109  13.045  2.9789  0.1439  1.4867
 5431TIP3   OH240487   0.446   4.699  12.077 -0.6016 -0.3480  0.2352
 5431TIP3    H140488   0.427   4.715  12.169 -1.8513  1.7545 -0.3040
 5431TIP3    H240489   0.400   4.769  12.031  2.1865  0.3377 -1.8108
 5432TIP3   OH240490   2.514   6.309  12.878 -0.2475  0.0485  0.3857
 5432TIP3    H140491   2.553   6.295  12.964  1.6606 -0.1848 -0.4721
 5432TIP3    H240492   2.513   6.404  12.868  1.7518  0.0413 -0.2548
 5433TIP3   OH240493   3.403   0.246  11.489 -0.0804 -0.2572 -0.6473
 5433TIP3    H140494   3.368   0.185  11.553 -0.2813 -0.7540 -1.2242
 5433TIP3    H240495   3.407   0.196  11.407  0.4612  0.2719 -0.9549
 5434TIP3   OH240496   6.130   6.303  12.417  0.4634 -0.4939  0.3361
 5434TIP3    H140497   6.177   6.375  12.458  0.4358  2.1874 -3.7556
 5434TIP3    H240498   6.195   6.234  12.404  1.5005  0.3777  0.8467
 5435TIP3   OH240499   0.927   3.851  12.354  0.6563 -0.1952 -0.3557
 5435TIP3    H140500   0.861   3.847  12.285  1.5192 -2.5114 -1.1189
 5435TIP3    H240501   0.877   3.838  12.435 -0.0864  0.3168 -0.7147
 5436TIP3   OH240502   3.902   0.707  10.866  0.6518  0.0276  0.2952
 5436TIP3    H140503   3.808   0.698  10.881  0.6312 -0.3002 -0.0156
 5436TIP3    H240504   3.909   0.761  10.787  0.6938 -0.9851 -0.4156
 5437TIP3   OH240505   4.336   7.459  11.065  0.1017 -0.0706 -0.1986
 5437TIP3    H140506   4.245   7.444  11.039  0.1144 -1.0359  0.2477
 5437TIP3    H240507   4.332   7.534  11.124 -0.6610 -1.0983  1.1322
 5438TIP3   OH240508   5.342   4.565  10.638  0.4488  0.3743  0.6676
 5438TIP3    H140509   5.269   4.514  10.603  0.5244  0.4514  0.3989
 5438TIP3    H240510   5.347   4.539  10.730 -1.0914  1.7255  1.1775
 5439TIP3   OH240511   4.625   0.631  11.353  0.4631  0.2259  0.4884
 5439TIP3    H140512   4.667   0.602  11.434 -1.2637  1.9624  2.1282
 5439TIP3    H240513   4.628   0.727  11.358 -2.0758  0.4088 -0.1271
 5440TIP3   OH240514   0.235   0.215  10.916 -0.0995  0.2333  0.6122
 5440TIP3    H140515   0.294   0.164  10.861 -1.5006  0.5154 -1.2584
 5440TIP3    H240516   0.159   0.158  10.929 -0.6372  0.9157  0.5415
 5441TIP3   OH240517   4.543   1.998  10.530  0.0238 -0.1232 -0.5725
 5441TIP3    H140518   4.633   1.966  10.537  0.1706  0.5434  1.0652
 5441TIP3    H240519   4.498   1.959  10.604 -0.6383  0.7836 -0.4884
 5442TIP3   OH240520   4.736   0.521  11.573  0.1824 -0.1612  0.1315
 5442TIP3    H140521   4.785   0.586  11.623  0.2688 -0.3160  0.2479
 5442TIP3    H240522   4.799   0.451  11.555  0.4130  0.3248 -1.0124
 5443TIP3   OH240523   4.521   5.542  13.386 -0.2166  0.2134 -0.3215
 5443TIP3    H140524   4.497   5.622  13.340 -0.1022 -0.2472 -1.2145
 5443TIP3    H240525   4.439   5.508  13.422 -0.5047 -0.0027 -1.1532
 5444TIP3   OH240526   1.330   4.795  11.580 -0.2736 -0.4731  0.3931
 5444TIP3    H140527   1.300   4.866  11.523 -2.2883 -1.9691 -0.5202
 5444TIP3    H240528   1.379   4.737  11.522 -1.4222 -1.4605  0.3849
 5445TIP3   OH240529   2.071   4.121  12.086 -0.0693 -0.0272  0.2996
 5445TIP3    H140530   2.049   4.141  11.995  0.9864  2.3047  0.4948
 5445TIP3    H240531   2.001   4.162  12.137  0.7369  1.0263  0.6070
 5446TIP3   OH240532   3.905   0.130  12.846 -0.3029 -0.2338 -0.3415
 5446TIP3    H140533   3.832   0.170  12.893  0.0273 -0.4843  0.3948
 5446TIP3    H240534   3.878   0.039  12.832 -0.1285 -0.3319 -0.0505
 5447TIP3   OH240535   4.088   3.278  13.036 -0.0139 -0.8095 -0.7649
 5447TIP3    H140536   4.139   3.265  13.117  0.5952  1.0444 -0.8067
 5447TIP3    H240537   4.154   3.296  12.969 -0.6308  0.5634 -1.0464
 5448TIP3   OH240538   2.106   1.906  11.708  0.3158 -0.2610 -0.1195
 5448TIP3    H140539   2.112   1.845  11.636 -0.3949 -1.2108  0.5984
 5448TIP3    H240540   2.195   1.937  11.722  0.7796 -1.5709 -0.1270
 5449TIP3   OH240541   2.323   0.757  12.915 -0.0368  0.2562 -0.5729
 5449TIP3    H140542   2.329   0.853  12.915 -0.6338  0.3202 -2.0783
 5449TIP3    H240543   2.293   0.735  12.827  0.2264 -1.3360 -0.2911
 5450TIP3   OH240544   2.879   2.453  10.722 -0.2620  0.4395 -0.2338
 5450TIP3    H140545   2.833   2.416  10.646 -0.0328  0.1513 -0.2356
 5450TIP3    H240546   2.869   2.386  10.790  0.9038 -0.0348 -0.5061
 5451TIP3   OH240547   7.466   2.744  11.490  0.5274  0.2909  0.8297
 5451TIP3    H140548   7.463   2.649  11.502  0.0137  0.0637 -0.8218
 5451TIP3    H240549   7.554   2.761  11.455  0.3549  0.3073  0.3925
 5452TIP3   OH240550   0.043   5.934  12.984  0.3192  0.0424  0.0201
 5452TIP3    H140551   0.108   5.871  12.953 -0.4388 -0.9607  0.3999
 5452TIP3    H240552   0.030   5.912  13.076  0.8447  1.4916  0.4594
 5453TIP3   OH240553   7.074   0.801  10.913 -0.0266  0.1879 -0.0822
 5453TIP3    H140554   7.007   0.798  10.844 -0.8860 -1.6836  0.7754
 5453TIP3    H240555   7.026   0.828  10.991  0.3929 -0.3424  0.3603
 5454TIP3   OH240556   3.971   6.916  12.105 -0.1757 -0.1724  0.0615
 5454TIP3    H140557   3.978   6.824  12.078  0.2331  0.6110 -2.9231
 5454TIP3    H240558   4.047   6.930  12.160  0.9456 -1.1672 -1.1400
 5455TIP3   OH240559   1.861   3.827  11.225  0.4155  0.0149 -0.1431
 5455TIP3    H140560   1.855   3.845  11.319 -0.2909  0.2777 -0.2370
 5455TIP3    H240561   1.947   3.785  11.214  0.8696  0.7504  0.4920
 5456TIP3   OH240562   2.127   7.417  11.731  0.0799  0.0957 -0.1505
 5456TIP3    H140563   2.037   7.383  11.738 -0.0189  0.6700  1.6406
 5456TIP3    H240564   2.118   7.511  11.745  0.9916  0.1421  0.1416
 5457TIP3   OH240565   1.856   1.302  11.310  0.1441 -0.2143  0.7529
 5457TIP3    H140566   1.932   1.254  11.345  0.7016  0.5636  0.6463
 5457TIP3    H240567   1.894   1.363  11.246 -0.3416  1.3945  1.9258
 5458TIP3   OH240568   0.041   4.383  12.175  0.7175  0.0007 -0.3781
 5458TIP3    H140569   0.127   4.397  12.134  2.1410 -1.4256  1.9210
 5458TIP3    H240570   0.034   4.454  12.239  0.3840 -0.1440 -0.2567
 5459TIP3   OH240571   4.884   3.369  12.388  0.2220  0.0634  0.4455
 5459TIP3    H140572   4.970   3.360  12.429 -0.7829 -1.1168  2.4435
 5459TIP3    H240573   4.827   3.309  12.437 -1.3001 -0.8209 -2.1743
 5460TIP3   OH240574   0.313   1.043  11.865  0.5736  0.0083 -0.3723
 5460TIP3    H140575   0.354   1.003  11.789  0.7309 -0.1343 -0.2137
 5460TIP3    H240576   0.299   1.135  11.840  0.5668 -0.0543 -0.5932
 5461TIP3   OH240577   3.353   4.868  12.353  0.8683  0.4660  0.5366
 5461TIP3    H140578   3.377   4.777  12.334  2.4858  0.9048  0.3139
 5461TIP3    H240579   3.372   4.915  12.271 -1.0457  0.8371  0.2651
 5462TIP3   OH240580   7.294   5.263  10.889  0.2172 -0.6155  0.4274
 5462TIP3    H140581   7.222   5.211  10.853  0.2292 -1.2873  1.3469
 5462TIP3    H240582   7.360   5.199  10.914  1.3994  0.0264 -0.8885
 5463TIP3   OH240583   5.615   7.445  13.377  0.6684  0.5211 -0.3869
 5463TIP3    H140584   5.571   7.516  13.331  0.6763  0.8894  0.1663
 5463TIP3    H240585   5.625   7.377  13.311  0.7814  1.0816 -0.9637
 5464TIP3   OH240586   3.223   6.643  11.429  0.7628 -0.3179 -0.4795
 5464TIP3    H140587   3.176   6.710  11.379  1.2408 -0.7018 -1.4582
 5464TIP3    H240588   3.297   6.690  11.467  0.1119  0.0884  0.3212
 5465TIP3   OH240589   2.129   1.702  12.819 -0.4570  0.3638  0.5314
 5465TIP3    H140590   2.075   1.781  12.810 -0.4824  0.3279  0.3583
 5465TIP3    H240591   2.066   1.633  12.841 -0.8348 -0.1508 -1.8729
 5466TIP3   OH240592   0.143   1.776  10.391 -0.0068  0.0862 -0.5433
 5466TIP3    H140593   0.190   1.696  10.368  0.4711  0.2108 -0.0038
 5466TIP3    H240594   0.156   1.785  10.485  1.0120  1.4929 -0.8035
 5467TIP3   OH240595   0.226   1.375  11.159 -0.3928 -0.6796  0.4836
 5467TIP3    H140596   0.317   1.388  11.185 -0.3942  0.4018  0.0172
 5467TIP3    H240597   0.175   1.400  11.236 -0.3136 -0.5113  0.4811
 5468TIP3   OH240598   0.694   5.342  12.767  0.2940  0.0232 -0.3727
 5468TIP3    H140599   0.727   5.378  12.684  0.6668 -2.4929 -1.4121
 5468TIP3    H240600   0.684   5.248  12.750 -1.7540 -0.2442  1.7858
 5469TIP3   OH240601   3.026   2.416  12.142 -0.1131 -0.2232 -0.3976
 5469TIP3    H140602   3.079   2.347  12.181  0.2011 -0.3546 -1.0481
 5469TIP3    H240603   3.026   2.397  12.049 -1.6416 -0.4479 -0.3695
 5470TIP3   OH240604   7.400   1.592  12.668 -0.6297  0.6629  0.2335
 5470TIP3    H140605   7.413   1.601  12.762 -1.2330 -2.1534  0.6730
 5470TIP3    H240606   7.471   1.643  12.629 -2.0975  4.4902  2.0437
 5471TIP3   OH240607   3.932   2.319  11.361  0.0599 -0.3796  0.3399
 5471TIP3    H140608   3.930   2.333  11.456  2.0708 -0.5146  0.4528
 5471TIP3    H240609   3.921   2.225  11.350  0.8439 -0.5038  0.5333
 5472TIP3   OH240610   7.271   2.515  11.886  0.1928  0.2022  0.2789
 5472TIP3    H140611   7.197   2.455  11.883  0.4587 -0.2423  1.7387
 5472TIP3    H240612   7.253   2.572  11.960  1.3197  0.0549  0.6892
 5473TIP3   OH240613   5.553   3.048  11.666  0.1279  0.1164 -0.1465
 5473TIP3    H140614   5.580   3.123  11.614  2.5128 -0.3396  0.3207
 5473TIP3    H240615   5.491   3.083  11.730  1.6012  1.8243  0.4111
 5474TIP3   OH240616   1.651   4.793  12.750  0.0005 -0.2543  0.5718
 5474TIP3    H140617   1.637   4.853  12.823 -1.8412  0.3498 -0.2002
 5474TIP3    H240618   1.671   4.850  12.676 -1.6631 -0.5415 -0.1467
 5475TIP3   OH240619   5.356   1.876  11.819  0.1485 -0.0190  0.5662
 5475TIP3    H140620   5.369   1.942  11.752 -0.3065 -1.5994 -1.1628
 5475TIP3    H240621   5.261   1.866  11.825  0.1991 -0.2298  1.1181
 5476TIP3   OH240622   4.897   0.328  11.516  0.1782  0.7905  0.1086
 5476TIP3    H140623   4.870   0.237  11.532  0.2372  1.0432  1.8904
 5476TIP3    H240624   4.991   0.322  11.497  0.4430  0.5425  1.3760
 5477TIP3   OH240625   1.195   4.049  10.981 -0.0544  0.3592  0.4279
 5477TIP3    H140626   1.117   4.104  10.992 -0.5791  0.1787 -1.8701
 5477TIP3    H240627   1.266   4.111  10.964 -0.0459  0.4457  0.7715
 5478TIP3   OH240628   0.834   2.191  12.636 -0.5165 -0.5460  0.3953
 5478TIP3    H140629   0.815   2.195  12.543  1.8397  2.0309 -0.1171
 5478TIP3    H240630   0.757   2.229  12.679 -1.1781 -0.7723 -0.5736
 5479TIP3   OH240631   2.894   6.077  13.081 -0.1028  0.1107 -1.1155
 5479TIP3    H140632   2.839   6.126  13.142  0.0908  1.4305 -1.9731
 5479TIP3    H240633   2.966   6.045  13.135 -0.7837 -0.1578 -0.3350
 5480TIP3   OH240634   3.245   3.561  11.774  0.4257  0.1643 -0.2530
 5480TIP3    H140635   3.264   3.474  11.739 -1.2610 -1.0244  1.5703
 5480TIP3    H240636   3.149   3.564  11.778  0.3152 -0.4038  5.2426
 5481TIP3   OH240637   2.384   2.589  11.738  0.1894 -0.0493 -0.4370
 5481TIP3    H140638   2.379   2.503  11.697  2.5524 -0.3965 -0.1414
 5481TIP3    H240639   2.408   2.571  11.828 -1.8078  0.8598  0.3362
 5482TIP3   OH240640   6.161   3.045  10.099 -0.2277  0.2060  0.1040
 5482TIP3    H140641   6.078   3.013  10.134 -0.1590 -0.4827 -0.3398
 5482TIP3    H240642   6.137   3.098  10.023 -0.2652  0.1018  0.0438
 5483TIP3   OH240643   1.124   0.144  11.480  0.0907 -0.2037  0.1357
 5483TIP3    H140644   1.160   0.103  11.401  1.0475  0.0274  0.4365
 5483TIP3    H240645   1.186   0.121  11.549 -0.0121  0.7412  0.5485
 5484TIP3   OH240646   5.910   3.081  10.761 -0.3407 -0.3276  0.1226
 5484TIP3    H140647   6.002   3.071  10.784 -0.1535  0.4100 -0.2904
 5484TIP3    H240648   5.868   3.000  10.793  0.5269 -0.8792 -0.1064
 5485TIP3   OH240649   1.779   4.128  12.542 -0.3359  0.0345  0.0670
 5485TIP3    H140650   1.692   4.089  12.554 -0.7732  0.4503 -1.4827
 5485TIP3    H240651   1.763   4.209  12.494  0.8267  0.6689  0.7021
 5486TIP3   OH240652   5.192   0.903  11.334 -0.5027  0.6780  0.1714
 5486TIP3    H140653   5.143   0.905  11.252 -0.8503 -0.6092  0.3205
 5486TIP3    H240654   5.125   0.899  11.402 -0.3100 -2.4739  0.3303
 5487TIP3   OH240655   5.108   6.781  11.608 -0.4910 -0.5247 -0.1248
 5487TIP3    H140656   5.027   6.744  11.642 -0.4899 -0.8480 -0.4712
 5487TIP3    H240657   5.145   6.712  11.552  0.6720 -0.8850  1.0389
 5488TIP3   OH240658   1.951   4.454  12.613  0.2286  0.5129  0.2481
 5488TIP3    H140659   1.880   4.469  12.676  1.8222  2.0281  1.7986
 5488TIP3    H240660   1.945   4.527  12.552 -0.4803 -0.2180 -0.5753
 5489TIP3   OH240661   3.461   6.040  12.633 -0.3550 -0.5932  0.1928
 5489TIP3    H140662   3.538   6.070  12.586  0.2991 -0.9375  1.0165
 5489TIP3    H240663   3.393   6.032  12.566  0.6490 -1.4327 -0.7495
 5490TIP3   OH240664   1.302   3.475  12.873 -0.1826  0.3217  0.4194
 5490TIP3    H140665   1.280   3.498  12.964 -1.5360 -2.5057  0.9394
 5490TIP3    H240666   1.397   3.484  12.868 -0.0330  0.1801  2.2599
 5491TIP3   OH240667   2.797   1.343  12.505 -0.3576 -0.0340 -0.4881
 5491TIP3    H140668   2.773   1.313  12.593 -0.4867 -0.0210 -0.5182
 5491TIP3    H240669   2.889   1.368  12.511 -0.6591  1.0108 -0.0868
 5492TIP3   OH240670   2.561   6.329  11.026 -0.4036 -0.0147  0.3554
 5492TIP3    H140671   2.538   6.414  11.063  2.2452  0.1321  1.9348
 5492TIP3    H240672   2.633   6.348  10.966 -0.8405 -0.9626 -0.4844
 5493TIP3   OH240673   7.050   6.245  12.102 -0.0242 -0.2013 -0.4045
 5493TIP3    H140674   7.034   6.247  12.196 -0.7255 -1.7303 -0.4600
 5493TIP3    H240675   7.106   6.321  12.085  1.2418 -0.6822  1.4374
 5494TIP3   OH240676   6.485   6.129  10.725  0.4805 -0.1014 -0.0916
 5494TIP3    H140677   6.405   6.177  10.704 -0.3715 -0.9292  1.1129
 5494TIP3    H240678   6.556   6.191  10.709 -0.5417  1.3680  0.8675
 5495TIP3   OH240679   6.079   4.181  10.666 -0.5666  0.1147 -0.1309
 5495TIP3    H140680   6.002   4.159  10.717 -1.9629  0.1426 -2.1030
 5495TIP3    H240681   6.073   4.275  10.652  0.8091  0.4251  1.1660
 5496TIP3   OH240682   2.750   1.541  12.765 -0.2404  0.4234  0.3833
 5496TIP3    H140683   2.741   1.488  12.845 -0.3107 -0.2686 -0.0717
 5496TIP3    H240684   2.767   1.630  12.797 -0.0077  0.1091  1.1677
 5497TIP3   OH240685   2.056   2.397  11.588  0.1330 -0.2842 -0.0602
 5497TIP3    H140686   2.144   2.361  11.586 -0.0754 -1.0800  2.0233
 5497TIP3    H240687   1.999   2.320  11.595 -0.7508  0.2165 -1.3621
 5498TIP3   OH240688   6.951   1.593  11.338  0.2403  0.0180 -0.0188
 5498TIP3    H140689   7.041   1.589  11.371  1.0361  1.7812 -1.7917
 5498TIP3    H240690   6.920   1.680  11.364 -0.8736 -0.4371  0.2688
 5499TIP3   OH240691   5.175   6.844  11.025 -0.0546  0.2028  0.1406
 5499TIP3    H140692   5.235   6.833  10.951 -1.0127  2.6736 -1.1333
 5499TIP3    H240693   5.232   6.858  11.100  1.0089  1.6291 -0.8747
 5500TIP3   OH240694   7.093   6.929  11.745  0.2706  0.5345  0.4617
 5500TIP3    H140695   7.014   6.984  11.745  0.8166  1.3473 -0.0832
 5500TIP3    H240696   7.061   6.842  11.765 -0.5817  1.1124  1.7477
 5501TIP3   OH240697   4.826   3.027  11.678 -0.5370  0.2063 -0.1777
 5501TIP3    H140698   4.789   3.020  11.590 -0.1761  2.2667 -0.5562
 5501TIP3    H240699   4.921   3.034  11.663 -0.4229 -0.0043  0.4166
 5502TIP3   OH240700   0.691   4.690  11.203 -0.1417 -0.5659 -0.1267
 5502TIP3    H140701   0.762   4.741  11.242  1.9138 -0.8433 -3.1203
 5502TIP3    H240702   0.719   4.599  11.213 -0.7014 -0.7511 -0.2226
 5503TIP3   OH240703   6.582   3.826  13.016 -0.3186 -0.3852  0.0057
 5503TIP3    H140704   6.570   3.865  13.103  2.3202  0.0351  0.2525
 5503TIP3    H240705   6.603   3.734  13.033 -0.0142 -0.3539 -0.1805
 5504TIP3   OH240706   2.604   7.087  12.934 -0.0224 -0.0526 -0.7706
 5504TIP3    H140707   2.657   7.042  13.001 -0.6822 -0.8692 -0.7791
 5504TIP3    H240708   2.594   7.022  12.864 -1.7082 -0.2412 -0.4103
 5505TIP3   OH240709   1.718   4.613  12.536 -0.1564  0.2093  0.3907
 5505TIP3    H140710   1.644   4.649  12.487 -0.5071 -0.9113  0.0565
 5505TIP3    H240711   1.694   4.623  12.628 -0.9139 -0.5164  0.2770
 5506TIP3   OH240712   3.063   2.974  13.328 -0.0691  0.1765  0.3280
 5506TIP3    H140713   3.107   3.000  13.247  1.0107 -1.4646  0.3495
 5506TIP3    H240714   3.027   2.888  13.309 -2.0128  0.8221  0.8271
 5507TIP3   OH240715   3.227   4.683  10.717 -0.2097  0.2687  0.2708
 5507TIP3    H140716   3.172   4.611  10.687  1.5561 -1.7245  1.4868
 5507TIP3    H240717   3.187   4.762  10.679 -1.3568 -1.4540 -2.4314
 5508TIP3   OH240718   5.578   5.897  10.650  0.3143  0.3452 -0.5273
 5508TIP3    H140719   5.668   5.917  10.673  0.5189 -0.9724 -0.1092
 5508TIP3    H240720   5.574   5.911  10.555  0.4929  2.0175 -0.3210
 5509TIP3   OH240721   0.041   3.814  12.522  0.7254 -0.4777 -0.7765
 5509TIP3    H140722   0.012   3.774  12.440 -0.4344  0.5756 -0.8968
 5509TIP3    H240723   0.090   3.892  12.495  2.1683 -1.2494 -0.5104
 5510TIP3   OH240724   2.454   4.948  11.452  0.4451 -0.2400 -0.1779
 5510TIP3    H140725   2.383   4.981  11.507 -0.5907 -3.3480  0.5362
 5510TIP3    H240726   2.448   5.001  11.372 -0.9432  1.3245  0.8821
 5511TIP3   OH240727   1.673   4.741  11.093 -0.1707 -0.5491 -0.3163
 5511TIP3    H140728   1.694   4.799  11.020 -0.7991 -0.9618 -0.8300
 5511TIP3    H240729   1.676   4.653  11.057  1.1663 -0.8961  0.5542
 5512TIP3   OH240730   3.575   4.317  11.396  0.1208 -0.0191 -0.0546
 5512TIP3    H140731   3.611   4.394  11.352  0.7501  0.6770  1.5777
 5512TIP3    H240732   3.650   4.258  11.405  0.8456  1.1194  2.6804
 5513TIP3   OH240733   6.129   3.470  11.663 -0.0520 -0.4849  0.0375
 5513TIP3    H140734   6.079   3.427  11.732  0.2500 -1.9923 -0.6542
 5513TIP3    H240735   6.097   3.431  11.581  2.4579 -1.8091 -0.4123
 5514TIP3   OH240736   4.161   2.141  10.560 -0.3488  0.3549  0.1368
 5514TIP3    H140737   4.194   2.090  10.486 -1.5852  0.4277 -0.4986
 5514TIP3    H240738   4.232   2.201  10.583  0.2021  0.0364 -0.7084
 5515TIP3   OH240739   0.380   6.079  11.945  0.1079  0.1571 -0.3070
 5515TIP3    H140740   0.310   6.071  12.010 -1.2928  0.0694 -1.7682
 5515TIP3    H240741   0.339   6.123  11.871  1.4345 -0.5122 -1.4773
 5516TIP3   OH240742   1.794   5.301  11.724 -0.3350 -0.3196 -0.4037
 5516TIP3    H140743   1.847   5.308  11.645  0.1113 -0.6838 -0.1418
 5516TIP3    H240744   1.762   5.389  11.739 -0.5680 -0.2830 -1.0897
 5517TIP3   OH240745   2.572   3.450  17.673 -0.2080 -0.1093  0.7427
 5517TIP3    H140746   2.630   3.522  17.697  0.3434  0.0987 -1.0520
 5517TIP3    H240747   2.613   3.411  17.596 -2.4348  0.0712 -0.6380
 5518TIP3   OH240748   1.128   6.213  11.336 -0.2538  0.1927 -0.0564
 5518TIP3    H140749   1.193   6.157  11.294  1.0473  1.3347  0.3664
 5518TIP3    H240750   1.075   6.246  11.264  0.0681 -0.2092 -0.4836
 5519TIP3   OH240751   0.135   3.172  13.413 -0.2444  0.4053 -0.0908
 5519TIP3    H140752   0.094   3.103  13.464 -1.0105  0.8449 -0.1048
 5519TIP3    H240753   0.063   3.217  13.369  0.2563  1.0775 -0.2522
 5520TIP3   OH240754   5.420   5.999  10.883 -0.0952  0.3366  0.1626
 5520TIP3    H140755   5.493   5.940  10.867  0.5944  0.8419  1.3432
 5520TIP3    H240756   5.398   6.034  10.797  0.4091 -0.5512 -0.3462
 5521TIP3   OH240757   0.793   1.246  12.647  0.2824  0.1951 -0.2346
 5521TIP3    H140758   0.808   1.158  12.614 -0.1293 -0.0300  0.1551
 5521TIP3    H240759   0.699   1.260  12.636  0.1108  0.0718  0.8909
 5522TIP3   OH240760   7.029   1.475  12.059  0.0155  0.4085  0.3465
 5522TIP3    H140761   7.084   1.417  12.112 -0.4700 -0.5270 -0.1338
 5522TIP3    H240762   6.939   1.455  12.087 -0.4060 -1.2755 -1.8362
 5523TIP3   OH240763   4.428   4.675  12.399  0.5563  0.3490 -0.6336
 5523TIP3    H140764   4.515   4.639  12.415 -0.0968 -0.5429  1.1903
 5523TIP3    H240765   4.391   4.618  12.332  0.8777 -0.1197 -0.4227
 5524TIP3   OH240766   3.017   1.560  11.204  0.0033 -0.0652 -0.1060
 5524TIP3    H140767   3.076   1.634  11.221 -0.6730  0.8725 -1.6295
 5524TIP3    H240768   2.938   1.600  11.167 -0.9339 -1.4448  0.2987
 5525TIP3   OH240769   6.957   2.821  12.620  0.5077  0.1020  0.4840
 5525TIP3    H140770   6.995   2.829  12.707  0.2379 -1.2819  0.7615
 5525TIP3    H240771   6.863   2.809  12.635  0.5609 -1.0001  0.0781
 5526TIP3   OH240772   0.918   5.652  10.900  0.1556  0.2395 -0.4402
 5526TIP3    H140773   1.001   5.696  10.880  0.2366  0.3895  0.2225
 5526TIP3    H240774   0.931   5.614  10.987 -0.4189  0.1275 -0.4005
 5527TIP3   OH240775   4.726   1.506  11.342 -0.0229 -0.0494 -0.2422
 5527TIP3    H140776   4.692   1.425  11.380  1.0390  0.3423  1.7159
 5527TIP3    H240777   4.648   1.557  11.320 -0.7103 -0.6509  0.7151
 5528TIP3   OH240778   1.582   6.545  10.764 -0.7465  0.4289 -0.0555
 5528TIP3    H140779   1.616   6.517  10.849 -1.6755  0.5602  0.3626
 5528TIP3    H240780   1.656   6.530  10.704 -0.1621  0.1013  0.7155
 5529TIP3   OH240781   3.876   0.624  17.470  0.3636  0.1465 -0.3193
 5529TIP3    H140782   3.888   0.715  17.443 -0.8737  0.3372 -0.2919
 5529TIP3    H240783   3.802   0.593  17.417 -1.1882  0.0826  1.7665
 5530TIP3   OH240784   3.341   0.748  11.141  0.4017 -0.3494  0.7355
 5530TIP3    H140785   3.319   0.746  11.048  1.3892 -0.6206  0.4971
 5530TIP3    H240786   3.369   0.658  11.161  4.1251  0.5775  0.2909
 5531TIP3   OH240787   6.313   1.627  11.759  0.2122  0.2636 -0.4685
 5531TIP3    H140788   6.234   1.613  11.706  0.3925  0.3066 -0.7526
 5531TIP3    H240789   6.327   1.721  11.756 -1.2198  0.6058  1.7567
 5532TIP3   OH240790   2.878   0.193  11.626 -0.3823 -0.2500 -0.2625
 5532TIP3    H140791   2.954   0.155  11.670 -1.8354 -1.2336  1.5260
 5532TIP3    H240792   2.825   0.118  11.601 -1.2144  0.4485 -0.6359
 5533TIP3   OH240793   2.522   1.606  12.260  0.5920 -0.2124  0.0686
 5533TIP3    H140794   2.434   1.597  12.296  0.5181 -0.9772 -0.2860
 5533TIP3    H240795   2.580   1.604  12.336  0.3736 -0.7912  0.2229
 5534TIP3   OH240796   0.596   0.972  10.349  0.3237 -0.5681  0.1799
 5534TIP3    H140797   0.600   0.885  10.388  1.5415 -0.9003 -0.6491
 5534TIP3    H240798   0.652   1.026  10.406 -0.4871 -0.2942  0.7347
 5535TIP3   OH240799   5.985   7.296  11.428  0.3280  0.1246 -0.4053
 5535TIP3    H140800   5.924   7.278  11.357  1.1566 -0.0446 -1.1055
 5535TIP3    H240801   6.020   7.210  11.451 -0.8861  0.0129  1.1205
 5536TIP3   OH240802   4.858   6.193  13.072  0.2518  0.1292  0.2886
 5536TIP3    H140803   4.850   6.289  13.074 -1.1673  0.0583 -0.8410
 5536TIP3    H240804   4.951   6.177  13.086  0.7783  1.7416 -1.0048
 5537TIP3   OH240805   2.709   4.816  11.305 -0.4385  0.1434  0.1768
 5537TIP3    H140806   2.772   4.859  11.363 -1.4669  1.9849  0.0283
 5537TIP3    H240807   2.744   4.828  11.217 -1.3038  1.8927  0.0162
 5538TIP3   OH240808   3.363   5.947  10.857 -0.1729 -0.1090  0.1131
 5538TIP3    H140809   3.274   5.921  10.883 -0.8249  2.2613  0.4731
 5538TIP3    H240810   3.381   5.895  10.779 -2.0612 -0.3604 -0.2115
 5539TIP3   OH240811   5.652   7.233  13.190  0.0178  0.0262 -0.1262
 5539TIP3    H140812   5.567   7.206  13.156  0.9992  0.5589 -3.3912
 5539TIP3    H240813   5.714   7.172  13.150  1.5310  2.3130 -1.5192
 5540TIP3   OH240814   0.677   0.961  11.326  0.5196 -0.5544 -0.9956
 5540TIP3    H140815   0.704   0.988  11.414 -0.0154 -0.7476 -0.7670
 5540TIP3    H240816   0.607   1.022  11.304 -0.3228 -1.3865 -0.7014
 5541TIP3   OH240817   1.868   7.202  10.569  0.1994  0.0550 -0.5009
 5541TIP3    H140818   1.824   7.249  10.640  0.8830  0.4943 -0.3576
 5541TIP3    H240819   1.850   7.253  10.491  0.7837  0.4504 -0.3772
 5542TIP3   OH240820   4.260   7.361  13.295 -0.1539 -0.2066 -0.3202
 5542TIP3    H140821   4.183   7.356  13.237  0.4541  0.2824 -1.1987
 5542TIP3    H240822   4.271   7.455  13.311 -2.0104 -0.4268  2.9728
 5543TIP3   OH240823   0.381   1.312  10.237  0.0394  0.1060  0.0995
 5543TIP3    H140824   0.463   1.301  10.190 -0.9376  0.0196 -1.6663
 5543TIP3    H240825   0.346   1.223  10.246  0.7351 -0.0269  2.0794
 5544TIP3   OH240826   1.668   7.625  12.358 -0.2154  0.0351 -0.0823
 5544TIP3    H140827   1.744   7.681  12.342  0.2584 -0.8382 -0.9872
 5544TIP3    H240828   1.705   7.543  12.391 -0.7176 -0.5749 -1.0015
 5545TIP3   OH240829   1.518   0.845  12.335 -0.6727 -0.0327 -0.0763
 5545TIP3    H140830   1.507   0.752  12.319 -0.8748 -0.2528  1.2384
 5545TIP3    H240831   1.431   0.882  12.322 -0.6304 -0.0561 -0.4243
 5546TIP3   OH240832   4.803   5.454  10.946  0.1588 -0.1595  0.0942
 5546TIP3    H140833   4.831   5.421  11.031  0.1904  1.7399  0.8809
 5546TIP3    H240834   4.810   5.549  10.954 -1.1253  0.1220 -1.5984
 5547TIP3   OH240835   3.824   0.921  12.661 -0.4500  0.3874 -0.3865
 5547TIP3    H140836   3.784   0.903  12.746 -1.5560 -0.2150 -1.0127
 5547TIP3    H240837   3.883   0.847  12.645  0.6801  1.0910  0.3683
 5548TIP3   OH240838   6.632   6.337  12.803 -0.2470 -0.0938  0.6353
 5548TIP3    H140839   6.563   6.364  12.863  1.3719  0.7674  2.2186
 5548TIP3    H240840   6.683   6.273  12.853  1.0025  0.4662  0.1145
 5549TIP3   OH240841   2.001   0.970  10.405  0.5137 -0.3642 -0.1062
 5549TIP3    H140842   1.971   0.932  10.488 -0.1891  1.7883  0.6739
 5549TIP3    H240843   2.096   0.959  10.407  0.3884 -1.6218  0.2780
 5550TIP3   OH240844   4.590   3.911  11.825 -0.5049  0.2018 -0.3638
 5550TIP3    H140845   4.588   3.817  11.844  0.0156  0.5590  1.7540
 5550TIP3    H240846   4.668   3.943  11.870  0.4163  1.3973 -2.6186
 5551TIP3   OH240847   3.349   5.859  10.569 -0.0394  0.4688  0.5523
 5551TIP3    H140848   3.273   5.904  10.532 -0.5337 -0.3245  0.5812
 5551TIP3    H240849   3.313   5.781  10.612  0.5464  1.2148  2.5061
 5552TIP3   OH240850   3.310   3.363  12.390 -0.2141  0.3774  0.4638
 5552TIP3    H140851   3.228   3.401  12.422 -2.2778 -0.3899 -3.3574
 5552TIP3    H240852   3.307   3.272  12.418 -0.9324  0.2266 -0.0990
 5553TIP3   OH240853   0.782   2.737  12.368  0.5034 -0.3582 -0.2740
 5553TIP3    H140854   0.853   2.683  12.404 -0.5151 -1.3861  0.2623
 5553TIP3    H240855   0.712   2.674  12.350 -0.1031  0.5682 -1.2444
 5554TIP3   OH240856   1.178   2.943  11.789  0.1500 -0.3551  0.1521
 5554TIP3    H140857   1.267   2.978  11.798  0.0940  0.9867 -3.0595
 5554TIP3    H240858   1.191   2.849  11.773  0.6734 -0.8746  3.0754
 5555TIP3   OH240859   1.617   3.340  12.642  0.6936 -0.3183  0.0969
 5555TIP3    H140860   1.596   3.358  12.734  1.5836 -2.0499  0.6745
 5555TIP3    H240861   1.550   3.389  12.593  0.0884  0.4941  1.6488
 5556TIP3   OH240862   4.200   5.314  12.709  0.1540  0.0404 -0.0391
 5556TIP3    H140863   4.211   5.398  12.664  1.5075 -0.6607 -1.1180
 5556TIP3    H240864   4.216   5.248  12.641 -0.0188 -1.0897  0.9740
 5557TIP3   OH240865   5.517   5.247  12.038 -0.3918 -0.2567 -0.4336
 5557TIP3    H140866   5.512   5.274  12.130  0.3096 -0.3609 -0.3595
 5557TIP3    H240867   5.491   5.325  11.989  1.0671  0.4271 -0.2002
 5558TIP3   OH240868   6.315   3.199  12.501 -0.2658  0.4421  0.5119
 5558TIP3    H140869   6.286   3.287  12.478 -1.8045 -0.1513  0.1205
 5558TIP3    H240870   6.239   3.143  12.486  1.5405 -1.4941 -2.3894
 5559TIP3   OH240871   2.659   5.855  11.804 -0.0125 -0.0091 -0.0941
 5559TIP3    H140872   2.712   5.776  11.820  0.9860  0.6543 -0.0486
 5559TIP3    H240873   2.666   5.906  11.885  0.3668  0.6973 -0.5654
 5560TIP3   OH240874   5.143   2.743  12.156  0.2943  0.1276  0.1234
 5560TIP3    H140875   5.113   2.683  12.224  2.1839 -1.6431 -0.4905
 5560TIP3    H240876   5.067   2.754  12.098 -0.7501  0.1411  1.4629
 5561TIP3   OH240877   2.831   3.057  12.492 -0.4776  0.8167 -0.4726
 5561TIP3    H140878   2.880   3.040  12.412  0.1786 -0.1983  0.1274
 5561TIP3    H240879   2.753   3.002  12.484  0.9824 -1.6034  0.8464
 5562TIP3   OH240880   5.013   2.541  13.470 -0.6854  0.0248 -0.3090
 5562TIP3    H140881   5.058   2.523  13.387  0.0700 -0.5408  0.2142
 5562TIP3    H240882   5.019   2.459  13.519  1.6219  1.2185  1.5875
 5563TIP3   OH240883   2.509   1.524  11.587  0.0080 -0.3938 -0.2507
 5563TIP3    H140884   2.441   1.468  11.627 -1.4765  0.1045 -1.9559
 5563TIP3    H240885   2.492   1.611  11.624 -0.5308 -0.1953 -0.9565
 5564TIP3   OH240886   6.653   0.034  12.640 -0.2297 -0.0402 -0.5666
 5564TIP3    H140887   6.655  -0.059  12.665  1.3435 -0.1961 -1.1573
 5564TIP3    H240888   6.609   0.034  12.555 -3.3442  0.2078  0.9099
 5565TIP3   OH240889   1.241   0.743  11.907  0.0180 -0.1211 -0.5112
 5565TIP3    H140890   1.148   0.734  11.886  0.3043 -0.8781 -1.5651
 5565TIP3    H240891   1.273   0.812  11.849 -0.2750  1.6546  1.3014
 5566TIP3   OH240892   2.350   7.111  12.662  0.4897  0.1851  0.1611
 5566TIP3    H140893   2.419   7.055  12.698 -1.6912 -1.6592  1.7787
 5566TIP3    H240894   2.353   7.191  12.715  3.6771  1.8680 -2.2084
 5567TIP3   OH240895   1.670   0.496  11.496  0.6050  0.1201 -0.7133
 5567TIP3    H140896   1.736   0.538  11.441 -0.2091  1.4046 -0.7495
 5567TIP3    H240897   1.618   0.568  11.530  0.6235 -0.6991  1.1747
 5568TIP3   OH240898   3.484   0.411  12.100 -0.5083 -0.0711  0.1225
 5568TIP3    H140899   3.469   0.397  12.193 -0.9076 -3.8641 -0.3388
 5568TIP3    H240900   3.396   0.427  12.064 -0.4012  0.9931  0.2968
 5569TIP3   OH240901   0.311   0.785  11.239  0.1620 -0.5231 -0.5872
 5569TIP3    H140902   0.329   0.878  11.253 -1.4542 -0.3539  0.6250
 5569TIP3    H240903   0.259   0.783  11.158 -1.9843 -0.0534  0.7112
 5570TIP3   OH240904   1.996   7.528  13.532 -0.2090 -0.2722 -0.1735
 5570TIP3    H140905   2.019   7.438  13.553 -0.4030 -0.0404  1.0713
 5570TIP3    H240906   1.901   7.526  13.519 -0.3962 -0.0279  1.0804
 5571TIP3   OH240907   0.750   0.495  10.918 -0.1793 -0.2708  0.5043
 5571TIP3    H140908   0.660   0.514  10.945 -0.3577 -0.5164  0.0971
 5571TIP3    H240909   0.799   0.573  10.943 -0.4737 -0.1942  0.8659
 5572TIP3   OH240910   4.214   2.501  11.299 -0.5397  0.2433  0.2014
 5572TIP3    H140911   4.153   2.430  11.318 -0.2054 -0.0261  0.2697
 5572TIP3    H240912   4.225   2.498  11.204  1.1472 -1.2006  0.3897
 5573TIP3   OH240913   6.883   1.862  11.357  0.5020  0.1136  0.0867
 5573TIP3    H140914   6.803   1.913  11.367  0.1343  0.0382 -2.1239
 5573TIP3    H240915   6.945   1.922  11.316  1.1737 -0.2360  0.5664
 5574TIP3   OH240916   4.964   0.651  12.702 -0.3850  0.6600  0.1066
 5574TIP3    H140917   5.060   0.647  12.699 -0.3490  1.4549  0.0544
 5574TIP3    H240918   4.944   0.663  12.795 -0.4701 -0.2267  0.2086
 5575TIP3   OH240919   1.539   6.415  12.505  0.3154 -0.0907 -0.3534
 5575TIP3    H140920   1.544   6.325  12.535 -0.8371  0.7928  2.9051
 5575TIP3    H240921   1.564   6.468  12.581 -0.9528  2.3706 -1.5049
 5576TIP3   OH240922   5.806   1.730  11.153  0.8558  0.1118 -0.6563
 5576TIP3    H140923   5.874   1.701  11.214 -0.2337 -1.9063 -0.3179
 5576TIP3    H240924   5.728   1.739  11.208  0.4913  1.0006 -1.2965
 5577TIP3   OH240925   0.114   3.378  11.877  0.2351  1.0009 -0.1442
 5577TIP3    H140926   0.089   3.416  11.793 -1.7958  0.3317  0.1194
 5577TIP3    H240927   0.035   3.382  11.931  0.5013 -1.6268  0.6044
 5578TIP3   OH240928   1.465   6.234  11.095  0.6053 -0.5802  0.3884
 5578TIP3    H140929   1.421   6.177  11.157  2.1732 -1.6172  0.6170
 5578TIP3    H240930   1.405   6.307  11.082 -1.1665 -1.9474  0.6064
 5579TIP3   OH240931   0.565   4.407  11.756 -0.7191  0.0783 -0.3350
 5579TIP3    H140932   0.573   4.400  11.851 -1.0171  0.0211 -0.3134
 5579TIP3    H240933   0.585   4.319  11.724  2.4830  0.7478 -0.5526
 5580TIP3   OH240934   1.316   6.092  11.675  0.0538  0.4439  0.7883
 5580TIP3    H140935   1.325   6.125  11.765  0.6015  2.7063 -0.0350
 5580TIP3    H240936   1.398   6.046  11.658  0.8033  1.7376  0.7992
 5581TIP3   OH240937   1.108   4.644  12.090 -0.1399 -0.4653 -0.0329
 5581TIP3    H140938   1.032   4.702  12.100 -0.1241 -0.3275 -0.6250
 5581TIP3    H240939   1.114   4.629  11.995 -0.6803 -2.1668  0.1654
 5582TIP3   OH240940   4.552   0.139  10.730 -0.0929 -0.0096  0.3674
 5582TIP3    H140941   4.642   0.107  10.728 -0.3160 -0.6095 -0.5738
 5582TIP3    H240942   4.498   0.064  10.705 -0.6981  0.8480 -1.0365
 5583TIP3   OH240943   2.910   6.534  11.948 -0.1767 -0.0403 -0.1338
 5583TIP3    H140944   2.966   6.489  11.885 -0.0052 -1.2065  0.8016
 5583TIP3    H240945   2.829   6.482  11.950 -0.7664  0.8515 -0.4820
 5584TIP3   OH240946   3.639   3.656  10.507  0.3421  0.4484 -0.2217
 5584TIP3    H140947   3.553   3.691  10.530 -0.4418 -0.7482 -1.1884
 5584TIP3    H240948   3.652   3.682  10.416  1.4600  1.4600  0.2166
 5585TIP3   OH240949   3.236   4.218  13.087 -0.6304 -0.3323 -0.1380
 5585TIP3    H140950   3.186   4.274  13.146  0.5934  0.2041  0.4289
 5585TIP3    H240951   3.320   4.263  13.077  0.3418 -1.9730  0.2298
 5586TIP3   OH240952   1.672   0.642  12.858 -0.6584 -0.1670 -0.0440
 5586TIP3    H140953   1.722   0.586  12.799  0.0899 -0.1480  0.5558
 5586TIP3    H240954   1.732   0.661  12.930 -1.2146  0.6404  0.2244
 5587TIP3   OH240955   4.915   6.458  12.507 -0.7905  0.4575  0.1351
 5587TIP3    H140956   4.998   6.456  12.554 -0.2327  0.0007 -0.8293
 5587TIP3    H240957   4.879   6.544  12.527 -0.4002  0.4143  1.0885
 5588TIP3   OH240958   4.461   5.103  11.232 -0.3394  0.0561  0.0653
 5588TIP3    H140959   4.408   5.182  11.245 -0.1975 -0.0063  1.1628
 5588TIP3    H240960   4.523   5.105  11.306  0.3762 -0.5125 -0.5112
 5589TIP3   OH240961   0.765   3.842  11.882 -0.8020  0.2480 -0.3684
 5589TIP3    H140962   0.792   3.929  11.853 -1.1996  0.3396 -0.4644
 5589TIP3    H240963   0.767   3.789  11.802 -1.1185  0.3081 -0.4170
 5590TIP3   OH240964   6.448   6.127  12.932  0.3466  0.0622 -0.1656
 5590TIP3    H140965   6.434   6.211  12.975 -1.3214 -0.5553  0.5508
 5590TIP3    H240966   6.543   6.125  12.916  0.5868  1.5870  0.7998
 5591TIP3   OH240967   4.190   6.449  11.450  0.1624 -0.4465  0.7599
 5591TIP3    H140968   4.198   6.357  11.477 -0.1401 -0.4727  0.7614
 5591TIP3    H240969   4.172   6.444  11.356  1.6718 -0.3469  0.4303
 5592TIP3   OH240970   4.456   6.773  12.739 -0.0364  0.2872 -0.3895
 5592TIP3    H140971   4.539   6.801  12.780  1.0510 -0.7910 -1.7813
 5592TIP3    H240972   4.409   6.728  12.810  0.4688  1.0593  0.4676
 5593TIP3   OH240973   1.102   5.778  12.506 -0.5894  0.0980 -0.1343
 5593TIP3    H140974   1.193   5.806  12.498 -0.2570 -0.9510 -0.2456
 5593TIP3    H240975   1.067   5.830  12.578  0.4271 -0.2605  0.6534
 5594TIP3   OH240976   3.303   0.022  10.662  0.2690 -0.5705  0.6942
 5594TIP3    H140977   3.285  -0.072  10.658  0.3572 -0.5673  0.0335
 5594TIP3    H240978   3.256   0.058  10.586  3.1685 -0.5934 -1.2628
 5595TIP3   OH240979   0.953   3.841  11.080  0.3484  0.1416  0.1812
 5595TIP3    H140980   1.000   3.765  11.045 -1.1005 -0.3681 -0.7312
 5595TIP3    H240981   0.915   3.883  11.003 -0.8789  0.3884  0.8932
 5596TIP3   OH240982   0.606   6.142  12.303 -0.1615 -0.4303  0.1518
 5596TIP3    H140983   0.570   6.158  12.390  2.3043  1.3795  0.9846
 5596TIP3    H240984   0.692   6.102  12.320  0.2011 -0.3976 -1.4584
 5597TIP3   OH240985   1.269   6.847  12.617 -0.1117  0.7150  0.6224
 5597TIP3    H140986   1.321   6.789  12.562 -0.3047  0.5488  0.6169
 5597TIP3    H240987   1.251   6.797  12.696  0.1778  0.9594  0.8462
 5598TIP3   OH240988   0.768   3.819  10.692 -0.1328 -0.1842  0.0743
 5598TIP3    H140989   0.766   3.793  10.600  0.6476  0.5008 -0.1506
 5598TIP3    H240990   0.841   3.880  10.698 -1.4627  1.4354  0.6997
 5599TIP3   OH240991   5.701   4.207  11.713 -0.1106 -0.2938 -0.1812
 5599TIP3    H140992   5.735   4.238  11.629  1.1549 -0.4773  0.2278
 5599TIP3    H240993   5.645   4.133  11.692 -2.0665  1.3575 -1.0660
 5600TIP3   OH240994   0.577   4.665  10.954 -0.3778 -0.4249 -0.0193
 5600TIP3    H140995   0.506   4.605  10.975 -0.2984  0.0665  1.8742
 5600TIP3    H240996   0.639   4.655  11.027  1.5681 -0.9084 -1.6397
 5601TIP3   OH240997   5.240   2.860  11.213  0.2497  0.1639  0.7826
 5601TIP3    H140998   5.242   2.955  11.203 -0.0444  0.1700  0.7474
 5601TIP3    H240999   5.263   2.826  11.126 -1.8496  0.2167  0.1459
 5602TIP3   OH241000   3.358   6.499  12.796  0.1581  0.0646  0.4022
 5602TIP3    H141001   3.327   6.422  12.842 -1.2387  0.6447  0.4822
 5602TIP3    H241002   3.397   6.554  12.865 -0.9996  0.4707  0.7637
 5603TIP3   OH241003   5.284   5.094  10.612  0.2555  0.2458 -0.2519
 5603TIP3    H141004   5.321   5.157  10.675 -0.3694  1.8855 -1.4481
 5603TIP3    H241005   5.316   5.124  10.527 -0.1297 -1.0336 -0.8692
 5604TIP3   OH241006   5.433   1.898  11.102 -0.1939  0.3562  0.0868
 5604TIP3    H141007   5.393   1.878  11.187 -2.3638 -1.4174 -1.2341
 5604TIP3    H241008   5.491   1.824  11.084  1.0791  1.2315  0.4250
 5605TIP3   OH241009   7.342   0.433  11.367  0.0954 -0.1320 -0.1220
 5605TIP3    H141010   7.340   0.387  11.451  1.7748  0.3873  0.2394
 5605TIP3    H241011   7.419   0.397  11.323  0.7712  1.4858 -0.3091
 5606TIP3   OH241012   0.302   6.477  11.036  0.2739  0.0812 -0.5453
 5606TIP3    H141013   0.219   6.522  11.029  0.8416  1.6339  1.6890
 5606TIP3    H241014   0.301   6.437  11.123  0.9487 -1.8992 -1.3777
 5607TIP3   OH241015   0.373   5.644  11.159  0.2738  0.1829  0.0048
 5607TIP3    H141016   0.411   5.730  11.181  1.1664 -0.5452  1.5323
 5607TIP3    H241017   0.295   5.638  11.214  0.4840 -0.1635  0.2729
 5608TIP3   OH241018   5.578   3.333  12.831 -0.1444 -0.0145 -0.4717
 5608TIP3    H141019   5.642   3.401  12.810  0.2716 -0.0124  0.7265
 5608TIP3    H241020   5.498   3.380  12.851  0.2083  0.1489  0.5916
 5609TIP3   OH241021   2.930   7.557  11.156  0.1755 -0.2707  0.2912
 5609TIP3    H141022   2.866   7.486  11.158 -1.2202  0.8924 -0.7378
 5609TIP3    H241023   2.890   7.627  11.208  2.1852 -0.6731  2.5634
 5610TIP3   OH241024   3.431   0.969  11.297  0.2661  0.2726 -0.1988
 5610TIP3    H141025   3.467   1.038  11.240  0.4685  1.3242  1.1628
 5610TIP3    H241026   3.410   0.897  11.237  2.7190  0.3953 -1.3289
 5611TIP3   OH241027   6.203   1.586  11.313  0.2080  0.4472 -0.3353
 5611TIP3    H141028   6.121   1.630  11.338  0.2447  0.1622  0.3107
 5611TIP3    H241029   6.203   1.505  11.364  0.1223 -0.3345 -1.5511
 5612TIP3   OH241030   1.680   7.535  12.960  0.0836 -0.4303  0.3503
 5612TIP3    H141031   1.693   7.512  13.052 -1.5897 -0.6301  0.5682
 5612TIP3    H241032   1.600   7.588  12.960  0.2249 -0.1899 -0.9599
 5613TIP3   OH241033   4.815   4.685  11.568 -0.0332 -0.2716  0.1064
 5613TIP3    H141034   4.842   4.756  11.510  2.0485 -1.6488 -0.7084
 5613TIP3    H241035   4.857   4.705  11.652 -0.0057 -0.1998  0.0752
 5614TIP3   OH241036   2.846   2.598  10.370  0.1703  0.1399  0.1732
 5614TIP3    H141037   2.879   2.669  10.424  1.7790 -0.9702  0.7206
 5614TIP3    H241038   2.820   2.640  10.288  0.6205  1.4045  0.6628
 5615TIP3   OH241039   1.700   2.087  10.751 -0.0358  0.0559  0.0244
 5615TIP3    H141040   1.788   2.106  10.784 -0.2644  1.1098  0.0840
 5615TIP3    H241041   1.661   2.174  10.738 -0.5375 -0.3661 -1.4225
 5616TIP3   OH241042   0.370   5.367  12.233 -0.4678 -0.0190  0.2359
 5616TIP3    H141043   0.338   5.449  12.194 -0.6845  0.3938  1.2416
 5616TIP3    H241044   0.449   5.393  12.281  0.0719 -0.6079 -0.3220
 5617TIP3   OH241045   6.203   6.221  10.741 -0.1887  0.2622 -0.2329
 5617TIP3    H141046   6.147   6.266  10.804  0.9734  0.3987  0.7461
 5617TIP3    H241047   6.197   6.273  10.661  0.7318  1.9007  0.7173
 5618TIP3   OH241048   5.152   3.725  12.353  0.1749 -0.0866 -0.2240
 5618TIP3    H141049   5.225   3.668  12.329  0.8666  0.6696  0.0336
 5618TIP3    H241050   5.103   3.675  12.418 -1.0556 -1.6770 -2.2596
 5619TIP3   OH241051   0.275   7.571  10.940  0.1222 -0.1548 -0.2617
 5619TIP3    H141052   0.187   7.607  10.927  0.2161 -0.4052 -1.8295
 5619TIP3    H241053   0.293   7.584  11.033 -0.7863  1.6722 -0.3003
 5620TIP3   OH241054   4.870   6.474  13.075 -0.4854  0.3023 -0.2169
 5620TIP3    H141055   4.843   6.526  12.999 -3.0550 -0.2953  0.2116
 5620TIP3    H241056   4.954   6.512  13.101 -0.3343  1.5850 -2.3370
 5621TIP3   OH241057   3.751   4.637  10.682  0.7689 -0.4101 -0.2935
 5621TIP3    H141058   3.795   4.715  10.649 -0.5226  0.1563 -0.7385
 5621TIP3    H241059   3.657   4.656  10.673  0.4147 -1.5936  0.5663
 5622TIP3   OH241060   1.959   1.278  13.058 -0.4207  0.0248 -0.2054
 5622TIP3    H141061   2.009   1.202  13.030  0.2202  0.2338  0.3480
 5622TIP3    H241062   1.909   1.248  13.134 -1.3627 -0.2585 -0.9204
 5623TIP3   OH241063   5.680   2.573  10.882 -0.3342  0.0013  0.2141
 5623TIP3    H141064   5.606   2.575  10.942 -1.3036 -0.4561 -0.9330
 5623TIP3    H241065   5.713   2.483  10.888  0.6037  0.3859  1.2441
 5624TIP3   OH241066   2.896   4.860  11.090  0.3189  0.1991 -0.2314
 5624TIP3    H141067   2.852   4.909  11.020  0.0626  0.6851  0.2636
 5624TIP3    H241068   2.956   4.801  11.044 -0.1422  0.2228 -0.8756
 5625TIP3   OH241069   4.317   1.860  12.763  0.4927 -0.3928  0.2599
 5625TIP3    H141070   4.409   1.877  12.781  0.5572  1.4485 -1.4739
 5625TIP3    H241071   4.318   1.795  12.693  0.5109  0.1478 -0.2490
 5626TIP3   OH241072   0.476   0.793  13.292 -0.2003  0.4647  0.0030
 5626TIP3    H141073   0.509   0.815  13.379  0.8494  0.0911 -0.2892
 5626TIP3    H241074   0.389   0.757  13.308 -0.4968  1.4786  0.7909
 5627TIP3   OH241075   4.666   0.368  11.080  0.1192  0.1114  1.1400
 5627TIP3    H141076   4.615   0.359  11.160 -0.1350 -1.8296  0.8070
 5627TIP3    H241077   4.741   0.422  11.105 -0.6339  0.6370  2.3249
 5628TIP3   OH241078   5.802   2.461  12.040 -0.0869  0.0756  0.7321
 5628TIP3    H141079   5.768   2.528  11.980 -1.6946  0.2450  1.7760
 5628TIP3    H241080   5.877   2.502  12.083  0.8394  0.0959 -0.8289
 5629TIP3   OH241081   7.132   5.175  12.586  0.0849 -0.2443  0.8662
 5629TIP3    H141082   7.138   5.088  12.547 -1.5206  0.4608 -1.1100
 5629TIP3    H241083   7.043   5.205  12.565  0.7428  2.0583  1.0886
 5630TIP3   OH241084   2.977   7.026  11.892  0.2744 -0.7348 -0.0043
 5630TIP3    H141085   2.925   7.029  11.973  0.0619  1.7457 -0.1654
 5630TIP3    H241086   2.958   6.940  11.854 -1.3151 -1.0831  1.4859
 5631TIP3   OH241087   3.798   6.830  10.826  0.6905  0.2101  0.5632
 5631TIP3    H141088   3.812   6.914  10.869  0.6828  0.6992 -0.3712
 5631TIP3    H241089   3.878   6.816  10.775 -0.4778  1.0961 -1.6288
 5632TIP3   OH241090   5.678   2.299  10.766  0.5687 -0.2121  0.7805
 5632TIP3    H141091   5.638   2.254  10.691 -0.9639  1.0950  0.7573
 5632TIP3    H241092   5.652   2.246  10.842 -0.6029  0.1766  0.6780
 5633TIP3   OH241093   0.452   4.076  12.149  0.0755  0.4307 -0.1683
 5633TIP3    H141094   0.423   4.065  12.059  1.3345  0.6945 -0.6341
 5633TIP3    H241095   0.447   3.989  12.188 -2.9756  0.7342  0.3469
 5634TIP3   OH241096   2.385   6.072  12.086  0.0040  0.1155  0.1471
 5634TIP3    H141097   2.323   6.002  12.106 -0.1072  0.4153  0.8754
 5634TIP3    H241098   2.414   6.103  12.171  0.8992  0.2139 -0.1908
 5635TIP3   OH241099   3.309   2.963  12.748  0.3816 -0.2563 -1.0813
 5635TIP3    H141100   3.355   2.995  12.825 -0.2494  0.3223 -0.9381
 5635TIP3    H241101   3.379   2.935  12.688  0.8573 -1.1886 -0.1118
 5636TIP3   OH241102   4.257   4.984  10.805  0.0689  0.1537  0.4202
 5636TIP3    H141103   4.281   4.894  10.784 -0.2811  0.6296 -2.3174
 5636TIP3    H241104   4.253   4.986  10.901 -0.3902 -2.8472  0.5516
 5637TIP3   OH241105   5.831   0.731  12.818  0.0934  0.4957  0.2662
 5637TIP3    H141106   5.886   0.663  12.858 -1.0614 -1.8476 -1.8669
 5637TIP3    H241107   5.889   0.775  12.756  0.1939 -0.4311 -0.3221
 5638TIP3   OH241108   5.689   6.234  11.310  0.2076 -0.5671 -0.6331
 5638TIP3    H141109   5.746   6.309  11.329 -0.3376 -0.1967 -0.4115
 5638TIP3    H241110   5.737   6.158  11.341  1.5378 -0.5248 -2.3885
 5639TIP3   OH241111   0.277   1.405  10.581  0.1274  0.0173  0.1267
 5639TIP3    H141112   0.266   1.442  10.669 -2.1882 -0.4570  0.0968
 5639TIP3    H241113   0.233   1.467  10.523 -0.7106 -0.9889 -0.3484
 5640TIP3   OH241114   6.288   1.015  11.630  0.2387  0.2385 -0.4750
 5640TIP3    H141115   6.339   0.988  11.554 -0.6186 -2.3513 -0.2250
 5640TIP3    H241116   6.283   1.111  11.623  1.9155  0.2551 -2.4993
 5641TIP3   OH241117   4.255   3.273  11.061  0.4511 -0.3905  0.4618
 5641TIP3    H141118   4.349   3.283  11.073  0.1000  1.1061  2.5246
 5641TIP3    H241119   4.221   3.363  11.063 -1.0412 -0.9069 -0.1369
 5642TIP3   OH241120   4.072   6.206  11.283 -0.2600 -0.4171 -0.0307
 5642TIP3    H141121   4.126   6.282  11.260  1.8028 -1.7709  0.0095
 5642TIP3    H241122   4.008   6.199  11.213  1.3422 -0.2761 -1.5775
 5643TIP3   OH241123   0.415   1.793  11.126  0.4288 -0.0625  0.6666
 5643TIP3    H141124   0.469   1.719  11.151  1.5156 -0.1626 -1.6757
 5643TIP3    H241125   0.325   1.762  11.136  0.8400 -1.0768  1.3731
 5644TIP3   OH241126   4.527   4.526  12.048 -0.7389 -0.3249 -0.2586
 5644TIP3    H141127   4.465   4.522  12.121 -0.5566 -0.6328 -0.1185
 5644TIP3    H241128   4.593   4.459  12.068 -0.2502  0.1313 -0.3023
 5645TIP3   OH241129   0.451   1.353  12.029 -0.1132  0.6903  0.2367
 5645TIP3    H141130   0.444   1.300  12.108  1.5244 -0.3299 -0.2573
 5645TIP3    H241131   0.507   1.427  12.054 -2.1008  2.0604  0.8270
 5646TIP3   OH241132   5.998   6.260  11.922  0.0636 -0.5342  0.1455
 5646TIP3    H141133   6.036   6.288  11.839 -0.1474 -1.1736 -0.1723
 5646TIP3    H241134   6.034   6.321  11.987 -0.1039  0.2371 -0.4712
 5647TIP3   OH241135   7.046   5.921  12.258 -0.0051  0.1441  0.1660
 5647TIP3    H141136   6.993   6.001  12.267 -0.6853 -0.2448 -0.2462
 5647TIP3    H241137   7.009   5.877  12.181  1.0076 -0.0838 -0.2100
 5648TIP3   OH241138   7.183   1.406  10.973 -0.2275 -0.2549  0.3043
 5648TIP3    H141139   7.185   1.311  10.980  2.3258 -0.3288 -0.3992
 5648TIP3    H241140   7.231   1.437  11.050 -0.3848  0.4083  0.1427
 5649TIP3   OH241141   3.162   5.846  11.982 -0.2859  0.5510 -0.0442
 5649TIP3    H141142   3.209   5.775  12.026 -2.0450 -0.3928  0.3901
 5649TIP3    H241143   3.170   5.825  11.889  0.7098  0.7871 -0.0255
 5650TIP3   OH241144   0.367   6.928  11.693  0.0021  0.1142 -0.2899
 5650TIP3    H141145   0.273   6.942  11.683 -0.1371  0.3621  1.1670
 5650TIP3    H241146   0.407   7.003  11.650 -0.5638  1.4085  1.3155
 5651TIP3   OH241147   6.119   2.018  10.901 -0.0354  0.0457  0.0122
 5651TIP3    H141148   6.209   2.037  10.927 -0.6002  0.8911  1.4869
 5651TIP3    H241149   6.087   1.956  10.966 -1.4668  2.1658  1.4639
 5652TIP3   OH241150   6.026   1.138  11.716  0.0485  0.0833 -0.0351
 5652TIP3    H141151   6.120   1.155  11.705  0.4517 -1.3965  0.8307
 5652TIP3    H241152   6.014   1.135  11.811 -0.8963  0.2562 -0.1438
 5653TIP3   OH241153   1.893   0.151  13.037  0.3705  0.6519  0.2098
 5653TIP3    H141154   1.880   0.089  13.109 -0.8492  0.5166 -0.0953
 5653TIP3    H241155   1.982   0.134  13.006  0.0428 -1.0181  0.0752
 5654TIP3   OH241156   5.210   2.578  11.697  0.3542  0.0280 -0.7500
 5654TIP3    H141157   5.205   2.666  11.661 -1.4568  0.5077  0.5384
 5654TIP3    H241158   5.211   2.520  11.621 -1.4422  1.0732 -1.6337
 5655TIP3   OH241159   0.849   0.260  11.567 -0.3917 -0.4842 -0.6316
 5655TIP3    H141160   0.912   0.196  11.533 -0.2994 -0.9148  0.2965
 5655TIP3    H241161   0.764   0.227  11.541 -0.5545 -2.4165  1.9145
 5656TIP3   OH241162   1.925   2.151  12.110 -0.3105  0.4029  0.0549
 5656TIP3    H141163   1.861   2.103  12.057 -0.4469  2.0164 -1.3475
 5656TIP3    H241164   1.943   2.094  12.185 -1.6741 -1.0703 -0.6888
 5657TIP3   OH241165   6.055   0.976  11.487 -0.2782 -0.2018 -0.3962
 5657TIP3    H141166   6.113   0.990  11.561  0.6844 -0.8099 -1.0197
 5657TIP3    H241167   6.032   1.064  11.457 -0.7005  0.0499  0.6253
 5658TIP3   OH241168   5.919   3.890  11.224  0.8508 -0.2806 -0.6318
 5658TIP3    H141169   5.827   3.881  11.249  1.2177  0.5837  1.1058
 5658TIP3    H241170   5.939   3.982  11.236  1.8819 -0.3914 -1.3131
 5659TIP3   OH241171   1.186   0.295  12.259  0.1185 -0.6228  0.0566
 5659TIP3    H141172   1.200   0.349  12.182 -1.8942  0.3044  0.2657
 5659TIP3    H241173   1.091   0.296  12.272  0.3326 -1.3753  2.1104
 5660TIP3   OH241174   3.456   1.347  12.677  0.2696  0.7178  0.1334
 5660TIP3    H141175   3.449   1.254  12.653  1.9918  0.5175  0.2937
 5660TIP3    H241176   3.435   1.349  12.771  0.9958  0.3572  0.3110
 5661TIP3   OH241177   3.244   0.273  11.042  0.3337 -0.3787 -0.0595
 5661TIP3    H141178   3.321   0.223  11.016 -0.1402 -1.1251 -0.0441
 5661TIP3    H241179   3.213   0.313  10.961 -0.3418 -1.5961 -0.4298
 5662TIP3   OH241180   0.623   0.104  12.544  0.5922 -0.1287  0.6573
 5662TIP3    H141181   0.651   0.013  12.556 -0.0533 -0.2660  1.1657
 5662TIP3    H241182   0.527   0.099  12.538  0.5607  0.5053  0.5594
 5663TIP3   OH241183   6.535   1.299  12.057  0.0622  0.0986  0.0407
 5663TIP3    H141184   6.442   1.300  12.081  0.3923 -0.2556  1.4317
 5663TIP3    H241185   6.537   1.328  11.966 -1.3352  0.9693  0.2591
 5664TIP3   OH241186   4.469   4.807  12.069  0.3898 -0.1577  0.0830
 5664TIP3    H141187   4.485   4.722  12.029 -0.1437  0.5356 -1.6894
 5664TIP3    H241188   4.399   4.846  12.017  1.0946  1.6500  0.4006
 5665TIP3   OH241189   1.988   4.826  12.575 -0.1992 -1.1576 -0.3280
 5665TIP3    H141190   1.994   4.816  12.670 -1.1511  0.3116 -0.0795
 5665TIP3    H241191   1.908   4.779  12.551 -1.4255  0.6545  0.0105
 5666TIP3   OH241192   2.110   1.146  11.336  0.7228 -0.5539 -0.3083
 5666TIP3    H141193   2.079   1.075  11.392  0.3664  0.1210  0.3623
 5666TIP3    H241194   2.206   1.141  11.342  0.6851 -0.0473  0.9389
 5667TIP3   OH241195   3.544   6.804  10.941  0.5379  0.2126  0.4847
 5667TIP3    H141196   3.627   6.813  10.894  0.6307 -1.8221  0.1757
 5667TIP3    H241197   3.570   6.789  11.032  0.6413 -1.9435  0.1594
 5668TIP3   OH241198   5.594   4.527  12.068  0.3905 -0.3993  0.5752
 5668TIP3    H141199   5.607   4.618  12.096 -0.6801 -0.2818  0.7384
 5668TIP3    H241200   5.510   4.503  12.106 -0.3058 -0.7979 -1.1453
 5669TIP3   OH241201   3.989   5.621  12.065 -0.1632  0.2247 -0.3837
 5669TIP3    H141202   3.901   5.639  12.030 -0.2626 -2.5884 -1.8668
 5669TIP3    H241203   3.996   5.525  12.064  4.2176  0.2530 -3.8555
 5670TIP3   OH241204   6.952   6.127  11.327 -0.2845  0.1346 -0.3985
 5670TIP3    H141205   6.899   6.048  11.331 -0.7556  0.3475 -1.7730
 5670TIP3    H241206   6.956   6.148  11.234 -0.3483  1.8303 -0.0527
 5671TIP3   OH241207   5.710   2.620  11.856  0.2789  0.1223  0.2425
 5671TIP3    H141208   5.650   2.572  11.800  0.5338 -0.2057  0.2464
 5671TIP3    H241209   5.657   2.689  11.895 -0.4570 -1.0672  1.4091
 5672TIP3   OH241210   2.096   2.077  10.650 -0.3495 -0.0245  0.7772
 5672TIP3    H141211   2.106   1.984  10.626 -0.8006  0.1996 -0.3217
 5672TIP3    H241212   2.175   2.119  10.617  0.8407 -0.3043  3.0323
 5673TIP3   OH241213   2.044   0.770  12.262 -0.1496  0.3591  0.6020
 5673TIP3    H141214   1.956   0.790  12.292 -0.3585  0.4247 -0.0407
 5673TIP3    H241215   2.068   0.844  12.206  1.1866  1.4645  2.5209
 5674TIP3   OH241216   7.257   4.962  11.257  0.5478  0.6103 -0.2496
 5674TIP3    H141217   7.327   4.900  11.239  0.3769  0.9212 -2.1449
 5674TIP3    H241218   7.269   4.986  11.349  3.3887  1.2145 -0.7115
 5675TIP3   OH241219   7.354   6.638  11.503  0.4176  0.0724 -0.2581
 5675TIP3    H141220   7.348   6.724  11.543 -1.2820 -0.8574  1.6254
 5675TIP3    H241221   7.432   6.598  11.542 -0.5289 -0.3577  1.2566
 5676TIP3   OH241222   2.437   7.559  12.249  0.1517 -0.4167  0.4938
 5676TIP3    H141223   2.449   7.629  12.185 -1.4620 -0.4606  0.0962
 5676TIP3    H241224   2.412   7.603  12.330 -2.8336 -0.5292 -0.2556
 5677TIP3   OH241225   4.478   3.118  11.168 -0.4453  0.2393 -0.1624
 5677TIP3    H141226   4.436   3.056  11.228 -1.0109  0.4667 -0.3154
 5677TIP3    H241227   4.553   3.070  11.133 -1.1471 -0.5459 -0.6420
 5678TIP3   OH241228   5.119   7.638  11.587  0.2122 -0.4718  0.5756
 5678TIP3    H141229   5.213   7.621  11.591 -0.1830 -2.8206  2.0989
 5678TIP3    H241230   5.079   7.552  11.578 -1.8094  0.5304 -1.0154
 5679TIP3   OH241231   1.118   3.451  10.646 -0.3500  0.3552  0.1399
 5679TIP3    H141232   1.180   3.378  10.642 -1.3721 -0.6109  1.2319
 5679TIP3    H241233   1.041   3.419  10.599 -0.9501  0.5773  0.9504
 5680TIP3   OH241234   3.227   2.719  11.689 -0.0401  0.3247 -0.2799
 5680TIP3    H141235   3.310   2.733  11.643 -0.0290  0.6332 -0.1716
 5680TIP3    H241236   3.208   2.627  11.677  0.2552  0.2799 -0.4167
 5681TIP3   OH241237   3.001   6.878  10.893 -0.5669 -0.5238  0.3002
 5681TIP3    H141238   2.927   6.827  10.859  0.5322 -0.8684 -1.7140
 5681TIP3    H241239   2.983   6.968  10.864  1.5814 -1.1739 -3.7531
 5682TIP3   OH241240   4.749   1.864  13.010  0.2076 -0.0627  0.1349
 5682TIP3    H141241   4.770   1.930  13.076 -0.8814  0.4739 -0.0358
 5682TIP3    H241242   4.834   1.825  12.987  0.7809  0.8169  0.7114
 5683TIP3   OH241243   4.336   7.602  12.933 -0.1085  0.3541  0.7372
 5683TIP3    H141244   4.424   7.635  12.919 -0.4249  0.7933 -0.3355
 5683TIP3    H241245   4.284   7.641  12.862 -0.9883 -0.5400  0.8653
 5684TIP3   OH241246   3.888   4.574  13.053 -0.7041  0.1899 -0.2628
 5684TIP3    H141247   3.829   4.650  13.057 -1.9737 -0.6680 -1.5650
 5684TIP3    H241248   3.842   4.511  12.998  0.4585 -1.4243  0.5275
 5685TIP3   OH241249   4.653   7.236  12.787  0.1224  0.3098 -0.2941
 5685TIP3    H141250   4.650   7.168  12.854 -0.0171  0.5276 -0.0779
 5685TIP3    H241251   4.629   7.316  12.833  0.7221  0.5866 -0.4473
 5686TIP3   OH241252   7.329   1.223  10.646  0.3637 -0.0845  0.5919
 5686TIP3    H141253   7.422   1.200  10.633  0.2542  0.6051 -1.8480
 5686TIP3    H241254   7.303   1.265  10.565 -2.5482 -1.6358  0.5806
 5687TIP3   OH241255   3.208   3.183  11.802  0.1271 -0.3978 -0.5746
 5687TIP3    H141256   3.263   3.126  11.749 -0.4102 -0.7648 -0.7499
 5687TIP3    H241257   3.173   3.247  11.739 -0.4455 -0.7833 -0.6515
 5688TIP3   OH241258   5.986   2.680  12.851  0.1026  0.1543  0.4965
 5688TIP3    H141259   6.017   2.609  12.794  1.8515  0.0790  1.4759
 5688TIP3    H241260   5.923   2.637  12.909 -0.3903 -0.1367 -0.2260
 5689TIP3   OH241261   2.954   2.211  10.527  0.9465  0.1714  0.3235
 5689TIP3    H141262   2.881   2.261  10.489 -0.2269 -1.0923  0.8221
 5689TIP3    H241263   3.032   2.260  10.501  0.0248  0.8648 -1.3588
 5690TIP3   OH241264   7.246   2.721  13.509 -0.4592  0.5999 -0.5210
 5690TIP3    H141265   7.177   2.778  13.542 -1.1287  0.4518 -1.6121
 5690TIP3    H241266   7.326   2.773  13.519 -1.1372  2.0683 -2.1590
 5691TIP3   OH241267   3.781   2.488  11.204 -0.0099 -0.1902 -0.1111
 5691TIP3    H141268   3.822   2.421  11.259  1.7162  1.7330  1.1046
 5691TIP3    H241269   3.708   2.520  11.257 -0.1906 -0.3661 -0.2493
 5692TIP3   OH241270   6.851   2.038  12.746  0.0600 -0.0724 -0.3683
 5692TIP3    H141271   6.778   2.028  12.684 -0.6702  0.9679  0.2776
 5692TIP3    H241272   6.816   2.097  12.813  0.8414 -1.1613  1.0295
 5693TIP3   OH241273   0.452   3.481  11.311  0.4720 -0.3498  0.2904
 5693TIP3    H141274   0.508   3.553  11.341  0.2764 -0.0948  0.0462
 5693TIP3    H241275   0.511   3.407  11.303  0.8417  0.0058 -0.3046
 5694TIP3   OH241276   3.980   2.051  10.221  0.7103 -0.2020  0.0665
 5694TIP3    H141277   3.910   2.114  10.203  0.0122 -1.2897 -1.1865
 5694TIP3    H241278   4.058   2.105  10.235 -0.3226  1.0321  1.3629
 5695TIP3   OH241279   1.980   6.990  11.796  0.2279  0.1509 -0.0760
 5695TIP3    H141280   2.040   7.056  11.831  0.4590 -0.0313 -0.1188
 5695TIP3    H241281   2.037   6.915  11.777  0.1720  0.3964 -1.2306
 5696TIP3   OH241282   7.183   5.964  12.486 -0.3082  0.3096 -0.1503
 5696TIP3    H141283   7.270   5.923  12.489  0.2930  1.5703  0.4062
 5696TIP3    H241284   7.139   5.921  12.413 -0.0485 -1.9387  0.9171
 5697TIP3   OH241285   5.537   4.547  12.917 -0.2428  0.0706  0.5889
 5697TIP3    H141286   5.608   4.516  12.861 -1.0068 -1.6726  0.5401
 5697TIP3    H241287   5.474   4.475  12.919 -2.0342  1.5607  0.6359
 5698TIP3   OH241288   5.379   4.365  11.651  0.4687  0.8157  1.0501
 5698TIP3    H141289   5.326   4.368  11.731  0.0620  2.8500  0.7549
 5698TIP3    H241290   5.441   4.437  11.661 -0.1516  1.6572 -0.8370
 5699TIP3   OH241291   1.359   2.958  10.441 -0.1741  0.1502  0.0916
 5699TIP3    H141292   1.369   2.864  10.452  1.7414  0.3621  0.4906
 5699TIP3    H241293   1.384   2.975  10.350 -1.5500  0.1700 -0.3012
 5700TIP3   OH241294   2.286   7.436  11.382  0.4469 -0.0206 -0.0554
 5700TIP3    H141295   2.208   7.382  11.398 -1.0888  0.8158 -3.7251
 5700TIP3    H241296   2.329   7.394  11.307  1.8204  1.2414 -0.0119
 5701TIP3   OH241297   6.054   5.777  12.354  0.4710  0.1776 -0.0795
 5701TIP3    H141298   5.986   5.844  12.342 -0.1825 -0.5028 -0.2201
 5701TIP3    H241299   6.099   5.803  12.434 -0.4251  0.2372  0.4151
 5702TIP3   OH241300   6.371   3.155  10.914 -0.4263  0.2559 -0.2478
 5702TIP3    H141301   6.392   3.217  10.984 -1.7215  0.9800 -0.4695
 5702TIP3    H241302   6.416   3.074  10.939  0.6675  1.0434  0.4447
 5703TIP3   OH241303   7.167   0.232  11.217 -0.1932 -0.2036 -0.3731
 5703TIP3    H141304   7.228   0.213  11.289  1.7924  1.7883 -1.4030
 5703TIP3    H241305   7.189   0.169  11.149  1.0766  0.7672 -0.8987
 5704TIP3   OH241306   4.864   6.773  12.454 -0.8353  0.6941 -0.4003
 5704TIP3    H141307   4.773   6.748  12.437 -0.6531 -0.0620 -0.2765
 5704TIP3    H241308   4.861   6.868  12.466 -1.4043  0.8664 -1.7495
 5705TIP3   OH241309   2.186   2.437  10.704  0.1824 -0.5968  0.3708
 5705TIP3    H141310   2.190   2.511  10.644 -0.5332 -0.6393  0.2618
 5705TIP3    H241311   2.265   2.386  10.685 -0.5946 -1.2435 -1.3781
 5706TIP3   OH241312   3.545   3.067  12.273  0.5136  0.4346  0.1674
 5706TIP3    H141313   3.457   3.035  12.252 -0.1318  0.9990  1.8655
 5706TIP3    H241314   3.562   3.133  12.206 -0.5474  0.6401  0.0771
 5707TIP3   OH241315   5.392   7.285  12.398 -0.3509  0.3563  0.2362
 5707TIP3    H141316   5.334   7.251  12.330 -1.2210 -0.6932  1.4533
 5707TIP3    H241317   5.454   7.341  12.351 -1.5251  0.4448 -1.2727
 5708TIP3   OH241318   0.528   2.534  10.683  0.0867  0.0987  0.4294
 5708TIP3    H141319   0.434   2.527  10.668 -0.2030  2.3769  0.8833
 5708TIP3    H241320   0.543   2.626  10.704  2.5038 -0.0815 -0.1375
 5709TIP3   OH241321   5.835   3.514  12.509 -0.0318  0.2452 -0.7276
 5709TIP3    H141322   5.877   3.446  12.456 -0.4348 -0.5446 -0.0675
 5709TIP3    H241323   5.741   3.495  12.502 -0.1289  0.5572 -0.3083
 5710TIP3   OH241324   7.009   6.977  11.049 -0.5389  0.4040 -0.1169
 5710TIP3    H141325   6.936   6.953  11.105 -0.2125 -0.2167  0.0526
 5710TIP3    H241326   7.006   6.915  10.977  0.9967 -0.9675  0.9137
 5711TIP3   OH241327   7.080   1.925  10.800 -0.8276 -0.4021  0.2334
 5711TIP3    H141328   7.134   1.898  10.725 -0.7880 -0.7566  0.3838
 5711TIP3    H241329   7.036   2.005  10.771 -0.5447 -0.3441 -0.0441
 5712TIP3   OH241330   2.997   0.680  10.392  0.7001  0.2617  0.5217
 5712TIP3    H141331   2.948   0.599  10.406 -0.7277  0.8868 -0.6339
 5712TIP3    H241332   3.039   0.668  10.307  0.7248  0.6069  0.4823
 5713TIP3   OH241333   7.459   3.820  13.336  0.4065  0.3818  0.2081
 5713TIP3    H141334   7.413   3.904  13.342  0.2966  0.3158  0.2900
 5713TIP3    H241335   7.534   3.830  13.394 -0.5233 -0.1687  1.5623
 5714TIP3   OH241336   0.948   4.023  10.654  0.1823 -0.0931 -0.4330
 5714TIP3    H141337   1.039   4.008  10.681 -0.5653 -4.6976  0.2879
 5714TIP3    H241338   0.925   4.106  10.694  3.2573 -0.1190  1.7195
 5715TIP3   OH241339   1.885   5.109  11.901  0.1195  0.0259  0.0751
 5715TIP3    H141340   1.981   5.111  11.911  0.2266 -1.3136 -0.4306
 5715TIP3    H241341   1.866   5.179  11.839  0.7556  0.4086  0.3011
 5716TIP3   OH241342   2.714   7.407  11.158 -0.7952  0.4087  0.1895
 5716TIP3    H141343   2.640   7.376  11.211 -2.1626  1.2973 -1.1162
 5716TIP3    H241344   2.694   7.375  11.070  1.0522 -0.4052  0.0217
 5717TIP3   OH241345   2.546   0.345  11.034 -0.0472  0.6319  0.0344
 5717TIP3    H141346   2.588   0.362  11.119  0.2138  0.5515 -0.0757
 5717TIP3    H241347   2.502   0.427  11.012  0.9159  1.0771 -0.3341
 5718TIP3   OH241348   6.126   2.574  10.106 -0.8782  0.2219  0.1513
 5718TIP3    H141349   6.103   2.521  10.182 -0.8309 -0.0526 -0.0234
 5718TIP3    H241350   6.050   2.569  10.049 -1.8489  2.2814  1.1601
 5719TIP3   OH241351   3.081   2.654  11.360  0.6397 -0.4343  0.6103
 5719TIP3    H141352   3.076   2.601  11.440 -0.5850  1.3098  1.7740
 5719TIP3    H241353   3.016   2.615  11.301 -0.4893 -0.0815  1.5732
 5720TIP3   OH241354   5.150   4.393  10.608  0.5683  0.1356 -0.1173
 5720TIP3    H141355   5.093   4.430  10.675  2.3087  1.2656  0.8281
 5720TIP3    H241356   5.104   4.315  10.577 -0.6015 -0.0572  1.9318
 5721TIP3   OH241357   0.038   1.834  10.906 -0.5632  0.0024 -0.0679
 5721TIP3    H141358   0.029   1.862  10.997 -1.4142 -1.8885  0.4693
 5721TIP3    H241359  -0.050   1.809  10.878 -0.0721 -0.9210 -0.8948
 5722TIP3   OH241360   4.923   2.549  10.367  0.1405 -0.1159  0.2839
 5722TIP3    H141361   4.868   2.611  10.414  0.0498 -0.1748  0.2565
 5722TIP3    H241362   4.995   2.602  10.332  0.2162 -0.0730  0.4985
 5723TIP3   OH241363   5.511   2.562  11.106  0.3488  0.7691 -0.4654
 5723TIP3    H141364   5.479   2.653  11.104  0.3488  0.7594 -1.4299
 5723TIP3    H241365   5.434   2.510  11.084  0.4053  0.5490 -0.1413
 5724TIP3   OH241366   5.614   1.898  13.333  0.2152  0.0455 -0.4514
 5724TIP3    H141367   5.631   1.940  13.249  0.8238  0.6762 -0.0325
 5724TIP3    H241368   5.675   1.940  13.393  1.0805 -1.6865 -0.0648
 5725TIP3   OH241369   1.471   5.676  12.135  0.0495  0.3765 -0.2253
 5725TIP3    H141370   1.460   5.597  12.188 -0.2294  0.9272  0.5488
 5725TIP3    H241371   1.565   5.686  12.126  0.0810 -0.3547 -0.8080
 5726TIP3   OH241372   5.187   5.658  11.426  0.3011  0.0418 -0.4789
 5726TIP3    H141373   5.166   5.739  11.472 -1.4750 -0.1871 -0.7948
 5726TIP3    H241374   5.186   5.591  11.495  0.1071  0.0581 -0.4638
 5727TIP3   OH241375   2.495   1.444  10.237 -0.3507 -0.7957  0.0015
 5727TIP3    H141376   2.493   1.531  10.196 -0.0428 -0.0150  1.5949
 5727TIP3    H241377   2.582   1.410  10.216  0.2030  0.0436  0.8581
 5728TIP3   OH241378   5.100   4.676  12.536 -0.6122 -0.0408  0.2564
 5728TIP3    H141379   5.047   4.692  12.613  1.3044  1.0969  1.4312
 5728TIP3    H241380   5.183   4.641  12.570  0.1201  0.0379 -1.3145
 5729TIP3   OH241381   2.563   3.960  11.933 -0.1882 -0.2810  0.6552
 5729TIP3    H141382   2.481   3.990  11.972 -0.5291 -0.0641 -0.2086
 5729TIP3    H241383   2.603   4.039  11.895  0.1954 -0.4633  0.6694
 5730TIP3   OH241384   4.490   5.580  10.700 -0.1171 -0.2797  0.2895
 5730TIP3    H141385   4.440   5.624  10.632  1.0325 -1.0659 -1.1107
 5730TIP3    H241386   4.429   5.574  10.774 -1.0466  1.5513 -0.2592
 5731TIP3   OH241387   6.389   3.054  10.531  0.6834  0.9996 -0.0797
 5731TIP3    H141388   6.398   2.962  10.509  0.3236  0.5549  1.5133
 5731TIP3    H241389   6.313   3.084  10.481 -1.5578 -0.5610  2.1574
 5732TIP3   OH241390   6.275   3.862  11.257  0.1978  0.5205 -0.1536
 5732TIP3    H141391   6.225   3.782  11.273  2.5287 -1.0352 -0.1828
 5732TIP3    H241392   6.263   3.879  11.163 -0.6673  0.4703 -0.0580
 5733TIP3   OH241393   1.331   5.206  13.300 -0.3985 -0.0001 -0.4635
 5733TIP3    H141394   1.335   5.291  13.256  1.0442 -0.0922 -0.5315
 5733TIP3    H241395   1.323   5.142  13.230  0.9729 -0.0776 -0.5791
 5734TIP3   OH241396   7.617   1.627  13.242  0.5044  0.1061  0.5226
 5734TIP3    H141397   7.546   1.564  13.255  0.2793  0.3034  0.2732
 5734TIP3    H241398   7.579   1.711  13.268 -0.4532  0.7817 -2.6346
 5735TIP3   OH241399   6.297   5.576  11.524 -0.1642 -0.0645  0.5506
 5735TIP3    H141400   6.352   5.516  11.575 -0.9842 -0.5101  0.9451
 5735TIP3    H241401   6.353   5.650  11.504  1.5013 -1.7713 -1.6155
 5736TIP3   OH241402   5.919   3.905  11.699 -0.2025 -0.0796  0.8201
 5736TIP3    H141403   5.988   3.887  11.763 -0.2164  1.1364  1.2100
 5736TIP3    H241404   5.896   3.997  11.715 -1.9229 -0.4704  0.7133
 5737TIP3   OH241405   6.665   4.082  10.848  0.3875 -0.0347 -0.2228
 5737TIP3    H141406   6.713   4.120  10.774 -0.6420  1.2477 -0.2546
 5737TIP3    H241407   6.679   4.144  10.919 -0.6087 -0.0353 -0.0227
 5738TIP3   OH241408   3.964   7.309  11.696  0.9577  0.0785 -0.0946
 5738TIP3    H141409   3.989   7.259  11.618 -0.2428  0.1081 -0.5200
 5738TIP3    H241410   3.959   7.399  11.666  1.4521  0.2280  0.2604
 5739TIP3   OH241411   0.909   5.793  12.093  0.3967 -0.1697  0.6987
 5739TIP3    H141412   0.948   5.731  12.031  2.7403  0.2049  1.6825
 5739TIP3    H241413   0.898   5.874  12.044  0.4937 -0.4129  0.2737
 5740TIP3   OH241414   4.582   6.163  11.504 -0.2723 -0.4318  0.9518
 5740TIP3    H141415   4.619   6.238  11.459 -1.7514  0.1853  0.7119
 5740TIP3    H241416   4.531   6.200  11.576 -1.2812 -1.1733  0.6422
 5741TIP3   OH241417   3.597   2.130  11.709 -0.1955 -0.6171 -0.3129
 5741TIP3    H141418   3.563   2.139  11.620  0.1439 -3.0507 -0.7741
 5741TIP3    H241419   3.671   2.069  11.700  1.9388  1.5561  1.1951
 5742TIP3   OH241420   5.052   2.029  10.467 -0.2416 -0.1937 -0.1187
 5742TIP3    H141421   5.066   2.122  10.447  0.5376 -0.2940 -0.0734
 5742TIP3    H241422   5.134   1.987  10.441 -0.6934 -0.9128 -0.4019
 5743TIP3   OH241423   5.033   2.742  18.573  0.2113  0.0494  0.5175
 5743TIP3    H141424   4.954   2.796  18.582 -1.4008 -2.1936  0.9846
 5743TIP3    H241425   5.086   2.787  18.508 -2.3647  0.7028 -1.3122
 5744TIP3   OH241426   1.045   2.269  11.954 -0.3945 -0.3843 -0.0240
 5744TIP3    H141427   1.000   2.304  12.030 -1.3966  0.1895 -0.8601
 5744TIP3    H241428   0.990   2.294  11.879 -0.8662 -3.1915 -0.7388
 5745TIP3   OH241429   0.316   6.324  11.508 -0.1035  0.5183  0.6592
 5745TIP3    H141430   0.225   6.349  11.493 -0.1284  0.4525  0.6980
 5745TIP3    H241431   0.311   6.235  11.542 -0.0001  0.3679  0.2834
 5746TIP3   OH241432   6.415   2.559  13.107  0.2401  0.2649 -0.2801
 5746TIP3    H141433   6.399   2.474  13.066  1.1124  1.4261 -3.3435
 5746TIP3    H241434   6.374   2.622  13.048  3.6254  2.2480 -0.8185
 5747TIP3   OH241435   3.452   7.615  12.884  1.0248 -0.5619 -0.6893
 5747TIP3    H141436   3.519   7.671  12.924  1.3258 -0.8239 -0.8251
 5747TIP3    H241437   3.372   7.636  12.931  1.1675 -0.1204 -0.6392
 5748TIP3   OH241438   3.779   5.825  11.042 -0.0728 -0.2257 -0.1398
 5748TIP3    H141439   3.690   5.805  11.071  0.3936  0.5013  2.0059
 5748TIP3    H241440   3.829   5.836  11.123  1.7250  0.4646 -1.2693
 5749TIP3   OH241441   1.982   6.632  11.605 -0.6769  0.1017 -0.0933
 5749TIP3    H141442   2.048   6.696  11.631 -0.5221 -0.4992  1.0847
 5749TIP3    H241443   2.025   6.580  11.538 -0.7794  1.1640 -0.9988
 5750TIP3   OH241444   1.834   2.856  12.522 -0.4999 -0.0490  0.0840
 5750TIP3    H141445   1.805   2.943  12.548 -0.0392 -0.4594  2.1327
 5750TIP3    H241446   1.921   2.870  12.486  0.5147  0.1480  2.4435
 5751TIP3   OH241447   3.186   6.108  11.157  0.4036 -0.3884  0.5476
 5751TIP3    H141448   3.220   6.195  11.134  1.3067 -0.5091  1.3824
 5751TIP3    H241449   3.260   6.049  11.143  0.0691 -0.8919  0.8819
 5752TIP3   OH241450   3.477   0.900  13.149  0.5165 -0.4206 -1.1130
 5752TIP3    H141451   3.486   0.805  13.140 -0.0335 -0.4129 -1.9688
 5752TIP3    H241452   3.567   0.933  13.148  0.7565 -0.9883  0.1059
 5753TIP3   OH241453   4.582   1.042  12.301  0.5628 -0.0829  0.3446
 5753TIP3    H141454   4.580   0.949  12.323 -1.6364 -0.1954 -0.0245
 5753TIP3    H241455   4.578   1.044  12.205  1.3747  0.4059  0.3111
 5754TIP3   OH241456   4.060   4.785  11.184  0.5263  0.2486  0.3597
 5754TIP3    H141457   4.022   4.768  11.269  1.0689  0.7959  0.7209
 5754TIP3    H241458   4.004   4.739  11.122  0.6385 -0.8943  1.0874
 5755TIP3   OH241459   5.237   3.152  10.989 -0.0337 -0.3457 -0.3148
 5755TIP3    H141460   5.163   3.135  11.048  1.4167 -1.0833  1.3729
 5755TIP3    H241461   5.288   3.219  11.033  1.4058 -1.3363 -0.4120
 5756TIP3   OH241462   4.426   6.063  11.738 -1.2151 -0.5032  0.2887
 5756TIP3    H141463   4.440   6.002  11.810 -0.7439 -1.3784 -0.5211
 5756TIP3    H241464   4.378   6.012  11.673 -0.2020 -0.2412 -0.6966
 5757TIP3   OH241465   2.522   4.716  12.269 -0.6216  0.0320  0.6100
 5757TIP3    H141466   2.607   4.675  12.282 -0.5682 -0.0368  0.0656
 5757TIP3    H241467   2.487   4.674  12.190 -1.5055 -0.5165  1.2688
 5758TIP3   OH241468   3.418   3.748  10.650  0.0816  0.4530 -0.4474
 5758TIP3    H141469   3.356   3.821  10.645 -1.0752 -0.4599 -0.0288
 5758TIP3    H241470   3.439   3.742  10.743 -0.4999 -0.2601 -0.3502
 5759TIP3   OH241471   6.731   5.861  12.205  0.4000  0.2678 -0.3756
 5759TIP3    H141472   6.784   5.781  12.201 -0.7918 -0.5208 -0.8587
 5759TIP3    H241473   6.725   5.890  12.114 -1.2424 -0.5141 -0.5520
 5760TIP3   OH241474   6.913   2.603  11.526  0.0164  0.1881  0.2647
 5760TIP3    H141475   6.968   2.639  11.457  2.6893 -1.6539  1.2482
 5760TIP3    H241476   6.956   2.630  11.607 -2.0361  0.8090  1.2151
 5761TIP3   OH241477   3.258   6.361  11.452 -0.2133 -0.4717 -0.2985
 5761TIP3    H141478   3.167   6.334  11.436 -0.3902 -0.3602  0.5101
 5761TIP3    H241479   3.252   6.453  11.475 -0.2027 -1.0434  2.3135
 5762TIP3   OH241480   5.498   1.822  10.493  0.3232  0.9455 -0.1799
 5762TIP3    H141481   5.499   1.780  10.579  0.7753  0.0488 -0.6134
 5762TIP3    H241482   5.569   1.780  10.444  1.7900  3.2034 -0.1813
 5763TIP3   OH241483   7.199   1.093  11.992  0.1929 -0.4860  0.3995
 5763TIP3    H141484   7.139   1.031  12.033  0.7561 -0.8687  0.6722
 5763TIP3    H241485   7.228   1.150  12.064  0.6872 -0.7493  0.4170
 5764TIP3   OH241486   4.109   6.094  11.946 -0.6580 -0.2903  0.3474
 5764TIP3    H141487   4.056   6.083  11.867 -0.5468 -0.0741  0.2421
 5764TIP3    H241488   4.142   6.006  11.964 -1.2278 -0.4660  0.5400
 5765TIP3   OH241489   1.488   1.113  12.227  0.1252  0.2104  0.2632
 5765TIP3    H141490   1.534   1.034  12.255  0.1122  0.1331  0.0633
 5765TIP3    H241491   1.478   1.104  12.133  0.0924  0.4346  0.2434
 5766TIP3   OH241492   6.438   5.297  11.367  0.3962 -0.4938  0.1177
 5766TIP3    H141493   6.410   5.340  11.286  0.2070 -0.6080  0.1200
 5766TIP3    H241494   6.481   5.217  11.339  2.9490  0.8225 -0.0152
 5767TIP3   OH241495   3.524   4.412  10.878  0.3779  0.4021  0.0686
 5767TIP3    H141496   3.513   4.494  10.831 -0.8732  0.3656  0.2586
 5767TIP3    H241497   3.479   4.425  10.961 -1.3969 -1.0114 -0.5918
 5768TIP3   OH241498   5.455   7.669  13.316  0.6987  0.0679 -0.1036
 5768TIP3    H141499   5.520   7.734  13.344  0.3556  1.4905 -2.2892
 5768TIP3    H241500   5.378   7.721  13.292 -1.1171 -1.5376  1.8948
 5769TIP3   OH241501   0.129   1.514  11.384  0.4801 -0.1986  0.0947
 5769TIP3    H141502   0.197   1.572  11.418  0.3885  0.4951 -0.8805
 5769TIP3    H241503   0.067   1.505  11.457  0.8770  0.3303  0.5037
 5770TIP3   OH241504   2.090   6.047  12.287 -0.1651  0.5433  0.0280
 5770TIP3    H141505   2.112   6.073  12.198  0.9562 -0.7598 -0.1115
 5770TIP3    H241506   2.080   5.952  12.283 -0.4926  0.5111  1.2075
 5771TIP3   OH241507   0.757   7.517  12.098  0.5597  0.4664  0.6648
 5771TIP3    H141508   0.732   7.450  12.162 -0.0883 -0.3682 -0.4281
 5771TIP3    H241509   0.829   7.478  12.049 -0.4768  0.1148 -0.6455
 5772TIP3   OH241510   1.041   1.600  11.860 -0.4826  0.7360  0.3584
 5772TIP3    H141511   1.000   1.598  11.947  0.8247  2.0924  1.0605
 5772TIP3    H241512   0.971   1.628  11.801 -1.6327 -1.0685  0.7925
 5773TIP3   OH241513   0.038   5.196  12.061  0.1343 -0.4810 -0.0645
 5773TIP3    H141514   0.004   5.184  11.972  0.3000  0.7088 -0.3142
 5773TIP3    H241515   0.133   5.186  12.051  1.0160  5.3469 -1.3333
 5774TIP3   OH241516   5.220   1.394  10.858 -0.6280  0.3129  0.3546
 5774TIP3    H141517   5.241   1.406  10.951 -2.7795 -0.7353  1.0391
 5774TIP3    H241518   5.127   1.415  10.851 -0.8041 -0.8201 -1.3214
 5775TIP3   OH241519   2.111   7.236  11.478  0.2685 -0.9418  0.4195
 5775TIP3    H141520   2.188   7.184  11.503  0.5566  0.2388  2.1791
 5775TIP3    H241521   2.055   7.233  11.556 -1.5681 -1.8670 -0.8688
 5776TIP3   OH241522   5.229   7.203  10.897 -0.4527 -0.2205  0.2809
 5776TIP3    H141523   5.263   7.149  10.969 -0.6802 -0.3943  0.2570
 5776TIP3    H241524   5.148   7.240  10.932 -1.0735 -1.0763 -0.2258
 5777TIP3   OH241525   2.709   3.717  10.296  0.0342  0.3016  0.4960
 5777TIP3    H141526   2.673   3.738  10.210 -1.1908 -0.9238  0.6687
 5777TIP3    H241527   2.674   3.630  10.316  1.8041 -0.2550  1.4294
 5778TIP3   OH241528   4.520   6.741  10.926  0.7876  0.1280  0.6071
 5778TIP3    H141529   4.448   6.804  10.934 -0.0670 -0.6599 -0.5345
 5778TIP3    H241530   4.589   6.775  10.983  0.4326  2.1979 -0.1276
 5779TIP3   OH241531   1.631   0.134  11.212  0.0328 -0.2871 -0.1085
 5779TIP3    H141532   1.598   0.214  11.171 -0.5077 -1.0401 -1.1908
 5779TIP3    H241533   1.700   0.104  11.154  0.2633 -0.5814  0.3172
 5780TIP3   OH241534   5.336   5.242  11.751  0.1986  0.1741 -0.6031
 5780TIP3    H141535   5.284   5.186  11.809 -1.8031  1.4205 -1.1321
 5780TIP3    H241536   5.419   5.194  11.740 -0.5060 -1.4902  0.8938
 5781TIP3   OH241537   6.566   7.130  11.592 -0.0119  0.1007  0.2247
 5781TIP3    H141538   6.500   7.190  11.560  0.9643  2.0830  1.6980
 5781TIP3    H241539   6.649   7.174  11.575  0.7755 -1.0197  0.9915
 5782TIP3   OH241540   2.093   4.899  11.610 -0.4058  0.1503 -0.1087
 5782TIP3    H141541   2.051   4.953  11.543 -1.4807  2.4570  2.2277
 5782TIP3    H241542   2.159   4.956  11.648  0.3397 -1.1768  0.6462
 5783TIP3   OH241543   4.701   4.707  12.868 -0.1381  0.5273 -0.1268
 5783TIP3    H141544   4.685   4.765  12.943  0.4967 -0.0677  0.4818
 5783TIP3    H241545   4.647   4.743  12.798 -1.6076  0.4633  0.9236
 5784TIP3   OH241546   0.651   3.277  11.345  0.2920 -0.4959  0.2382
 5784TIP3    H141547   0.655   3.227  11.264  0.4901 -1.4606  0.8360
 5784TIP3    H241548   0.578   3.240  11.393 -0.5726  0.8403  0.0294
 5785TIP3   OH241549   4.294   1.339  12.248  0.2032 -0.0017 -0.2606
 5785TIP3    H141550   4.267   1.248  12.264  1.8091 -1.0955 -3.0707
 5785TIP3    H241551   4.313   1.374  12.336 -2.2876 -1.6890  1.0743
 5786TIP3   OH241552   1.934   3.509  12.218  0.0705 -0.2746  0.0875
 5786TIP3    H141553   1.928   3.574  12.148  1.0881  0.1297  0.3542
 5786TIP3    H241554   1.954   3.427  12.174 -0.2591 -0.2185 -0.1703
 5787TIP3   OH241555   6.737   1.098  11.216 -0.2999  0.0242  0.4839
 5787TIP3    H141556   6.681   1.112  11.140  0.5082 -1.9201 -0.5426
 5787TIP3    H241557   6.809   1.160  11.205 -0.3570 -0.0224 -0.1489
 5788TIP3   OH241558   3.291   5.651  12.116  0.0773 -0.2651 -0.0358
 5788TIP3    H141559   3.297   5.569  12.068 -0.6882 -1.2319  1.4488
 5788TIP3    H241560   3.270   5.625  12.206  1.4919  1.4619  0.8611
 5789TIP3   OH241561   7.211   4.339  10.743 -0.0099 -0.0688 -0.4214
 5789TIP3    H141562   7.162   4.356  10.823  0.8947  1.1496 -0.1096
 5789TIP3    H241563   7.281   4.405  10.742 -0.0021 -0.0567 -2.2127
 5790TIP3   OH241564   2.255   0.421  10.749 -0.4469 -0.1368 -0.6648
 5790TIP3    H141565   2.186   0.379  10.697  0.8050 -1.8977 -1.0078
 5790TIP3    H241566   2.245   0.383  10.836  0.9173 -1.5430 -1.0626
 5791TIP3   OH241567   6.166   4.734  10.730 -0.0310  0.6802  0.1916
 5791TIP3    H141568   6.217   4.655  10.715  0.6880  1.2581 -0.4600
 5791TIP3    H241569   6.145   4.732  10.823 -2.0427 -1.4688 -0.1971
 5792TIP3   OH241570   4.857   2.380  11.399  0.2558  0.7653 -0.1712
 5792TIP3    H141571   4.936   2.434  11.405 -0.6313  2.0126  0.5384
 5792TIP3    H241572   4.784   2.442  11.402 -0.8194 -0.4907  1.4731
 5793TIP3   OH241573   5.648   3.244  11.234 -0.5313 -0.1110  0.1923
 5793TIP3    H141574   5.698   3.264  11.154  0.3214  0.4248  0.8477
 5793TIP3    H241575   5.559   3.273  11.214  0.2724  2.7662  0.4654
 5794TIP3   OH241576   1.230   3.599  11.538  0.5706 -0.7449  0.7382
 5794TIP3    H141577   1.143   3.572  11.569  0.5155  1.8698  3.2723
 5794TIP3    H241578   1.213   3.649  11.458 -0.1305 -1.2190  0.5866
 5795TIP3   OH241579   6.367   4.577  11.092 -0.2247 -0.2176  0.0506
 5795TIP3    H141580   6.406   4.493  11.068 -0.9147 -0.2849 -0.9008
 5795TIP3    H241581   6.414   4.642  11.039  0.1093 -0.0373  0.5657
 5796TIP3   OH241582   4.049   7.337  13.118 -0.2241  0.4501  0.0834
 5796TIP3    H141583   3.964   7.297  13.099 -0.2069  0.0350  0.8293
 5796TIP3    H241584   4.029   7.430  13.131 -0.6673  0.2535  0.8550
 5797TIP3   OH241585   4.821   3.504  12.776  0.2882  0.3136  0.1889
 5797TIP3    H141586   4.772   3.546  12.705  0.5860 -0.1732 -0.3189
 5797TIP3    H241587   4.822   3.569  12.846 -2.4253 -0.2264  0.8448
 5798TIP3   OH241588   6.669   0.299  12.214  1.1080  0.2002  0.2998
 5798TIP3    H141589   6.580   0.311  12.179 -0.4184 -3.3540  2.3943
 5798TIP3    H241590   6.668   0.347  12.297  0.5827 -0.9762  0.9992
 5799TIP3   OH241591   1.490   6.770  13.289  0.0465 -0.1374  0.0596
 5799TIP3    H141592   1.485   6.866  13.285  0.7937 -0.0284  1.2159
 5799TIP3    H241593   1.560   6.748  13.228  1.2611  0.2430  1.2715
 5800TIP3   OH241594   6.557   6.947  11.077  0.3242 -0.4749 -0.2989
 5800TIP3    H141595   6.644   6.923  11.110 -0.4059 -1.3244  1.0973
 5800TIP3    H241596   6.524   6.866  11.037  0.0559 -0.2203 -0.5977
 5801TIP3   OH241597   6.076   1.221  11.990  0.4143 -0.4761  0.1443
 5801TIP3    H141598   6.062   1.271  12.071  0.5448 -0.2259  0.0141
 5801TIP3    H241599   6.162   1.249  11.959  0.4117 -0.6536 -0.0228
 5802TIP3   OH241600   2.151   7.484  12.260 -0.5247  0.9059 -0.0697
 5802TIP3    H141601   2.118   7.406  12.306 -0.8885  0.8611 -0.3960
 5802TIP3    H241602   2.154   7.552  12.327 -0.8981  0.7998  0.0590
 5803TIP3   OH241603   4.166   1.239  10.556 -0.1362 -0.0194 -0.1364
 5803TIP3    H141604   4.181   1.310  10.618 -1.2462  0.6140 -0.5735
 5803TIP3    H241605   4.215   1.265  10.478  0.0762 -0.1196 -0.0406
 5804TIP3   OH241606   3.619   6.694  10.610 -0.1730 -0.3975  0.0071
 5804TIP3    H141607   3.642   6.621  10.553 -0.4321  0.4395 -1.2041
 5804TIP3    H241608   3.689   6.697  10.675  0.6359 -0.7880 -0.8263
 5805TIP3   OH241609   7.642   5.566  11.682  0.5304  0.1842  0.0363
 5805TIP3    H141610   7.615   5.587  11.592  1.9762 -1.2687 -0.7861
 5805TIP3    H241611   7.733   5.593  11.686  0.6834 -0.4419  0.8346
 5806TIP3   OH241612   2.315   0.663  10.506 -0.3683  0.4147  0.1771
 5806TIP3    H141613   2.252   0.605  10.464 -0.1045 -0.2228  0.6440
 5806TIP3    H241614   2.263   0.714  10.569 -0.2767 -0.9045  1.3831
 5807TIP3   OH241615   7.130   6.200  13.091 -0.0066 -0.6558 -0.2493
 5807TIP3    H141616   7.119   6.110  13.123 -1.3940 -0.4506 -0.0809
 5807TIP3    H241617   7.208   6.196  13.036  2.1075 -1.1728  2.5595
 5808TIP3   OH241618   0.178   3.071  12.895 -0.3570  0.4030  0.0260
 5808TIP3    H141619   0.121   3.036  12.826 -0.4637 -0.2898  0.4602
 5808TIP3    H241620   0.193   2.997  12.954  1.3689  0.4366 -0.3188
 5809TIP3   OH241621   6.277   6.443  12.595  0.1024 -0.1730  0.0773
 5809TIP3    H141622   6.309   6.528  12.563 -0.5503  0.3751  0.8428
 5809TIP3    H241623   6.286   6.449  12.690  1.7606 -1.6695  0.0640
 5810TIP3   OH241624   3.595   2.031  10.614 -0.4322 -0.3666 -0.2633
 5810TIP3    H141625   3.621   1.992  10.698 -0.4326  1.8150  0.8222
 5810TIP3    H241626   3.678   2.042  10.567 -0.0854  0.6918  0.5355
 5811TIP3   OH241627   6.772   6.681  11.752 -0.0425 -0.5600 -0.1226
 5811TIP3    H141628   6.705   6.749  11.743  0.6167  0.1538  0.2125
 5811TIP3    H241629   6.733   6.617  11.811 -1.1989 -1.1696 -1.4958
 5812TIP3   OH241630   6.260   0.496  11.796  0.0548 -0.1634  0.0866
 5812TIP3    H141631   6.249   0.591  11.789  1.7458  0.4089  3.2805
 5812TIP3    H241632   6.314   0.473  11.721  0.1358  1.5188 -0.4171
 5813TIP3   OH241633   0.132   0.804  10.729 -0.3936 -0.2094 -0.3648
 5813TIP3    H141634   0.177   0.766  10.804  0.9940 -0.7202 -1.3954
 5813TIP3    H241635   0.078   0.874  10.765 -1.4312 -1.8060  1.3394
 5814TIP3   OH241636   2.466   3.908  12.493  0.3811  0.0048 -0.2894
 5814TIP3    H141637   2.516   3.850  12.550  1.4856  1.1109 -0.0899
 5814TIP3    H241638   2.445   3.854  12.416 -0.5603 -1.3039  0.8417
 5815TIP3   OH241639   0.082   7.128  11.435  0.2808  0.2734  0.1902
 5815TIP3    H141640   0.015   7.111  11.502  0.0729  1.4002  0.2894
 5815TIP3    H241641   0.032   7.156  11.358  0.4296 -2.2051 -0.8952
 5816TIP3   OH241642   5.452   3.613  10.384 -0.4175 -0.1522 -0.2834
 5816TIP3    H141643   5.454   3.536  10.327  0.2111 -0.7976  0.5815
 5816TIP3    H241644   5.527   3.665  10.355 -2.4692  1.6469 -2.8217
 5817TIP3   OH241645   1.619   4.891  12.280  0.1241 -0.0647 -0.5284
 5817TIP3    H141646   1.573   4.814  12.312  1.3040 -0.5952 -0.0361
 5817TIP3    H241647   1.562   4.927  12.212 -1.1574 -0.4746  0.2895
 5818TIP3   OH241648   5.624   2.683  12.199 -0.1060  0.4612  0.5041
 5818TIP3    H141649   5.657   2.652  12.283 -0.7608  1.8319  1.2924
 5818TIP3    H241650   5.549   2.738  12.221  2.0012  4.1043 -0.6288
 5819TIP3   OH241651   6.599   0.387  11.582  0.3885  0.4083  0.0717
 5819TIP3    H141652   6.586   0.310  11.528 -0.4570  1.2869 -1.0356
 5819TIP3    H241653   6.525   0.444  11.560  1.5702  1.9907  0.0312
 5820TIP3   OH241654   2.487   4.508  11.239 -0.1048 -0.0009 -0.0367
 5820TIP3    H141655   2.398   4.495  11.205 -0.4490 -0.3868  0.9753
 5820TIP3    H241656   2.524   4.420  11.243 -0.5380 -0.1473  1.7708
 5821TIP3   OH241657   6.563   2.285  11.660 -0.8027 -0.2632  0.4872
 5821TIP3    H141658   6.523   2.313  11.578  0.3677 -1.0244 -0.3806
 5821TIP3    H241659   6.569   2.364  11.713 -0.9762  0.3793 -0.4309
 5822TIP3   OH241660   6.151   5.160  13.199  0.5344 -0.4250  1.0651
 5822TIP3    H141661   6.244   5.179  13.211 -0.0748  2.3433  2.2236
 5822TIP3    H241662   6.106   5.240  13.228 -2.1106 -0.5690 -1.9908
 5823TIP3   OH241663   0.044   3.640  10.323  0.2957 -0.2298  0.0548
 5823TIP3    H141664  -0.016   3.650  10.249  0.7057 -0.1710 -0.2745
 5823TIP3    H241665   0.033   3.721  10.373 -1.1022 -0.9116  0.9057
 5824TIP3   OH241666   4.969   5.262  13.263 -0.4127  0.0859 -0.1379
 5824TIP3    H141667   4.917   5.201  13.316  1.3282 -0.3562  1.1480
 5824TIP3    H241668   4.913   5.281  13.188 -1.0835 -3.0559 -0.5912
 5825TIP3   OH241669   5.453   5.957  11.485 -0.3279 -0.0177 -0.3709
 5825TIP3    H141670   5.468   5.863  11.477  0.9189  0.0961  0.3426
 5825TIP3    H241671   5.455   5.974  11.579  0.2444  0.8345 -0.5205
 5826TIP3   OH241672   4.587   2.735  11.974 -0.0384  0.3282 -0.1010
 5826TIP3    H141673   4.647   2.677  12.021 -0.4241 -0.4810 -0.5791
 5826TIP3    H241674   4.553   2.795  12.040  0.2211 -0.1211  0.4388
 5827TIP3   OH241675   7.640   5.064  10.852  0.2056 -0.3957 -0.2023
 5827TIP3    H141676   7.613   5.137  10.797 -1.2101 -0.1344  0.7953
 5827TIP3    H241677   7.645   4.989  10.792  0.8420  0.3233 -1.0716
 5828TIP3   OH241678   7.458   5.714  12.523  0.1267  0.5977  0.5194
 5828TIP3    H141679   7.432   5.805  12.508 -1.7078  0.5916  2.9868
 5828TIP3    H241680   7.547   5.720  12.558  1.5428  1.0556 -2.7743
 5829TIP3   OH241681   1.866   1.479  11.096 -0.4830 -0.0081  0.0591
 5829TIP3    H141682   1.906   1.498  11.010  0.5394 -2.7491 -0.1950
 5829TIP3    H241683   1.774   1.499  11.084 -0.7761 -2.1886 -2.4462
 5830TIP3   OH241684   1.917   6.578  11.200  0.3811  0.4231  0.1099
 5830TIP3    H141685   1.877   6.597  11.285  1.7829  0.8270  0.7053
 5830TIP3    H241686   1.856   6.614  11.136 -1.1835 -0.7470  0.8738
 5831TIP3   OH241687   5.919   2.984  11.095  0.1009  0.3706 -0.3357
 5831TIP3    H141688   5.976   3.053  11.129  0.1869  0.0767  0.1318
 5831TIP3    H241689   5.850   2.975  11.161  1.1729 -1.3476  0.6377
 5832TIP3   OH241690   1.287   5.939  11.272 -0.3167 -0.7867  0.1623
 5832TIP3    H141691   1.371   5.898  11.289  1.4882  2.6862  0.4566
 5832TIP3    H241692   1.235   5.920  11.350  1.7261  0.4076  1.9279
 5833TIP3   OH241693   2.381   0.434  13.627  0.4568  0.0788 -0.3224
 5833TIP3    H141694   2.288   0.424  13.607  0.8615 -2.4393 -1.2777
 5833TIP3    H241695   2.408   0.513  13.580 -0.3663 -1.3393 -3.3718
 5834TIP3   OH241696   5.970   5.791  11.406 -0.0570 -0.5678  0.1819
 5834TIP3    H141697   5.945   5.731  11.335  0.1811 -1.7832  1.0818
 5834TIP3    H241698   5.936   5.749  11.485  4.0735 -2.0568  1.4464
 5835TIP3   OH241699   5.692   5.344  11.562 -0.7042 -0.0871  0.2170
 5835TIP3    H141700   5.612   5.319  11.608  0.5948 -0.8166  2.2228
 5835TIP3    H241701   5.763   5.323  11.623  0.9601  1.7801 -0.9341
 5836TIP3   OH241702   6.888   4.112  11.587  0.3565 -0.4646  0.4476
 5836TIP3    H141703   6.863   4.074  11.503  1.4696 -0.4950  0.1080
 5836TIP3    H241704   6.881   4.207  11.574  0.9106 -0.4546  0.1803
 5837TIP3   OH241705   7.649   1.246  11.815  0.0964 -0.6798 -0.8008
 5837TIP3    H141706   7.653   1.276  11.906 -0.8623 -1.0606 -0.6255
 5837TIP3    H241707   7.571   1.288  11.780 -0.6358 -2.0790 -0.8834
 5838TIP3   OH241708   0.341   5.606  12.523  0.0573 -0.1248 -0.0878
 5838TIP3    H141709   0.321   5.623  12.431 -2.4207  0.9543  0.5757
 5838TIP3    H241710   0.398   5.679  12.548  0.9940 -0.5873 -0.8088
 5839TIP3   OH241711   7.441   4.054  10.544  0.1811  0.1637 -0.1945
 5839TIP3    H141712   7.401   4.138  10.522 -0.9714 -0.0070  1.1104
 5839TIP3    H241713   7.449   4.055  10.639  0.0977 -1.2190 -0.1458
 5840TIP3   OH241714   5.485   3.327  10.465  0.1149  0.0617  0.3001
 5840TIP3    H141715   5.424   3.349  10.535 -1.3323  1.4284 -1.2639
 5840TIP3    H241716   5.557   3.282  10.508 -0.5835  1.0492  2.6743
 5841TIP3   OH241717   4.995   3.611  12.552 -0.5408  0.4584  0.1892
 5841TIP3    H141718   4.909   3.599  12.511 -0.2762  0.4299 -0.3666
 5841TIP3    H241719   4.980   3.592  12.644 -1.2434  0.9500  0.1859
 5842TIP3   OH241720   0.708   5.466  10.852 -0.2792 -0.3501  0.0430
 5842TIP3    H141721   0.678   5.469  10.943  0.9285 -0.6666  0.4694
 5842TIP3    H241722   0.795   5.505  10.854  0.4378 -1.8422 -0.6739
 5843TIP3   OH241723   6.345   5.387  11.849  0.0695 -0.2318  0.3843
 5843TIP3    H141724   6.279   5.325  11.818 -0.9493  0.4715  1.0911
 5843TIP3    H241725   6.428   5.342  11.835 -0.6154 -1.5558  0.4055
 5844TIP3   OH241726   1.099   2.517  10.665 -0.8454 -0.2197 -0.1817
 5844TIP3    H141727   1.051   2.597  10.646  1.3826  1.1613 -0.3228
 5844TIP3    H241728   1.130   2.486  10.580 -0.4559 -0.3860  0.0129
 5845TIP3   OH241729   6.256   0.644  12.133 -0.2508  0.1093 -0.3303
 5845TIP3    H141730   6.178   0.672  12.181 -0.6433  0.3797 -1.1048
 5845TIP3    H241731   6.283   0.721  12.083  0.7350  0.1294  0.2050
 5846TIP3   OH241732   1.551   2.316  11.144 -0.1812 -0.2394 -0.2187
 5846TIP3    H141733   1.581   2.231  11.112 -1.2854 -0.2934 -1.1929
 5846TIP3    H241734   1.482   2.295  11.208 -2.1390 -0.1329 -2.1630
 5847TIP3   OH241735   1.708   4.351  12.420 -0.0038 -0.4503  0.1668
 5847TIP3    H141736   1.698   4.422  12.484  2.3499  0.9367 -0.8405
 5847TIP3    H241737   1.626   4.350  12.371 -1.0379 -0.1382  1.8370
 5848TIP3   OH241738   0.813   4.112  11.829 -0.0253 -0.5678  0.1244
 5848TIP3    H141739   0.902   4.145  11.841 -0.4293  0.2622  0.9538
 5848TIP3    H241740   0.763   4.150  11.902 -1.0523 -1.0447 -0.3099
 5849TIP3   OH241741   7.435   4.079  13.185  0.0609  0.4688  0.2293
 5849TIP3    H141742   7.376   4.068  13.111  0.4519 -0.9445  0.0879
 5849TIP3    H241743   7.508   4.130  13.151  1.0713 -1.6006 -0.9009
 5850TIP3   OH241744   5.736   5.447  12.333  0.1546  0.2739  0.4284
 5850TIP3    H141745   5.643   5.460  12.318  0.0807  1.2059  1.4663
 5850TIP3    H241746   5.767   5.533  12.362  1.0624 -0.3281  1.3277
 5851TIP3   OH241747   5.914   0.986  12.304  0.3901 -0.5518 -0.5553
 5851TIP3    H141748   5.997   1.012  12.343  0.6017  0.0093 -1.3683
 5851TIP3    H241749   5.874   0.928  12.369  0.8703  0.1309  0.3623
 5852TIP3   OH241750   0.341   5.153  12.063  0.3772 -0.2301  0.0500
 5852TIP3    H141751   0.416   5.165  12.004  1.1818  2.4204  1.4726
 5852TIP3    H241752   0.352   5.219  12.131 -2.1346 -1.1800  1.5389
 5853TIP3   OH241753   5.356   6.430  10.866  0.4843  0.1595 -0.7314
 5853TIP3    H141754   5.399   6.391  10.790 -0.5154 -1.6462 -0.4194
 5853TIP3    H241755   5.293   6.364  10.894  2.2398 -0.1860  2.9551
 5854TIP3   OH241756   4.374   3.383  11.945  0.2067  0.0318 -0.1416
 5854TIP3    H141757   4.376   3.317  12.014  0.2696  0.1656 -0.0152
 5854TIP3    H241758   4.291   3.429  11.957  1.7768  2.6164  2.2653
 5855TIP3   OH241759   2.710   0.955  10.929  0.1102  0.1456  0.6378
 5855TIP3    H141760   2.671   1.024  10.875 -1.0299 -0.5519  0.5516
 5855TIP3    H241761   2.669   0.874  10.898  1.7658 -0.6497  0.4248
 5856TIP3   OH241762   5.949   4.472  12.061  0.3182 -0.0452  0.0146
 5856TIP3    H141763   5.943   4.448  11.969 -0.5221 -1.4737  0.4102
 5856TIP3    H241764   5.862   4.456  12.096  0.9581 -0.7891  1.3445
 5857TIP3   OH241765   2.087   0.989  12.088  0.3737 -0.1066  0.3171
 5857TIP3    H141766   2.160   1.039  12.052  0.0687 -0.1933 -0.4272
 5857TIP3    H241767   2.021   1.055  12.110  0.3855 -0.0960  0.3210
 5858TIP3   OH241768   3.349   7.266  12.915 -0.5937 -0.0750  0.1205
 5858TIP3    H141769   3.295   7.331  12.960 -0.5510 -0.3693  0.6046
 5858TIP3    H241770   3.423   7.251  12.975  0.4209  0.8617 -0.8417
 5859TIP3   OH241771   0.178   3.064  10.769 -0.3301 -0.0678 -0.0259
 5859TIP3    H141772   0.193   3.108  10.853 -1.0715 -0.6289  0.4102
 5859TIP3    H241773   0.083   3.061  10.760 -0.2614 -0.2477 -0.7661
 5860TIP3   OH241774   6.460   1.455  11.537 -0.0631  0.1545  0.3139
 5860TIP3    H141775   6.500   1.542  11.544 -1.1014  0.6778  0.0384
 5860TIP3    H241776   6.451   1.439  11.443  0.2575 -0.3200  0.3617
 5861TIP3   OH241777   5.768   6.040  11.726 -0.2167  0.2627  0.1725
 5861TIP3    H141778   5.686   5.991  11.729 -0.0115 -0.2116 -1.0013
 5861TIP3    H241779   5.744   6.127  11.694 -0.8438  1.6501  3.9418
 5862TIP3   OH241780   0.717   6.113  10.969 -0.1071 -0.2272 -0.4823
 5862TIP3    H141781   0.704   6.179  11.038 -0.3430 -0.1105 -0.6356
 5862TIP3    H241782   0.740   6.164  10.891 -0.7113 -0.2919 -0.7069
 5863TIP3   OH241783   1.991   2.061  11.084 -0.8164  0.2373 -0.1096
 5863TIP3    H141784   2.057   2.113  11.129 -1.0487 -0.8818  1.6213
 5863TIP3    H241785   1.951   2.122  11.022  0.0519  1.6407  0.6540
 5864TIP3   OH241786   6.822   6.324  11.971 -0.2329 -0.0937 -0.0920
 5864TIP3    H141787   6.841   6.342  11.879  0.4826  1.7812  0.3781
 5864TIP3    H241788   6.901   6.283  12.005 -0.4189 -0.5922 -0.2554
 5865TIP3   OH241789   4.339   3.164  12.112 -0.5275 -0.1055 -0.9488
 5865TIP3    H141790   4.363   3.079  12.150  1.0799  0.7406  0.0729
 5865TIP3    H241791   4.279   3.143  12.041 -0.0191 -2.1116 -0.8353
 5866TIP3   OH241792   7.083   1.011  11.360  0.0399  0.1609 -0.1633
 5866TIP3    H141793   7.034   1.087  11.393 -0.8636 -0.2052 -0.6214
 5866TIP3    H241794   7.110   0.964  11.439 -0.5019  0.2804  0.0977
 5867TIP3   OH241795   3.486   0.502  12.380 -0.3248  0.2515  0.0266
 5867TIP3    H141796   3.492   0.497  12.476 -2.4430 -0.8953  0.1554
 5867TIP3    H241797   3.453   0.591  12.363  1.2607  0.9139  0.2379
 5868TIP3   OH241798   5.052   2.859  11.807 -0.2346 -0.2434 -0.4324
 5868TIP3    H141799   5.090   2.880  11.722  0.6836  0.3015  0.0984
 5868TIP3    H241800   4.976   2.805  11.786 -0.4628  0.5012 -1.6374
 5869TIP3   OH241801   1.033   5.483  11.331 -0.1808  0.1386 -0.6541
 5869TIP3    H141802   0.969   5.452  11.267 -2.3833  1.6849  0.6516
 5869TIP3    H241803   1.054   5.572  11.303 -2.0757  1.2982  1.2433
 5870TIP3   OH241804   0.188   1.484  13.290 -0.1679 -0.3355  0.2380
 5870TIP3    H141805   0.106   1.533  13.299  0.2469  0.0262  2.9672
 5870TIP3    H241806   0.229   1.519  13.211 -0.6749  2.5708  1.1421
 5871TIP3   OH241807   7.298   0.157  12.594 -1.0702  0.2827  0.9067
 5871TIP3    H141808   7.250   0.138  12.513 -0.9662  0.8495  0.7053
 5871TIP3    H241809   7.382   0.192  12.565 -1.1790  0.8450  1.2579
 5872TIP3   OH241810   4.986   5.977  12.305 -0.3283 -0.2668  0.1924
 5872TIP3    H141811   5.037   5.974  12.386  1.1253 -0.9480 -0.7282
 5872TIP3    H241812   4.961   6.069  12.297  2.0373  0.4069 -0.0918
 5873TIP3   OH241813   1.546   4.628  12.316  0.2025 -0.0122 -0.2337
 5873TIP3    H141814   1.482   4.606  12.383  1.7858 -3.3333  0.4095
 5873TIP3    H241815   1.510   4.590  12.236  0.3719  0.0372 -0.3338
 5874TIP3   OH241816   2.800   7.094  12.104  0.1510 -0.4998 -0.3274
 5874TIP3    H141817   2.708   7.115  12.122 -0.0734 -1.7357  0.1365
 5874TIP3    H241818   2.845   7.178  12.104 -0.8199  0.0404  0.4124
 5875TIP3   OH241819   2.252   2.609  10.498 -0.5616 -0.3481  0.2518
 5875TIP3    H141820   2.266   2.695  10.461  1.1218  0.0627  1.7220
 5875TIP3    H241821   2.338   2.579  10.526 -0.7147 -3.3970 -1.9503
 5876TIP3   OH241822   0.908   1.636  12.088  0.6110  1.0032  0.6625
 5876TIP3    H141823   0.861   1.719  12.093 -0.8414  0.1716  1.4056
 5876TIP3    H241824   0.940   1.622  12.177  0.8677  0.7718  0.5345
 5877TIP3   OH241825   7.429   2.821  12.561  0.1844  0.4414 -0.0585
 5877TIP3    H141826   7.404   2.849  12.649  1.4234  0.6081  0.2584
 5877TIP3    H241827   7.470   2.736  12.573  2.3534  1.4046 -0.1472
 5878TIP3   OH241828   3.103   7.490  10.883 -0.0982  0.1596  0.4009
 5878TIP3    H141829   3.068   7.495  10.794 -0.2218  0.4927  0.4703
 5878TIP3    H241830   3.083   7.575  10.922 -0.8545 -0.3015  1.0448
 5879TIP3   OH241831   2.875   3.854  11.603  0.2284  0.0547  0.1975
 5879TIP3    H141832   2.803   3.791  11.603 -0.3434  0.6895 -0.1963
 5879TIP3    H241833   2.931   3.827  11.531 -0.0661  0.0554 -0.0336
 5880TIP3   OH241834   4.490   5.846  11.921  0.3254  0.1814 -0.1643
 5880TIP3    H141835   4.577   5.875  11.946 -0.0750  0.5233  0.8660
 5880TIP3    H241836   4.504   5.795  11.841  1.6905 -1.3928  1.0151
 5881TIP3   OH241837   3.586   3.365  13.277  0.0296 -0.0570 -0.8287
 5881TIP3    H141838   3.525   3.300  13.242  0.2081 -0.1770 -0.9210
 5881TIP3    H241839   3.668   3.347  13.230  0.4328 -0.5838  0.0593
 5882TIP3   OH241840   2.212   3.276  10.651 -0.2309  0.3690 -0.3652
 5882TIP3    H141841   2.241   3.366  10.638  0.4922  0.2316  0.2298
 5882TIP3    H241842   2.140   3.284  10.714  0.8106  0.4299  0.8826
 5883TIP3   OH241843   4.620   3.174  10.716 -0.1227  0.2580 -0.0077
 5883TIP3    H141844   4.638   3.205  10.805  0.4778  0.4942 -0.2037
 5883TIP3    H241845   4.526   3.185  10.705 -0.4972 -1.2600  1.1722
 5884TIP3   OH241846   2.213   4.662  11.898 -0.0967 -0.5504 -0.3652
 5884TIP3    H141847   2.139   4.641  11.840  0.5314  1.5404 -2.0743
 5884TIP3    H241848   2.284   4.682  11.838  0.9427  0.5782  1.1846
 5885TIP3   OH241849   5.822   3.440  12.791  0.2070 -0.6634  0.0421
 5885TIP3    H141850   5.881   3.497  12.841 -1.0120  1.1585 -0.4880
 5885TIP3    H241851   5.839   3.462  12.700  0.0072 -1.4664 -0.1949
 5886TIP3   OH241852   5.748   0.142  12.300  0.0803  0.4062  0.2108
 5886TIP3    H141853   5.688   0.083  12.345 -0.8591  0.4392 -0.9406
 5886TIP3    H241854   5.723   0.229  12.330  0.8100  0.3034  1.1529
 5887TIP3   OH241855   2.542   6.346  12.426  0.0006 -0.4176  0.1270
 5887TIP3    H141856   2.539   6.398  12.506 -0.6322  1.2103 -0.9205
 5887TIP3    H241857   2.631   6.359  12.392 -0.4018  0.6791 -0.5540
 5888TIP3   OH241858   1.327   3.197  12.512 -0.7650  0.2817  0.2097
 5888TIP3    H141859   1.292   3.276  12.554 -1.1692 -0.1926  0.7955
 5888TIP3    H241860   1.350   3.140  12.585 -0.7355 -0.2510 -0.2109
 5889TIP3   OH241861   1.166   5.787  10.856  0.1095 -0.1171  0.5101
 5889TIP3    H141862   1.138   5.813  10.768 -2.1460  1.4490  1.6004
 5889TIP3    H241863   1.217   5.862  10.888  1.2167 -0.8228  0.4720
 5890TIP3   OH241864   1.193   0.798  10.878  0.0583  0.4607  0.0223
 5890TIP3    H141865   1.266   0.853  10.848  0.6621 -0.4329 -0.1777
 5890TIP3    H241866   1.221   0.709  10.859 -0.6078  0.0340  0.9847
 5891TIP3   OH241867   3.395   2.757  12.995 -0.2797  0.0860 -0.2529
 5891TIP3    H141868   3.302   2.747  13.012 -0.1800 -1.0972 -0.3661
 5891TIP3    H241869   3.423   2.825  13.057 -1.6613  2.2902 -1.8980
 5892TIP3   OH241870   3.604   0.584  11.877  0.5007  0.3511 -0.1727
 5892TIP3    H141871   3.579   0.559  11.788  1.2655 -1.6235  0.1111
 5892TIP3    H241872   3.572   0.512  11.932  0.3067  1.3866  1.1434
 5893TIP3   OH241873   4.769   5.227  12.121 -0.1889 -0.1872 -0.2330
 5893TIP3    H141874   4.787   5.234  12.215  0.4282 -1.4857 -0.2421
 5893TIP3    H241875   4.761   5.318  12.092  4.0496  0.5608  0.2410
 5894TIP3   OH241876   5.772   6.765  11.651  0.0844  0.0606 -0.0435
 5894TIP3    H141877   5.785   6.837  11.590 -1.6044  0.0493 -0.4877
 5894TIP3    H241878   5.826   6.694  11.618  1.1502  0.8647 -0.0534
 5895TIP3   OH241879   0.197   1.984  12.219  0.4894  0.5935 -0.0453
 5895TIP3    H141880   0.217   1.893  12.199  0.1521  0.8615 -1.7858
 5895TIP3    H241881   0.211   2.030  12.136 -1.4237  1.7680  0.2292
 5896TIP3   OH241882   2.517   0.065  12.080 -0.1237  0.8967 -0.0247
 5896TIP3    H141883   2.487   0.152  12.052  1.0501  2.3526  2.7981
 5896TIP3    H241884   2.593   0.083  12.135 -0.3971 -1.8634  1.4247
 5897TIP3   OH241885   6.605   1.041  10.880  0.5718  0.4570  0.2974
 5897TIP3    H141886   6.596   1.010  10.790 -0.0507 -0.7866  0.7636
 5897TIP3    H241887   6.698   1.061  10.890  1.1023 -1.6765  0.0646
 5898TIP3   OH241888   1.374   5.344  11.034 -0.1384 -0.8536  0.2649
 5898TIP3    H141889   1.384   5.401  10.957 -0.4553 -1.7997 -0.4901
 5898TIP3    H241890   1.287   5.306  11.024 -0.4557 -0.4677  1.4674
 5899TIP3   OH241891   0.049   6.467  11.823  0.0297 -0.2955 -0.1380
 5899TIP3    H141892   0.031   6.514  11.904  1.8826  1.1435 -0.4972
 5899TIP3    H241893  -0.033   6.470  11.774 -0.0970  2.0348  0.1369
 5900TIP3   OH241894   6.127   2.084  10.526  0.0994 -0.0574  0.1073
 5900TIP3    H141895   6.222   2.079  10.511  0.1832  1.0527  0.1796
 5900TIP3    H241896   6.095   2.143  10.458 -0.1075  1.8332  1.7537
 5901TIP3   OH241897   7.088   3.637  13.057 -0.1432  0.0253 -0.0154
 5901TIP3    H141898   7.054   3.726  13.062 -0.9139 -0.2960  0.7121
 5901TIP3    H241899   7.170   3.640  13.105 -0.2237  0.3229  0.1069
 5902TIP3   OH241900   1.689   4.614  10.726 -0.0376  0.6022 -0.0598
 5902TIP3    H141901   1.778   4.581  10.741 -0.5111 -0.6030  0.2879
 5902TIP3    H241902   1.678   4.683  10.792 -0.0335 -0.6187  1.2734
 5903TIP3   OH241903   7.077   4.562  11.195  0.2907 -0.7919  0.0451
 5903TIP3    H141904   7.135   4.584  11.122  0.0572 -1.1453 -0.2456
 5903TIP3    H241905   7.108   4.618  11.267 -1.0902  1.4842 -1.0043
 5904TIP3   OH241906   6.595   3.794  11.129 -0.5176  0.0839 -0.0454
 5904TIP3    H141907   6.629   3.824  11.213 -0.3828  0.3652 -0.1968
 5904TIP3    H241908   6.551   3.871  11.092  3.0918  1.3893 -2.1649
 5905TIP3   OH241909   2.872   0.871  11.233 -0.5514 -0.5380  0.0285
 5905TIP3    H141910   2.954   0.822  11.231  0.5743  1.2809 -0.3588
 5905TIP3    H241911   2.846   0.872  11.325  1.0466  0.6891  0.5161
 5906TIP3   OH241912   2.831   1.982  12.621 -0.3088  0.2664  0.5148
 5906TIP3    H141913   2.865   1.970  12.533  0.3933  0.8813  0.6877
 5906TIP3    H241914   2.891   2.045  12.661 -2.6315  2.8450  0.2591
 5907TIP3   OH241915   4.516   7.680  12.476 -0.0308  0.1734  0.0258
 5907TIP3    H141916   4.606   7.650  12.466 -0.7260 -2.0537 -0.1400
 5907TIP3    H241917   4.509   7.755  12.418  1.0039 -1.3465 -2.2172
 5908TIP3   OH241918   4.898   4.105  12.837  0.0217  0.2295 -0.2701
 5908TIP3    H141919   4.912   4.200  12.842 -0.8449  0.4188 -1.1376
 5908TIP3    H241920   4.916   4.074  12.925 -0.2483  1.2899  0.1779
 5909TIP3   OH241921   3.585   7.277  11.045  0.1474  0.0940 -0.4300
 5909TIP3    H141922   3.623   7.304  11.129  0.9370 -1.5383 -0.2422
 5909TIP3    H241923   3.521   7.346  11.026  1.4709  1.6516  0.4231
 5910TIP3   OH241924   3.679   1.323  11.557  0.0229  0.0493 -0.5349
 5910TIP3    H141925   3.721   1.246  11.519 -0.0183  0.8690 -2.3227
 5910TIP3    H241926   3.620   1.355  11.489 -1.0712  0.8074  0.7304
 5911TIP3   OH241927   0.623   5.835  11.115 -0.1256 -0.2148  0.6713
 5911TIP3    H141928   0.557   5.835  11.046  0.1644 -1.0936  0.3777
 5911TIP3    H241929   0.693   5.892  11.082 -0.2929 -0.0836  0.5438
 5912TIP3   OH241930   0.112   4.823  11.055 -0.0018 -0.0111  0.5236
 5912TIP3    H141931   0.181   4.870  11.008  0.4030 -3.4013 -2.7749
 5912TIP3    H241932   0.031   4.847  11.009 -0.0185 -1.1398 -0.0689
 5913TIP3   OH241933   7.390   6.700  11.245 -0.1574 -0.1433  0.0661
 5913TIP3    H141934   7.344   6.643  11.307  0.0217 -0.4546 -0.0805
 5913TIP3    H241935   7.474   6.718  11.286 -0.6957  1.0437  0.6744
 5914TIP3   OH241936   2.210   5.586  12.111 -0.1255  0.0946  0.1282
 5914TIP3    H141937   2.276   5.654  12.122 -1.3742  1.3910 -0.0990
 5914TIP3    H241938   2.130   5.633  12.087 -0.8370 -1.5287 -0.8637
 5915TIP3   OH241939   0.480   7.125  11.556 -0.0441 -0.1242 -0.3492
 5915TIP3    H141940   0.567   7.145  11.590 -0.1234 -1.6921  0.8811
 5915TIP3    H241941   0.471   7.181  11.479  1.6212  0.8386  0.1117
 5916TIP3   OH241942   0.547   5.424  11.128 -0.0403 -0.1840  0.1294
 5916TIP3    H141943   0.486   5.496  11.144  1.1158  0.9058 -0.2051
 5916TIP3    H241944   0.498   5.345  11.153 -0.7536  0.8349  2.1769
 5917TIP3   OH241945   5.676   0.471  12.141  0.4879  0.0680 -0.0078
 5917TIP3    H141946   5.582   0.471  12.159  0.8355  0.9790  2.0703
 5917TIP3    H241947   5.687   0.534  12.070 -0.3054  1.3456  0.9617
 5918TIP3   OH241948   2.876   0.100  10.880  0.3156  0.5760  0.1364
 5918TIP3    H141949   2.792   0.057  10.870  0.3816  0.5957 -0.5817
 5918TIP3    H241950   2.870   0.148  10.963 -1.0836  2.1199 -0.7934
 5919TIP3   OH241951   1.131   2.314  11.426  0.2774  0.7628 -0.1512
 5919TIP3    H141952   1.082   2.284  11.350  0.9515  1.8841 -1.0757
 5919TIP3    H241953   1.223   2.308  11.400  0.6827 -1.0562  1.4490
 5920TIP3   OH241954   2.136   7.421  12.642 -0.2267  0.3791 -0.2836
 5920TIP3    H141955   2.109   7.512  12.636  0.0282  0.4308 -0.7224
 5920TIP3    H241956   2.142   7.403  12.736 -1.4644  0.4484 -0.1760
 5921TIP3   OH241957   2.751   0.965  12.132  0.0633  0.2502  0.0674
 5921TIP3    H141958   2.664   0.952  12.171 -0.3407  2.5347  0.0827
 5921TIP3    H241959   2.761   1.060  12.129  1.5051  0.0855 -2.3045
 5922TIP3   OH241960   6.440   0.747  11.114  0.3416  0.4724  0.5867
 5922TIP3    H141961   6.477   0.827  11.154  0.0417  0.3799  1.0649
 5922TIP3    H241962   6.447   0.681  11.184 -1.4564  0.6615  0.9781
 5923TIP3   OH241963   4.544   1.044  12.040 -0.5749  0.1483 -0.6541
 5923TIP3    H141964   4.570   0.975  11.980 -1.4702  0.1962 -1.1250
 5923TIP3    H241965   4.500   1.109  11.985  0.6996  1.3570 -0.3006
 5924TIP3   OH241966   3.457   3.450  11.303 -0.0055 -0.1208  0.4961
 5924TIP3    H141967   3.548   3.430  11.283 -0.5941 -2.1414 -0.4258
 5924TIP3    H241968   3.424   3.494  11.225  0.4809  1.9002  1.3577
 5925TIP3   OH241969   3.489   4.604  11.129  0.6643  0.1617 -0.2124
 5925TIP3    H141970   3.472   4.697  11.145 -0.2488 -0.1543  0.7932
 5925TIP3    H241971   3.403   4.562  11.136  1.1032 -0.7974 -0.3653
 5926TIP3   OH241972   3.409   1.089  12.591  0.0255 -0.3688 -0.1364
 5926TIP3    H141973   3.418   1.002  12.552 -1.5419 -0.5751 -0.0974
 5926TIP3    H241974   3.388   1.072  12.683 -1.2774 -0.0043 -0.3394
 5927TIP3   OH241975   6.333   6.524  11.632  0.3641 -0.7556 -0.4322
 5927TIP3    H141976   6.323   6.617  11.652 -0.4275 -0.9498  0.1307
 5927TIP3    H241977   6.422   6.517  11.598  1.3962 -0.1768  1.8813
 5928TIP3   OH241978   4.045   1.453  12.289 -0.4286  0.5234 -0.3347
 5928TIP3    H141979   4.062   1.429  12.380  0.2186  1.8539 -0.0731
 5928TIP3    H241980   4.102   1.395  12.238  0.0964  0.5731  0.1804
 5929TIP3   OH241981   2.044   3.631  11.838  0.1196 -0.0902  0.4172
 5929TIP3    H141982   1.989   3.650  11.762  0.7397 -1.2709 -0.3679
 5929TIP3    H241983   2.118   3.692  11.829  1.0180 -1.3081 -0.8771
 5930TIP3   OH241984   7.486   0.459  10.739 -0.0495  0.0544  0.2005
 5930TIP3    H141985   7.523   0.513  10.669  0.7612  0.4412  0.9122
 5930TIP3    H241986   7.532   0.486  10.818 -0.2972 -1.0205  0.7418
 5931TIP3   OH241987   0.223   2.586  11.577  0.0925  0.1061  0.4841
 5931TIP3    H141988   0.269   2.571  11.660  0.5509 -2.3011 -0.0995
 5931TIP3    H241989   0.141   2.539  11.586 -0.5422  1.1143  0.1061
 5932TIP3   OH241990   7.483   2.290  12.042  0.0495 -0.5975 -0.5379
 5932TIP3    H141991   7.558   2.305  11.983  0.0745 -0.4202 -0.4597
 5932TIP3    H241992   7.523   2.274  12.127 -0.0290  0.2405 -0.3362
 5933TIP3   OH241993   0.112   4.136  12.754  1.1078 -0.0165 -0.5789
 5933TIP3    H141994   0.020   4.113  12.766  0.9566  1.2709  1.2012
 5933TIP3    H241995   0.114   4.185  12.672  0.1390  0.2503 -0.4555
 5934TIP3   OH241996   7.349   4.088  11.755  0.3759 -0.4698  0.1857
 5934TIP3    H141997   7.259   4.057  11.753  0.0759  0.3730  0.2116
 5934TIP3    H241998   7.349   4.165  11.698  1.1421 -0.6312 -0.0448
 5935TIP3   OH241999   4.981   0.222  12.581  0.1412 -0.2277  0.2705
 5935TIP3    H142000   5.030   0.255  12.505  0.2262 -1.2392 -0.1363
 5935TIP3    H242001   4.914   0.164  12.543 -0.8972  0.5379  0.8680
 5936TIP3   OH242002   4.106   2.609  10.667  0.0971  0.5972  0.2726
 5936TIP3    H142003   4.024   2.636  10.707  0.3163  1.4986  0.1274
 5936TIP3    H242004   4.138   2.687  10.621  0.5188 -0.0376 -0.5331
 5937TIP3   OH242005   0.671   6.467  12.497  0.4000 -0.0357 -0.5584
 5937TIP3    H142006   0.735   6.518  12.446  2.0980 -0.6180  0.8915
 5937TIP3    H242007   0.650   6.523  12.572  1.5991 -1.0437  0.5787
 5938TIP3   OH242008   6.334   5.802  12.468 -0.4724 -0.0213  0.2898
 5938TIP3    H142009   6.331   5.879  12.410 -2.5984 -0.5369 -0.3615
 5938TIP3    H242010   6.383   5.736  12.418 -0.8607  0.0758 -0.2204
 5939TIP3   OH242011   2.997   2.135  11.624 -0.2737 -0.1162 -0.2234
 5939TIP3    H142012   2.971   2.098  11.709  1.8339 -1.7644 -0.2166
 5939TIP3    H242013   2.962   2.073  11.560 -2.1359  1.2866 -0.6788
 5940TIP3   OH242014   0.100   7.395  11.235  0.5357  0.1701  0.5951
 5940TIP3    H142015   0.168   7.404  11.301 -0.9007  1.7628  1.9469
 5940TIP3    H242016   0.022   7.367  11.284 -0.2953  0.3404 -0.5780
 5941TIP3   OH242017   5.456   5.657  10.761 -0.5706  0.3277  0.4520
 5941TIP3    H142018   5.465   5.740  10.713  1.1314  0.7246  1.3763
 5941TIP3    H242019   5.535   5.651  10.814 -1.0270 -1.5302  1.0091
 5942TIP3   OH242020   5.209   1.353  11.692  0.0788  0.0291 -0.6030
 5942TIP3    H142021   5.225   1.434  11.643 -0.5748 -0.0310 -0.9355
 5942TIP3    H242022   5.287   1.340  11.744 -0.0219  1.1639 -0.1541
 5943TIP3   OH242023   0.562   1.556  11.202 -0.0809 -0.6363 -0.6663
 5943TIP3    H142024   0.586   1.582  11.291 -0.9018 -1.1633 -0.2817
 5943TIP3    H242025   0.520   1.471  11.212  0.3514 -0.9821 -1.6347
 5944TIP3   OH242026   6.533   0.416  10.997 -0.3579 -0.1551 -0.7529
 5944TIP3    H142027   6.506   0.505  10.976  1.8923  0.2478 -2.2562
 5944TIP3    H242028   6.572   0.423  11.085 -1.5573  0.0093 -0.2221
 5945TIP3   OH242029   4.685   7.035  11.392 -0.0513  0.0384  0.2183
 5945TIP3    H142030   4.651   6.948  11.371  1.0084 -0.3582  0.0913
 5945TIP3    H242031   4.773   7.019  11.426  0.1689  1.0677  0.1746
 5946TIP3   OH242032   1.481   4.411  10.658 -0.1193  0.1565  0.2356
 5946TIP3    H142033   1.395   4.449  10.674 -0.9594 -0.2739 -2.7003
 5946TIP3    H242034   1.543   4.481  10.678 -1.3794  1.6599 -0.8712
 5947TIP3   OH242035   6.099   7.578  11.345  0.3457  0.0783 -0.1517
 5947TIP3    H142036   6.111   7.667  11.313  1.2487  0.2066  0.4872
 5947TIP3    H242037   6.178   7.560  11.396 -0.9221 -0.1749  1.8329
 5948TIP3   OH242038   1.331   6.567  10.658 -0.0624 -0.3159  0.3173
 5948TIP3    H142039   1.337   6.494  10.596 -2.6848  1.7696 -2.7307
 5948TIP3    H242040   1.421   6.580  10.689  1.1686 -2.3573 -2.0768
 5949TIP3   OH242041   3.209   4.221  10.912 -0.8657  0.0731  0.0352
 5949TIP3    H142042   3.210   4.226  10.817 -0.9288 -2.3394 -0.1624
 5949TIP3    H242043   3.177   4.133  10.931  0.0867  0.1349  2.2716
 5950TIP3   OH242044   1.623   3.443  11.615  0.3603 -0.6514  0.2675
 5950TIP3    H142045   1.671   3.466  11.695  0.0819 -0.8476  0.4938
 5950TIP3    H242046   1.536   3.416  11.646 -0.0724  0.1810 -0.1705
 5951TIP3   OH242047   4.536   2.789  11.537 -0.3740 -0.1409 -0.7181
 5951TIP3    H142048   4.480   2.846  11.591 -0.8147 -1.3575  0.1604
 5951TIP3    H242049   4.482   2.713  11.519  0.5223 -0.7066 -1.0807
 5952TIP3   OH242050   1.783   5.811  12.574  0.9479  0.2043  0.7112
 5952TIP3    H142051   1.807   5.718  12.573  0.6492  0.1288 -0.3515
 5952TIP3    H242052   1.782   5.834  12.667 -2.2201 -1.7450  1.3285
 5953TIP3   OH242053   7.416   5.824  13.067 -0.1585 -0.0849 -0.2738
 5953TIP3    H142054   7.346   5.873  13.109 -1.4796 -1.6521 -0.5570
 5953TIP3    H242055   7.496   5.858  13.107 -0.9527  2.4556 -0.6658
 5954TIP3   OH242056   6.328   5.092  11.576  0.4086 -0.0993  0.0880
 5954TIP3    H142057   6.306   5.094  11.483  1.7534  0.7233 -0.2381
 5954TIP3    H242058   6.267   5.153  11.617  0.8098  0.7172 -0.5022
 5955TIP3   OH242059   5.353   4.709  13.052  0.1160  0.4711  0.2014
 5955TIP3    H142060   5.424   4.650  13.028  0.4686  0.4722  1.2140
 5955TIP3    H242061   5.393   4.774  13.109 -0.3491  1.4669 -0.5604
 5956TIP3   OH242062   0.510   5.062  18.554  0.0781 -0.1236  0.1133
 5956TIP3    H142063   0.461   5.107  18.622 -0.4729 -0.0032 -0.3579
 5956TIP3    H242064   0.480   4.971  18.559 -0.3122 -0.0153 -0.2845
 5957TIP3   OH242065   7.313   3.238  11.458 -0.4798 -0.1636  0.1418
 5957TIP3    H142066   7.337   3.264  11.369  1.8520 -0.0648  0.7330
 5957TIP3    H242067   7.298   3.144  11.452  0.1905 -0.2498 -0.2665
 5958TIP3   OH242068   6.270   2.807  10.206  0.3505  0.2408 -0.1808
 5958TIP3    H142069   6.274   2.879  10.143  3.8395 -0.8479 -1.4682
 5958TIP3    H242070   6.225   2.736  10.160  2.6614 -0.4659 -1.5098
 5959TIP3   OH242071   0.672   2.818  10.345  0.1892  0.2379 -0.4998
 5959TIP3    H142072   0.619   2.839  10.422  0.0128  1.5723 -0.9591
 5959TIP3    H242073   0.627   2.744  10.304  1.0143 -1.3811  1.3612
 5960TIP3   OH242074   2.350   0.422  11.257 -0.4378 -0.2254 -0.6295
 5960TIP3    H142075   2.273   0.470  11.226 -1.8530 -2.1098 -0.1861
 5960TIP3    H242076   2.384   0.379  11.178 -1.0745 -1.0263 -0.4772
 5961TIP3   OH242077   4.155   6.098  10.923  0.0600 -0.3793 -0.1782
 5961TIP3    H142078   4.198   6.018  10.952  0.7266 -0.2953 -0.8863
 5961TIP3    H242079   4.081   6.110  10.983  2.0781  0.4881  2.3248
 5962TIP3   OH242080   7.377   1.405  12.434 -0.3429  0.1819 -0.2916
 5962TIP3    H142081   7.368   1.492  12.396 -1.7931  0.3365  0.3238
 5962TIP3    H242082   7.369   1.419  12.528  1.0184 -0.4424 -0.0696
 5963TIP3   OH242083   5.430   6.006  11.989  0.2286  0.0920  0.0927
 5963TIP3    H142084   5.357   5.954  12.021 -0.1407  1.0687  0.8809
 5963TIP3    H242085   5.508   5.960  12.019 -0.0685 -0.6017 -0.1915
 5964TIP3   OH242086   2.822   2.104  11.110 -0.5027  0.2691  0.2222
 5964TIP3    H142087   2.891   2.047  11.075 -0.3531  0.3076  0.4509
 5964TIP3    H242088   2.831   2.096  11.205  0.4279  1.7638  0.2907
 5965TIP3   OH242089   1.237   5.355  12.543  0.2257 -0.1358  0.2137
 5965TIP3    H142090   1.208   5.387  12.457  0.8522 -0.7457 -0.2398
 5965TIP3    H242091   1.219   5.427  12.603 -2.1240 -0.4175 -0.0404
 5966TIP3   OH242092   3.674   1.915  13.090 -0.5754 -0.2024  0.0156
 5966TIP3    H142093   3.612   1.884  13.023 -0.7169  1.8790 -0.8761
 5966TIP3    H242094   3.623   1.975  13.143  0.5840  1.3268 -0.5499
 5967TIP3   OH242095   4.154   1.870  11.710 -0.4197 -0.0266 -0.1634
 5967TIP3    H142096   4.137   1.951  11.663 -0.8382  0.2005  0.3578
 5967TIP3    H242097   4.181   1.898  11.798  0.4810 -0.4395 -0.2987
 5968TIP3   OH242098   2.104   5.067  12.733  0.5515 -0.2017  0.3665
 5968TIP3    H142099   2.155   5.101  12.806 -0.6223 -1.4242  1.8428
 5968TIP3    H242100   2.066   4.986  12.766  0.5221 -1.1751 -1.8578
 5969TIP3   OH242101   6.197   2.193  12.827 -0.4647  0.2434  0.3578
 5969TIP3    H142102   6.108   2.224  12.811 -1.1436 -1.6371  0.3031
 5969TIP3    H242103   6.186   2.102  12.855  1.4761 -0.1817 -0.1655
 5970TIP3   OH242104   6.911   4.841  10.837 -0.0070 -0.0271 -0.1489
 5970TIP3    H142105   7.003   4.826  10.860 -0.5673 -1.2020  1.5873
 5970TIP3    H242106   6.899   4.935  10.844  0.7634  0.0034  0.9263
 5971TIP3   OH242107   4.783   7.381  11.130  0.2738 -0.2864  0.0127
 5971TIP3    H142108   4.719   7.421  11.072 -1.1721 -0.3739  1.4845
 5971TIP3    H242109   4.734   7.317  11.181  1.8658 -1.5107  0.1014
 5972TIP3   OH242110   0.754   4.455  10.328 -0.3332  0.2504 -0.1333
 5972TIP3    H142111   0.729   4.372  10.287 -1.3672  0.2810  0.4113
 5972TIP3    H242112   0.688   4.469  10.396  0.8507  0.6351  0.9764
 5973TIP3   OH242113   6.563   4.250  11.386  0.0668 -0.8843  0.2128
 5973TIP3    H142114   6.644   4.290  11.354 -0.3771  0.5979  0.8874
 5973TIP3    H242115   6.565   4.264  11.481 -1.2960 -0.2141  0.1654
 5974TIP3   OH242116   2.737   3.378  11.051 -0.3664 -0.5388  0.7054
 5974TIP3    H142117   2.731   3.345  11.140  0.4906  0.4935  1.1608
 5974TIP3    H242118   2.830   3.375  11.030 -0.5139 -0.3957 -0.0126
 5975TIP3   OH242119   4.626   3.052  12.363 -0.3827 -0.0196 -0.7743
 5975TIP3    H142120   4.649   3.116  12.430 -0.8499 -0.0393 -0.5914
 5975TIP3    H242121   4.655   3.092  12.281 -1.9260  1.0897 -0.8365
 5976TIP3   OH242122   0.918   4.393  11.882 -0.3100 -0.0642  0.0500
 5976TIP3    H142123   0.925   4.436  11.797 -0.6096 -1.6324 -0.8100
 5976TIP3    H242124   0.857   4.447  11.932  1.4332  2.0427  0.0656
 5977TIP3   OH242125   3.951   5.072  10.780  0.1754 -0.0397  0.1144
 5977TIP3    H142126   3.971   5.064  10.873  0.5719 -0.7705 -0.0269
 5977TIP3    H242127   3.976   4.988  10.743 -2.8593 -0.9473 -0.1400
 5978TIP3   OH242128   1.846   0.462  10.911 -0.0374 -0.5405 -0.3466
 5978TIP3    H142129   1.776   0.419  10.959 -1.0748  0.8071 -0.6085
 5978TIP3    H242130   1.822   0.555  10.910  1.7797 -0.0211 -0.3876
 5979TIP3   OH242131   1.528   5.383  11.838  0.0515 -0.4338 -0.1277
 5979TIP3    H142132   1.442   5.355  11.808 -0.3903  0.5970  0.1125
 5979TIP3    H242133   1.568   5.305  11.877 -1.9633 -0.2834  2.4684
 5980TIP3   OH242134   7.154   1.322  11.770  0.6075  0.1982 -0.2519
 5980TIP3    H142135   7.162   1.251  11.833 -2.4164 -1.0233 -1.0645
 5980TIP3    H242136   7.070   1.363  11.789  0.6355  1.2333 -2.0657
 5981TIP3   OH242137   7.193   3.688  11.538 -0.8437  0.1914 -0.0087
 5981TIP3    H142138   7.251   3.757  11.571 -2.0230  0.8137  0.8403
 5981TIP3    H242139   7.235   3.657  11.458  2.1140 -1.3098  1.9495
 5982TIP3   OH242140   5.464   0.527  12.357  0.4750  0.1645  0.1889
 5982TIP3    H142141   5.418   0.501  12.436  0.4550  1.5941  0.6788
 5982TIP3    H242142   5.402   0.510  12.286  0.3001 -0.6233  0.5202
 5983TIP3   OH242143   1.406   2.360  11.364 -0.6014  0.0260  0.2997
 5983TIP3    H142144   1.357   2.400  11.292 -0.9380 -1.0513 -0.0798
 5983TIP3    H242145   1.467   2.429  11.392 -0.1548  0.3178 -1.3093
 5984TIP3   OH242146   3.131   7.109  13.172  0.2120 -0.2301  0.2419
 5984TIP3    H142147   3.171   7.166  13.238 -0.5194 -0.9198  1.2994
 5984TIP3    H242148   3.205   7.065  13.130  0.6876  0.2548  0.5543
 5985TIP3   OH242149   3.468   7.602  11.976  0.1302 -0.1264  0.1412
 5985TIP3    H142150   3.475   7.513  12.009  0.5702  0.0868  0.6282
 5985TIP3    H242151   3.385   7.634  12.012 -0.2413 -0.4760 -0.3845
 5986TIP3   OH242152   2.072   5.764  12.307  0.6249  0.2009 -0.3114
 5986TIP3    H142153   1.983   5.730  12.312 -0.1415  2.2468  2.3230
 5986TIP3    H242154   2.127   5.696  12.346  0.2428 -0.9197 -1.6276
 5987TIP3   OH242155   0.042   4.736  11.419 -0.3995 -0.2382  0.1681
 5987TIP3    H142156   0.113   4.735  11.355  0.4888  2.9021  0.9452
 5987TIP3    H242157   0.079   4.695  11.497  0.8374  1.7563  0.7124
 5988TIP3   OH242158   0.942   4.711  12.802 -0.0317 -0.2331 -0.7834
 5988TIP3    H142159   1.008   4.644  12.783  1.2444  0.4009  1.0354
 5988TIP3    H242160   0.964   4.741  12.891 -1.3362  1.6829 -1.0394
 5989TIP3   OH242161   2.414   6.166  11.830  0.5071  0.1696 -0.1395
 5989TIP3    H142162   2.410   6.120  11.913 -1.2186  0.1759 -0.1760
 5989TIP3    H242163   2.417   6.096  11.764  0.5384  0.1426 -0.1096
 5990TIP3   OH242164   1.717   2.628  11.693 -0.0708  0.1184  0.0815
 5990TIP3    H142165   1.625   2.614  11.670  0.5131 -0.6408 -1.9808
 5990TIP3    H242166   1.755   2.541  11.700  0.7083  0.4337 -0.0410
 5991TIP3   OH242167   2.247   4.416  11.106 -0.4993  0.2706  0.0252
 5991TIP3    H142168   2.198   4.482  11.056  1.3844 -0.2464 -2.7661
 5991TIP3    H242169   2.182   4.351  11.130 -1.8986  1.6906  0.2687
 5992TIP3   OH242170   3.611   5.437  12.285 -0.0766  0.2073  0.1206
 5992TIP3    H142171   3.547   5.444  12.356 -0.3906  0.0445 -0.1428
 5992TIP3    H242172   3.581   5.501  12.220  0.2125  0.3602  0.1375
 5993TIP3   OH242173   0.843   0.926  11.098 -0.9853 -0.1198 -0.7412
 5993TIP3    H142174   0.905   0.885  11.158  0.4278 -0.4854 -2.3676
 5993TIP3    H242175   0.760   0.926  11.145 -0.1876 -1.4100  0.7537
 5994TIP3   OH242176   6.679   0.310  10.774  0.1249  0.1850  0.3201
 5994TIP3    H142177   6.691   0.217  10.794  1.4242  0.3704  0.5168
 5994TIP3    H242178   6.638   0.347  10.852  1.3183  0.1150  1.0044
 5995TIP3   OH242179   2.429   5.782  13.232 -0.3824 -0.1538 -0.7634
 5995TIP3    H142180   2.462   5.732  13.307 -0.8320  1.9358  0.9298
 5995TIP3    H242181   2.348   5.737  13.206 -0.3744 -0.7438  0.2095
 5996TIP3   OH242182   4.090   3.499  12.316 -0.6171 -0.0176 -0.5807
 5996TIP3    H142183   4.176   3.458  12.327 -1.0582 -0.5636  0.9640
 5996TIP3    H242184   4.099   3.584  12.360 -1.2919 -0.6914  0.9106
 5997TIP3   OH242185   5.602   6.736  11.355 -0.2767 -0.8172  0.0291
 5997TIP3    H142186   5.571   6.770  11.439  0.1596 -1.0946  0.3064
 5997TIP3    H242187   5.697   6.748  11.358 -0.2546 -0.8472 -0.4185
 5998TIP3   OH242188   2.130   4.121  12.393  0.9578  0.3489 -0.7179
 5998TIP3    H142189   2.202   4.116  12.330  0.7163  1.1934 -1.0853
 5998TIP3    H242190   2.067   4.181  12.352 -0.0036 -0.4528 -0.4532
 5999TIP3   OH242191   2.841   2.656  12.751 -0.1164 -0.5348  0.2905
 5999TIP3    H142192   2.809   2.710  12.823 -0.4009 -0.2034 -0.0823
 5999TIP3    H242193   2.932   2.685  12.738 -0.7460  0.9957 -0.9568
 6000TIP3   OH242194   6.649   4.403  11.849 -0.0502  0.1723  0.5171
 6000TIP3    H142195   6.698   4.485  11.837 -1.2222  0.5173 -3.0668
 6000TIP3    H242196   6.557   4.430  11.848 -0.4337 -1.0816  0.1687
 6001TIP3   OH242197   6.614   7.250  11.930  0.5057  0.4051 -0.1674
 6001TIP3    H142198   6.566   7.226  12.009  1.8166 -1.1990  0.1765
 6001TIP3    H242199   6.547   7.251  11.861 -0.3915  0.3824  0.6791
 6002TIP3   OH242200   3.616   2.817  12.265 -0.0001  0.0049 -0.2840
 6002TIP3    H142201   3.686   2.785  12.323  1.2954  1.3975 -1.0191
 6002TIP3    H242202   3.623   2.912  12.270 -1.3209  0.1585 -1.0256
 6003TIP3   OH242203   0.862   5.783  11.406 -0.4360  0.2147  0.2895
 6003TIP3    H142204   0.931   5.766  11.343 -1.0055 -0.6238 -0.1342
 6003TIP3    H242205   0.874   5.874  11.431  1.3849 -0.1668  0.9444
 6004TIP3   OH242206   5.398   1.066  10.548  0.2422  0.0728  0.5447
 6004TIP3    H142207   5.383   1.157  10.523 -1.7498 -0.7627 -1.6636
 6004TIP3    H242208   5.322   1.043  10.602 -0.2280 -0.7784 -0.4477
 6005TIP3   OH242209   0.440   4.181  10.968 -0.0763 -0.4617 -0.3221
 6005TIP3    H142210   0.445   4.178  11.064  0.5612  0.2884 -0.3207
 6005TIP3    H242211   0.379   4.252  10.949  0.4479 -0.0451 -0.4708
 6006TIP3   OH242212   6.847   5.862  11.379  0.3649  0.1806  0.6677
 6006TIP3    H142213   6.900   5.821  11.310  1.5537  2.3387  0.2338
 6006TIP3    H242214   6.839   5.794  11.446  2.4678 -0.6931  0.1037
 6007TIP3   OH242215   4.204   3.810  10.941  0.1291 -0.0859  0.7850
 6007TIP3    H142216   4.156   3.817  11.024  0.1144 -0.2181  0.7872
 6007TIP3    H242217   4.180   3.890  10.893 -0.3792 -0.3208  0.6362
 6008TIP3   OH242218   1.421   5.843  12.953 -0.4502  0.0894  0.8381
 6008TIP3    H142219   1.359   5.916  12.956 -1.1315 -0.0922 -3.2251
 6008TIP3    H242220   1.367   5.765  12.970 -0.6511  0.1882  0.6580
 6009TIP3   OH242221   0.660   6.359  11.085  0.0323  0.1487  0.3787
 6009TIP3    H142222   0.577   6.318  11.109  0.3052  0.1301  1.3075
 6009TIP3    H242223   0.636   6.424  11.019 -0.7985  0.5116  1.0222
 6010TIP3   OH242224   1.382   6.277  13.393  0.3524  0.2786 -0.5346
 6010TIP3    H142225   1.446   6.343  13.367  0.1819  0.1946 -1.1864
 6010TIP3    H242226   1.315   6.279  13.324  0.1175 -0.2629 -0.3322
 6011TIP3   OH242227   7.546   7.615  12.877  0.3884  1.0921  1.0526
 6011TIP3    H142228   7.611   7.567  12.826 -2.1856  0.8231 -2.3331
 6011TIP3    H242229   7.477   7.551  12.895 -2.6217  2.8990 -2.6205
 6012TIP3   OH242230   2.808   5.616  11.662  0.7032 -0.0775  0.0592
 6012TIP3    H142231   2.802   5.612  11.757  2.2083 -0.9037  0.1526
 6012TIP3    H242232   2.717   5.624  11.632  0.3003  1.9497  1.6025
 6013TIP3   OH242233   5.959   7.452  12.770  0.5102  0.0196  0.3087
 6013TIP3    H142234   6.049   7.484  12.771  0.5660 -0.1412  1.8423
 6013TIP3    H242235   5.905   7.531  12.761  0.7451  0.3123  1.3983
 6014TIP3   OH242236   4.997   2.761  12.763 -0.5604 -0.0442 -0.0178
 6014TIP3    H142237   4.942   2.819  12.816 -0.5811 -0.8512  0.8596
 6014TIP3    H242238   4.936   2.716  12.705 -0.9646 -1.4564  1.4303
 6015TIP3   OH242239   1.919   3.215  12.066 -0.4378  0.3836 -0.0223
 6015TIP3    H142240   1.978   3.162  12.118 -1.0023 -0.3831 -0.1420
 6015TIP3    H242241   1.976   3.260  12.002  0.0271 -0.2044 -0.0258
 6016TIP3   OH242242   6.190   1.058  12.320  0.2853  0.0753  0.0188
 6016TIP3    H142243   6.146   1.067  12.405 -0.3339  0.5160 -0.3441
 6016TIP3    H242244   6.281   1.038  12.343  0.4034  1.3690  0.8149
 6017TIP3   OH242245   3.799   3.044  11.267 -0.2299 -0.8108  0.3257
 6017TIP3    H142246   3.755   3.109  11.322  0.9918  0.2183  0.1377
 6017TIP3    H242247   3.740   2.968  11.266 -2.0108  0.5246  0.0148
 6018TIP3   OH242248   5.063   1.152  11.159 -0.1326 -0.2310  0.1337
 6018TIP3    H142249   5.016   1.122  11.238 -0.5673  0.4109  0.1318
 6018TIP3    H242250   4.997   1.147  11.090  0.0176 -0.0221 -0.0222
 6019TIP3   OH242251   3.546   5.226  11.873 -0.0099  0.8371 -0.0881
 6019TIP3    H142252   3.618   5.279  11.909  0.6214  0.4705 -0.7885
 6019TIP3    H242253   3.530   5.159  11.940  1.2532  0.0729 -0.5098
 6020TIP3   OH242254   4.210   5.877  11.187 -0.2206 -0.6622 -0.0276
 6020TIP3    H142255   4.261   5.862  11.108  0.8470 -0.0122  0.5170
 6020TIP3    H242256   4.251   5.953  11.228  0.1419 -1.8287  1.8806
 6021TIP3   OH242257   0.045   3.039  11.284  0.1581 -0.6998  0.3341
 6021TIP3    H142258   0.032   3.133  11.274 -0.0168 -0.8091 -0.5328
 6021TIP3    H242259   0.121   3.031  11.343  1.8158  0.0282 -1.5676
 6022TIP3   OH242260   2.603   0.990  12.981 -0.1068 -0.7978  0.1316
 6022TIP3    H142261   2.633   1.081  12.985 -0.2310 -0.8159  1.9698
 6022TIP3    H242262   2.525   0.993  12.925 -0.3335  0.2796  0.4853
 6023TIP3   OH242263   0.710   3.698  12.806  0.0013  0.8130 -0.0114
 6023TIP3    H142264   0.658   3.647  12.869  1.4159 -1.8058 -0.8294
 6023TIP3    H242265   0.771   3.748  12.860 -0.8822  1.0379  0.7974
 6024TIP3   OH242266   3.964   4.698  12.010  0.7171  0.0156  0.0342
 6024TIP3    H142267   3.970   4.604  11.995  1.1309  0.1860 -0.9549
 6024TIP3    H242268   3.919   4.732  11.933  0.2444  0.5912  0.5500
 6025TIP3   OH242269   6.540   7.527  11.583 -0.1393 -0.7465 -0.2085
 6025TIP3    H142270   6.581   7.503  11.665 -0.2833  0.3067  0.1820
 6025TIP3    H242271   6.601   7.497  11.516  2.1663  2.1745  0.3612
 6026TIP3   OH242272   3.788   3.350  12.396 -0.3713  0.9142  0.3370
 6026TIP3    H142273   3.832   3.387  12.319  1.8518 -0.6859  0.7439
 6026TIP3    H242274   3.705   3.397  12.401 -0.0851  1.8601 -2.3573
 6027TIP3   OH242275   4.279   6.797  12.003  0.3225  0.5302  0.1399
 6027TIP3    H142276   4.239   6.884  11.999 -1.0575 -0.1055 -1.0790
 6027TIP3    H242277   4.350   6.801  11.939  1.2725  1.1990  1.1991
 6028TIP3   OH242278   3.559   5.515  11.243  0.7112  0.7293 -0.3199
 6028TIP3    H142279   3.638   5.480  11.200  0.2424 -0.5689 -0.1548
 6028TIP3    H242280   3.544   5.457  11.317  0.4009  1.8237  0.5020
 6029TIP3   OH242281   7.327   3.281  11.174 -0.5633  0.0141 -0.3590
 6029TIP3    H142282   7.331   3.296  11.079 -1.7198 -1.7421 -0.7339
 6029TIP3    H242283   7.260   3.213  11.184  0.6377 -0.9583  1.5875
 6030TIP3   OH242284   6.069   4.127  11.722 -0.4389  0.4063 -0.3342
 6030TIP3    H142285   6.063   4.074  11.643 -0.0959  1.4314 -1.0746
 6030TIP3    H242286   6.146   4.182  11.708 -0.3256  0.5388  0.7535
 6031TIP3   OH242287   3.938   2.407  11.623  0.4639  0.1596  0.6337
 6031TIP3    H142288   3.974   2.385  11.709 -0.8538  0.3172  1.2535
 6031TIP3    H242289   3.849   2.438  11.642 -0.7723 -2.1121 -0.9872
 6032TIP3   OH242290   0.870   5.245  10.756  0.2537 -0.0108  0.2131
 6032TIP3    H142291   0.814   5.321  10.771  0.8039  0.5089 -0.3175
 6032TIP3    H242292   0.815   5.184  10.707 -0.1104  0.1591  0.4098
 6033TIP3   OH242293   1.771   5.579  11.765 -0.0088 -0.2275  0.5523
 6033TIP3    H142294   1.837   5.633  11.721  1.1482 -1.0971  1.1446
 6033TIP3    H242295   1.691   5.631  11.762  0.8963  1.2356  0.5332
 6034TIP3   OH242296   4.890   4.475  11.382  0.2551 -0.1191  0.2660
 6034TIP3    H142297   4.960   4.485  11.318 -0.1399 -0.8029 -0.2900
 6034TIP3    H242298   4.895   4.554  11.436  2.2357 -0.6876  1.0141
 6035TIP3   OH242299   3.113   5.031  10.941 -0.0914  0.6177 -0.8206
 6035TIP3    H142300   3.178   5.009  11.009 -0.2714  0.9778 -0.5296
 6035TIP3    H242301   3.033   5.048  10.990 -0.6152 -0.5700 -1.2294
 6036TIP3   OH242302   7.198   6.612  13.164 -0.0786  0.4228  0.8827
 6036TIP3    H142303   7.168   6.546  13.226  1.2461  0.5447  1.6840
 6036TIP3    H242304   7.269   6.569  13.116  0.7911  1.2286  1.4061
 6037TIP3   OH242305   4.419   5.421  11.313 -0.3049  0.2928  0.1797
 6037TIP3    H142306   4.456   5.428  11.224 -1.2991 -1.9769 -0.4768
 6037TIP3    H242307   4.480   5.471  11.368  1.5312 -0.0368 -1.4495
 6038TIP3   OH242308   4.508   2.733  11.227  0.2318  0.3844  0.7869
 6038TIP3    H142309   4.533   2.649  11.264 -0.5368 -0.5485 -0.7287
 6038TIP3    H242310   4.583   2.759  11.173 -0.4633 -0.5347 -0.6722
 6039TIP3   OH242311   6.111   4.720  12.089  0.4401 -0.6751  0.0934
 6039TIP3    H142312   6.076   4.762  12.167  0.4129 -0.6381  0.0612
 6039TIP3    H242313   6.064   4.636  12.085  1.0803 -1.0647  0.6083
 6040TIP3   OH242314   7.310   5.267  12.263  0.1093  0.4099  0.5539
 6040TIP3    H142315   7.245   5.241  12.197 -0.4475  0.4416  1.0806
 6040TIP3    H242316   7.329   5.186  12.311  0.3869  0.4216  0.4652
 6041TIP3   OH242317   1.812   2.184  11.366  0.1304 -0.8539 -0.0372
 6041TIP3    H142318   1.832   2.158  11.456  0.0403 -0.0900  0.2113
 6041TIP3    H242319   1.717   2.189  11.362  0.1012 -1.5102 -0.3642
 6042TIP3   OH242320   5.954   2.627  11.730  0.0717  0.3452 -0.0897
 6042TIP3    H142321   5.966   2.721  11.738  0.7594  0.1161  1.9506
 6042TIP3    H242322   5.867   2.610  11.764 -0.1913  0.2603 -0.7796
 6043TIP3   OH242323   3.226   6.278  10.315 -0.6974  0.7928 -0.2808
 6043TIP3    H142324   3.190   6.366  10.323 -3.0583 -0.1670  0.5317
 6043TIP3    H242325   3.153   6.220  10.337  0.6473 -1.3932 -1.2392
 6044TIP3   OH242326   6.419   1.814  10.726  0.7287 -0.2805 -0.1501
 6044TIP3    H142327   6.476   1.876  10.681 -0.7091 -0.4074 -2.2863
 6044TIP3    H242328   6.339   1.812  10.673 -0.8165 -1.0015  2.0635
 6045TIP3   OH242329   0.551   2.134  11.050  0.2111  0.1166 -0.3536
 6045TIP3    H142330   0.457   2.125  11.060  0.0331 -1.3028 -2.5098
 6045TIP3    H242331   0.563   2.219  11.008 -0.5224 -1.1394 -3.3715
 6046TIP3   OH242332   1.845   5.549  12.564 -0.2315 -1.2330 -0.3223
 6046TIP3    H142333   1.906   5.476  12.573  1.5712  0.2000 -0.5131
 6046TIP3    H242334   1.763   5.508  12.537  0.1960 -3.3809  1.3402
 6047TIP3   OH242335   1.924   2.780  11.781 -0.2695  0.2261 -0.9390
 6047TIP3    H142336   1.997   2.723  11.756 -1.5268 -1.9468  0.0895
 6047TIP3    H242337   1.846   2.731  11.757 -1.4200  1.5020  0.0566
 6048TIP3   OH242338   7.448   1.234  11.459  0.2223 -0.0761 -0.3164
 6048TIP3    H142339   7.508   1.161  11.474  0.2814 -0.0526 -0.4340
 6048TIP3    H242340   7.489   1.285  11.389  0.3566  0.2740  0.0195
 6049TIP3   OH242341   2.741   0.794  10.657 -0.0260 -0.8329  0.1669
 6049TIP3    H142342   2.834   0.788  10.679 -0.2139  0.1132  1.3337
 6049TIP3    H242343   2.737   0.769  10.564  1.8205  1.9529 -0.8026
 6050TIP3   OH242344   1.480   4.296  12.284 -0.6149 -0.6086  0.1163
 6050TIP3    H142345   1.402   4.351  12.285 -0.5523 -0.4920 -0.6440
 6050TIP3    H242346   1.460   4.227  12.220 -0.0580 -0.5195 -0.1586
 6051TIP3   OH242347   0.314   2.332  11.357 -0.2706  0.1521 -0.1045
 6051TIP3    H142348   0.258   2.407  11.338 -1.5845 -0.0988  2.2580
 6051TIP3    H242349   0.402   2.368  11.366 -0.7522  1.2761  0.2336
 6052TIP3   OH242350   7.575   4.446  11.076  0.2899 -0.1956 -0.7212
 6052TIP3    H142351   7.544   4.410  10.994  1.1993 -0.1046 -1.1144
 6052TIP3    H242352   7.626   4.376  11.116  1.5874  0.4271 -1.2252
 6053TIP3   OH242353   0.526   2.218  10.655  0.0937 -0.0650  0.1992
 6053TIP3    H142354   0.456   2.255  10.709  1.0183  0.7235  0.8805
 6053TIP3    H242355   0.565   2.149  10.709  1.1060  0.8137  0.6217
 6054TIP3   OH242356   2.092   6.141  12.568  0.4318 -0.1243  0.0528
 6054TIP3    H142357   2.165   6.173  12.623  0.6660 -0.5566  0.0021
 6054TIP3    H242358   2.134   6.113  12.487  0.0163  1.0230 -0.5755
 6055TIP3   OH242359   3.640   0.690  10.865 -0.4956  0.0537  0.5262
 6055TIP3    H142360   3.590   0.643  10.798  0.4760  1.3025 -1.1827
 6055TIP3    H242361   3.587   0.767  10.886 -0.3614  0.1652  0.4597
 6056TIP3   OH242362   0.386   4.028  11.840 -0.7496 -0.1488 -0.4583
 6056TIP3    H142363   0.463   3.986  11.801 -1.3469 -1.8006  0.0568
 6056TIP3    H242364   0.340   3.957  11.885 -1.7844  1.0950  0.5209
 6057TIP3   OH242365   5.914   5.839  11.851  0.6734  1.0539  0.4159
 6057TIP3    H142366   6.009   5.852  11.842  0.7260  0.2762 -0.3554
 6057TIP3    H242367   5.875   5.923  11.828  1.2385  2.0890  2.9432
 6058TIP3   OH242368   0.152   2.320  10.368  0.1175  0.1277 -0.0626
 6058TIP3    H142369   0.099   2.389  10.328  2.4097  1.7399 -0.4901
 6058TIP3    H242370   0.103   2.294  10.446 -0.2930  3.1179  0.7842
 6059TIP3   OH242371   2.819   1.472  12.144 -0.3037  0.2489  0.3991
 6059TIP3    H142372   2.897   1.500  12.194 -0.5754  1.8441 -0.0123
 6059TIP3    H242373   2.771   1.553  12.128 -1.5121 -0.5788 -0.2999
 6060TIP3   OH242374   6.807   1.778  12.491  0.0289  0.0281  0.0604
 6060TIP3    H142375   6.759   1.727  12.557  0.2761 -1.5097 -0.9020
 6060TIP3    H242376   6.883   1.724  12.469 -0.4535  0.1100 -2.0469
 6061TIP3   OH242377   3.687   1.568  10.551  0.0539 -0.2674 -0.3062
 6061TIP3    H142378   3.696   1.647  10.496 -1.1693  0.0178 -0.1427
 6061TIP3    H242379   3.668   1.602  10.638 -3.8589 -0.6228 -0.8263
 6062TIP3   OH242380   6.854   2.871  11.380  0.1629  0.1118  0.2807
 6062TIP3    H142381   6.864   2.836  11.291  3.0286 -2.3759  1.3928
 6062TIP3    H242382   6.911   2.948  11.382 -1.0242  1.0311 -0.3822
 6063TIP3   OH242383   3.052   6.501  11.644  0.1324 -0.3114 -0.1718
 6063TIP3    H142384   3.020   6.437  11.581 -2.0251 -1.1518  1.6500
 6063TIP3    H242385   3.094   6.449  11.713  1.7601  0.5355 -0.4761
 6064TIP3   OH242386   6.362   7.300  11.806 -0.0077 -0.2025  0.0819
 6064TIP3    H142387   6.302   7.369  11.779  0.1160 -0.2843 -0.4097
 6064TIP3    H242388   6.374   7.246  11.728  2.8546  1.3447 -0.6820
 6065TIP3   OH242389   2.941   2.205  12.744  0.6788  0.2644 -0.0906
 6065TIP3    H142390   3.011   2.270  12.738  0.5797  0.4945  0.9888
 6065TIP3    H242391   2.937   2.183  12.837 -0.9219  0.5231 -0.0728
 6066TIP3   OH242392   5.311   4.073  10.538 -0.3190 -0.2698  0.4937
 6066TIP3    H142393   5.217   4.090  10.548 -0.2371  0.6221 -0.1027
 6066TIP3    H242394   5.331   4.104  10.450  0.6654  0.1389  0.8511
 6067TIP3   OH242395   2.597   5.731  13.010  0.2114 -0.0972 -0.1975
 6067TIP3    H142396   2.569   5.738  13.101  1.0952 -1.8505  0.2510
 6067TIP3    H242397   2.654   5.806  12.996  1.1665 -0.5359  1.1393
 6068TIP3   OH242398   5.205   1.049  11.802  0.7133  0.1964  0.2137
 6068TIP3    H142399   5.301   1.054  11.801  0.9356 -2.4091 -1.0813
 6068TIP3    H242400   5.179   1.075  11.713  0.3451 -0.3569  0.1542
 6069TIP3   OH242401   3.515   4.549  10.454 -0.3332  0.7532  0.3654
 6069TIP3    H142402   3.524   4.631  10.502  0.9327  1.6791 -1.3104
 6069TIP3    H242403   3.495   4.576  10.364  2.2839 -0.6143 -0.7455
 6070TIP3   OH242404   6.692   0.371  13.093 -0.2453 -0.5022 -0.2241
 6070TIP3    H142405   6.676   0.339  13.182 -1.7545  1.2042  0.1700
 6070TIP3    H242406   6.678   0.466  13.099 -0.0886 -0.3188 -2.2345
 6071TIP3   OH242407   0.488   3.723  12.524 -0.4574  0.4867 -0.0682
 6071TIP3    H142408   0.558   3.782  12.551 -1.8423  2.1224  0.0993
 6071TIP3    H242409   0.531   3.659  12.467  1.4623  0.4161  1.3507
 6072TIP3   OH242410   6.505   1.315  12.719  0.4779  0.8873 -0.0199
 6072TIP3    H142411   6.474   1.315  12.810 -0.6324 -1.1209 -0.3449
 6072TIP3    H242412   6.475   1.399  12.684 -2.0800  0.3238  0.5636
 6073TIP3   OH242413   6.825   0.887  10.471 -0.1592 -0.3932 -0.7976
 6073TIP3    H142414   6.881   0.831  10.417  0.3084  0.6882 -1.4754
 6073TIP3    H242415   6.825   0.971  10.425 -2.5640 -0.4144 -0.9851
 6074TIP3   OH242416   1.026   2.397  10.916  0.1592  0.4955 -0.2275
 6074TIP3    H142417   1.107   2.399  10.967 -0.0255  4.5683  0.1897
 6074TIP3    H242418   1.045   2.449  10.838 -1.1065 -1.4417 -1.9690
 6075TIP3   OH242419   5.601   1.683  12.265  0.0638 -0.3921 -0.7565
 6075TIP3    H142420   5.554   1.699  12.347 -1.2233 -1.4490 -1.2526
 6075TIP3    H242421   5.559   1.742  12.202  1.1307  0.5069 -0.6695
 6076TIP3   OH242422   1.056   6.390  11.929  0.3576  0.7994  0.1479
 6076TIP3    H142423   1.047   6.470  11.878 -2.3404  1.9207  2.1609
 6076TIP3    H242424   1.054   6.320  11.863 -1.1137  2.2253 -1.4272
 6077TIP3   OH242425   6.374   7.621  13.085  0.0841  0.5779 -0.3171
 6077TIP3    H142426   6.432   7.546  13.075  2.0366  2.1836 -2.1648
 6077TIP3    H242427   6.374   7.663  12.998 -1.4262  2.3516  0.4724
 6078TIP3   OH242428   0.178   4.036  11.390  0.1756  0.3288  0.4468
 6078TIP3    H142429   0.260   4.069  11.354 -1.5475  1.6963 -2.6111
 6078TIP3    H242430   0.146   3.973  11.325 -2.5532  2.0665 -0.0690
 6079TIP3   OH242431   0.200   4.425  11.741  0.0066 -0.6124 -0.1583
 6079TIP3    H142432   0.208   4.378  11.658  2.1715 -1.0030  0.1946
 6079TIP3    H242433   0.206   4.356  11.808 -1.0211 -0.2312  0.3479
 6080TIP3   OH242434   2.327   7.564  11.110  0.3146  0.3698 -0.3336
 6080TIP3    H142435   2.349   7.647  11.151  0.2164  0.5930 -0.7338
 6080TIP3    H242436   2.385   7.558  11.034  1.9035 -0.9448  0.8813
 6081TIP3   OH242437   0.622   3.590  11.089  0.2160  0.1959  0.5497
 6081TIP3    H142438   0.614   3.658  11.022 -2.1462  1.6297  2.1382
 6081TIP3    H242439   0.634   3.639  11.171  2.6965 -1.4877  1.3168
 6082TIP3   OH242440   6.777   4.854  11.913 -0.0359  0.3360  0.5604
 6082TIP3    H142441   6.698   4.885  11.957 -1.9480 -2.5593 -0.5099
 6082TIP3    H242442   6.745   4.809  11.835  2.9204  1.3363 -1.3979
 6083TIP3   OH242443   2.187   4.818  12.117  0.0147  0.0354 -0.1284
 6083TIP3    H142444   2.229   4.895  12.079 -0.3259 -0.2174 -1.0475
 6083TIP3    H242445   2.175   4.759  12.043  0.0437 -0.7973  0.5242
 6084TIP3   OH242446   1.466   1.829  11.171  0.0054 -0.3877 -0.3301
 6084TIP3    H142447   1.472   1.802  11.079  0.6529 -1.3168 -0.0268
 6084TIP3    H242448   1.477   1.748  11.221  0.1962  0.1856  0.5792
 6085TIP3   OH242449   7.241   2.424  12.343 -0.7622  0.0688 -0.0760
 6085TIP3    H142450   7.239   2.359  12.274 -0.2591 -1.8530  1.6183
 6085TIP3    H242451   7.317   2.479  12.322  0.0623 -1.1730 -0.4907
 6086TIP3   OH242452   6.351   3.325  12.088  0.2166  0.0970  0.3744
 6086TIP3    H142453   6.331   3.313  11.995  0.0005  0.4278  0.3809
 6086TIP3    H242454   6.397   3.244  12.112 -0.5921 -0.4151  0.2247
 6087TIP3   OH242455   3.981   1.768  11.025 -0.3937  0.1318  0.5365
 6087TIP3    H142456   3.913   1.794  11.087  2.1950  0.4161  3.5109
 6087TIP3    H242457   4.059   1.814  11.055  1.1481 -0.1037 -2.7665
 6088TIP3   OH242458   6.536   5.045  11.939  0.1078 -0.4750 -0.2281
 6088TIP3    H142459   6.493   5.007  11.862 -0.7080 -0.2779  0.1201
 6088TIP3    H242460   6.472   5.037  12.009  1.2252 -1.5726  0.7032
 6089TIP3   OH242461   0.413   1.073  10.751  0.3354  0.7696 -0.0275
 6089TIP3    H142462   0.465   1.017  10.810  2.1170  2.3981  0.0623
 6089TIP3    H242463   0.347   1.113  10.807  1.3543  1.4985  0.6938
 6090TIP3   OH242464   6.137   5.973  10.663  0.1064  0.5236  0.4262
 6090TIP3    H142465   6.222   5.948  10.627 -0.0846  1.0551 -0.4235
 6090TIP3    H242466   6.149   6.064  10.692 -0.8328  1.5089 -2.0279
 6091TIP3   OH242467   7.238   1.991  11.010  0.6395 -0.3167  1.2862
 6091TIP3    H142468   7.271   2.071  10.970  1.7594 -1.3495  0.0321
 6091TIP3    H242469   7.161   1.968  10.956  0.1173  0.0735  1.8518
 6092TIP3   OH242470   0.674   6.157  11.287 -0.0377  0.1592 -0.3850
 6092TIP3    H142471   0.657   6.160  11.381  2.0362 -1.5661  0.1074
 6092TIP3    H242472   0.588   6.147  11.247 -0.7986 -1.2225  1.4830
 6093TIP3   OH242473   3.450   0.898  11.572  0.3893  0.0892 -0.3106
 6093TIP3    H142474   3.454   0.914  11.478 -1.0085 -0.1721 -0.4375
 6093TIP3    H242475   3.443   0.985  11.611  0.7020  0.1842 -0.4634
 6094TIP3   OH242476   5.104   3.505  10.975 -0.3550  0.5599 -0.0371
 6094TIP3    H142477   5.086   3.594  10.944  1.4842  0.7222 -0.7290
 6094TIP3    H242478   5.043   3.492  11.048 -0.3840  2.5197  0.3228
 6095TIP3   OH242479   7.364   4.833  10.745 -0.0414  0.1721  0.3804
 6095TIP3    H142480   7.337   4.915  10.787  0.4600  0.0428  0.9702
 6095TIP3    H242481   7.291   4.773  10.759 -1.0339  0.9370 -1.3157
 6096TIP3   OH242482   2.937   0.252  10.242  0.6248 -0.3843  0.0364
 6096TIP3    H142483   2.872   0.252  10.173 -0.1070  0.3230  0.7106
 6096TIP3    H242484   2.923   0.169  10.289 -1.0215  0.5432  1.2833
 6097TIP3   OH242485   3.166   6.253  12.557 -0.1470  0.3354  0.6461
 6097TIP3    H142486   3.106   6.265  12.631  0.9008  1.4465  1.3575
 6097TIP3    H242487   3.195   6.342  12.535  1.2480 -0.1669  0.3422
 6098TIP3   OH242488   1.109   4.521  12.706  0.0833 -0.3107  0.2845
 6098TIP3    H142489   1.149   4.441  12.670  1.1974  0.0086  0.7571
 6098TIP3    H242490   1.154   4.592  12.660 -0.8848  0.0509 -0.1127
 6099TIP3   OH242491   1.916   2.883  13.376  0.0635 -0.0415 -0.8400
 6099TIP3    H142492   1.978   2.854  13.443 -0.7587 -0.9334 -0.4451
 6099TIP3    H242493   1.970   2.898  13.299  1.0728  1.2404  0.0603
 6100TIP3   OH242494   5.983   5.810  12.998  0.3925 -0.5365 -0.9284
 6100TIP3    H142495   6.061   5.865  13.003  1.2583 -1.8338  0.3339
 6100TIP3    H242496   5.933   5.832  13.077  0.7520 -1.5653 -0.4106
 6101TIP3   OH242497   2.822   1.956  10.759 -0.6138  0.4352 -0.3094
 6101TIP3    H142498   2.911   1.923  10.774 -0.5169  0.2310 -1.3061
 6101TIP3    H242499   2.770   1.916  10.828 -0.0980 -0.1551 -0.2576
 6102TIP3   OH242500   2.198   5.872  12.074 -0.0699  0.1758 -0.5647
 6102TIP3    H142501   2.170   5.825  11.996 -2.0260 -2.3950  1.5274
 6102TIP3    H242502   2.139   5.843  12.143  1.7007  2.1293  1.9815
 6103TIP3   OH242503   1.563   1.105  10.813 -0.0027  0.0222 -0.3697
 6103TIP3    H142504   1.599   1.090  10.726  0.3809  3.0636 -0.8533
 6103TIP3    H242505   1.534   1.197  10.811 -1.2915 -0.2450  2.2629
 6104TIP3   OH242506   3.275   6.263  12.116 -0.8091 -0.4968 -0.0385
 6104TIP3    H142507   3.321   6.347  12.113  0.2743 -1.0892 -0.6895
 6104TIP3    H242508   3.311   6.213  12.043 -0.7487 -1.8755  0.8916
 6105TIP3   OH242509   4.119   1.970  10.787  0.2436 -0.5274 -0.3459
 6105TIP3    H142510   4.143   2.049  10.739 -0.5103 -1.0277 -1.5986
 6105TIP3    H242511   4.081   2.003  10.869 -0.9408  0.4636 -1.2513
 6106TIP3   OH242512   0.135   5.758  11.316  0.5203 -0.2961  0.0756
 6106TIP3    H142513   0.165   5.838  11.359  1.5495 -1.4740  1.6218
 6106TIP3    H242514   0.088   5.789  11.238 -0.6518  1.8661  1.5486
 6107TIP3   OH242515   6.692   2.390  11.097 -0.3131  0.1990 -0.2755
 6107TIP3    H142516   6.680   2.460  11.161 -0.0226 -0.8559  0.9669
 6107TIP3    H242517   6.767   2.340  11.130 -0.3577 -0.5666 -1.2772
 6108TIP3   OH242518   6.903   1.735  13.253 -0.1126 -0.1353 -0.1548
 6108TIP3    H142519   6.818   1.715  13.214 -0.7388 -0.4272  1.2986
 6108TIP3    H242520   6.939   1.805  13.199 -1.7512  0.7425 -0.1585
 6109TIP3   OH242521   0.752   2.514  11.839  0.0686 -0.0690 -0.1716
 6109TIP3    H142522   0.752   2.523  11.744  3.0546 -0.1583 -0.2915
 6109TIP3    H242523   0.680   2.570  11.869 -0.3395  0.6963 -2.4202
 6110TIP3   OH242524   2.910   3.500  10.646  0.4301 -0.1054 -0.2332
 6110TIP3    H142525   2.845   3.565  10.622  0.9032  0.3108 -0.3891
 6110TIP3    H242526   2.918   3.508  10.741 -0.1165 -0.5108 -0.1480
 6111TIP3   OH242527   3.898   3.372  10.954  0.5017 -0.2168  0.8021
 6111TIP3    H142528   3.948   3.394  10.876 -2.7921  0.1438 -1.4175
 6111TIP3    H242529   3.932   3.286  10.981  3.5781  0.8751  0.7682
 6112TIP3   OH242530   2.658   5.389  12.527 -0.6928  0.0528  0.4729
 6112TIP3    H142531   2.682   5.296  12.534  1.2499  0.6161  2.4720
 6112TIP3    H242532   2.590   5.400  12.593 -1.8429 -0.1678 -0.6404
 6113TIP3   OH242533   5.685   3.170  10.597 -0.1147  0.3700  0.4309
 6113TIP3    H142534   5.704   3.149  10.505 -1.5006  0.9181 -0.0136
 6113TIP3    H242535   5.756   3.129  10.646 -0.4815 -1.8020 -0.7100
 6114TIP3   OH242536   1.657   4.545  13.512  0.9343 -0.4576  0.2611
 6114TIP3    H142537   1.669   4.564  13.419 -3.8440  0.1476 -0.4747
 6114TIP3    H242538   1.670   4.629  13.555  1.7438 -0.4275 -0.0218
 6115TIP3   OH242539   4.645   6.163  12.918 -0.0375  0.3804 -0.0132
 6115TIP3    H142540   4.630   6.246  12.872 -0.7200 -0.1303 -0.7243
 6115TIP3    H242541   4.728   6.176  12.964  1.9784  0.1214 -3.2279
 6116TIP3   OH242542   7.101   4.036  12.412 -0.4060 -0.5056  0.2125
 6116TIP3    H142543   7.126   3.985  12.489 -1.1392  1.7513  2.0443
 6116TIP3    H242544   7.030   3.985  12.373 -0.1337 -1.6218  1.0865
 6117TIP3   OH242545   0.288   3.492  10.302  0.0851  0.6834  0.1085
 6117TIP3    H142546   0.221   3.560  10.312  0.0694  0.6191  0.4822
 6117TIP3    H242547   0.252   3.431  10.238 -0.0055  0.9033 -0.0487
 6118TIP3   OH242548   0.617   2.331  12.746 -0.5981  0.7493  0.1867
 6118TIP3    H142549   0.547   2.395  12.732 -0.7129  0.5129 -0.3417
 6118TIP3    H242550   0.595   2.289  12.829 -1.7472 -0.1578 -0.5421
 6119TIP3   OH242551   6.562   1.036  12.618 -0.1424 -0.4591  0.5643
 6119TIP3    H142552   6.644   1.077  12.589  0.0115  0.1153  1.7622
 6119TIP3    H242553   6.539   1.081  12.699 -2.4518  0.4306 -0.4935
 6120TIP3   OH242554   5.349   1.848  13.252  0.1300 -0.6985  0.1992
 6120TIP3    H142555   5.393   1.799  13.182  1.2496  0.1602  0.2799
 6120TIP3    H242556   5.412   1.852  13.323 -0.2016  0.2639  0.4577
 6121TIP3   OH242557   6.150   2.446  11.216  0.2597  0.6324 -0.1571
 6121TIP3    H142558   6.116   2.359  11.235 -0.0471  0.9116  0.6111
 6121TIP3    H242559   6.171   2.444  11.122 -0.6398  0.0433 -0.3559
 6122TIP3   OH242560   3.195   7.514  12.337  0.1484  0.0212  0.1042
 6122TIP3    H142561   3.162   7.425  12.347  0.5193 -0.0416  0.8081
 6122TIP3    H242562   3.268   7.520  12.398 -0.0565  0.9057  0.2807
 6123TIP3   OH242563   2.183   6.254  12.080  0.3772 -0.6959 -0.7300
 6123TIP3    H142564   2.220   6.328  12.129  0.1701 -0.9465 -0.1835
 6123TIP3    H242565   2.259   6.203  12.053  0.4470 -1.5062  0.8573
 6124TIP3   OH242566   1.323   1.552  12.245  0.4745  0.4350  0.5169
 6124TIP3    H142567   1.278   1.546  12.160 -0.7821  0.8321  1.1385
 6124TIP3    H242568   1.264   1.509  12.307  2.2392 -1.6035  0.9210
 6125TIP3   OH242569   5.827   2.425  11.212 -0.1909 -0.0474  0.4177
 6125TIP3    H142570   5.867   2.373  11.282  0.1219 -0.2521  0.0890
 6125TIP3    H242571   5.868   2.394  11.132  0.0681  0.7701  0.2219
 6126TIP3   OH242572   1.366   5.588  10.875 -0.4113 -0.5608 -0.2910
 6126TIP3    H142573   1.291   5.642  10.849 -0.2175 -0.3400 -0.4032
 6126TIP3    H242574   1.354   5.574  10.969 -1.9155 -2.6179 -0.7108
 6127TIP3   OH242575   4.440   5.681  11.055 -0.5740 -0.0972 -0.3881
 6127TIP3    H142576   4.469   5.590  11.059  0.2020  0.1645  0.0417
 6127TIP3    H242577   4.516   5.729  11.021 -0.5703  0.5665  0.5310
 6128TIP3   OH242578   3.803   2.682  12.469  0.2616 -0.1051  0.3044
 6128TIP3    H142579   3.814   2.605  12.524  0.6829  0.9812  1.7906
 6128TIP3    H242580   3.890   2.697  12.431  0.5720  0.4832  1.2065
 6129TIP3   OH242581   3.622   2.422  10.764 -0.0115 -0.2652  0.0233
 6129TIP3    H142582   3.647   2.499  10.713 -1.9620 -0.8625 -1.9814
 6129TIP3    H242583   3.681   2.353  10.733 -1.2216 -0.6367 -1.5464
 6130TIP3   OH242584   0.804   3.806  12.577  0.0791 -0.0996 -0.6745
 6130TIP3    H142585   0.841   3.886  12.613  2.1854 -0.7660 -1.2222
 6130TIP3    H242586   0.775   3.756  12.653  4.0649 -1.3016  0.2754
 6131TIP3   OH242587   7.121   1.587  13.368 -0.2258 -0.6764  0.1960
 6131TIP3    H142588   7.124   1.498  13.334 -1.3588 -0.1565 -1.3606
 6131TIP3    H242589   7.047   1.628  13.323  0.1686  1.0083  0.9930
 6132TIP3   OH242590   3.282   0.861  13.363  0.3429  0.3578 -0.3799
 6132TIP3    H142591   3.249   0.773  13.381  1.2480  0.2353  0.7572
 6132TIP3    H242592   3.235   0.887  13.284 -0.5610 -0.8098 -0.2718
 6133TIP3   OH242593   0.547   7.088  12.511 -0.3582 -0.0144 -0.3678
 6133TIP3    H142594   0.514   7.088  12.601 -0.4093 -1.3874 -0.3702
 6133TIP3    H242595   0.603   7.166  12.506 -0.2815  0.0252  0.8774
 6134TIP3   OH242596   4.533   4.830  12.662 -0.5516 -0.0435 -0.6890
 6134TIP3    H142597   4.457   4.864  12.709 -0.9411 -0.9311 -0.6511
 6134TIP3    H242598   4.496   4.783  12.588 -0.0995 -1.3560 -0.1057
 6135TIP3   OH242599   6.392   6.083  11.578 -0.0872 -0.0520 -0.3849
 6135TIP3    H142600   6.449   6.122  11.512  0.2610 -0.0712 -0.0945
 6135TIP3    H242601   6.356   6.005  11.536 -0.5296  0.3968 -0.8505
 6136TIP3   OH242602   0.436   5.906  11.295  0.5820 -0.0385  0.8202
 6136TIP3    H142603   0.474   5.905  11.383  0.9618  0.7552  0.6779
 6136TIP3    H242604   0.509   5.888  11.237  0.4928  0.2365  0.6224
 6137TIP3   OH242605   0.142   0.943  11.032  0.7208 -0.4387  0.1218
 6137TIP3    H142606   0.098   0.955  10.949  0.4180  0.9794  0.4637
 6137TIP3    H242607   0.072   0.938  11.097  0.9667  2.5029  0.7539
 6138TIP3   OH242608   7.613   7.481  11.012  0.0668 -0.2253  0.0163
 6138TIP3    H142609   7.544   7.416  11.024 -0.7063  0.8493  1.7637
 6138TIP3    H242610   7.650   7.494  11.099  1.9849 -0.1892 -0.7470
 6139TIP3   OH242611   1.341   4.580  11.078 -0.0051 -0.7807 -0.1651
 6139TIP3    H142612   1.346   4.663  11.127 -1.6987 -0.7824  0.0564
 6139TIP3    H242613   1.395   4.595  11.001  1.4812 -0.2370  0.9283
 6140TIP3   OH242614   7.302   5.952  11.341 -0.0936 -0.4036 -0.0278
 6140TIP3    H142615   7.356   6.028  11.359  1.3024 -0.9770 -1.5259
 6140TIP3    H242616   7.320   5.931  11.249 -1.6164 -1.6116 -0.0928
 6141TIP3   OH242617   6.554   4.771  12.086  0.3298 -0.8599 -0.0270
 6141TIP3    H142618   6.473   4.767  12.137  0.2268  0.5374 -0.0491
 6141TIP3    H242619   6.534   4.723  12.005 -0.5503 -0.3380 -0.1290
 6142TIP3   OH242620   0.247   0.655  11.807 -0.3878 -0.1602 -0.0634
 6142TIP3    H142621   0.314   0.587  11.810 -0.1008  0.1462  1.3535
 6142TIP3    H242622   0.216   0.655  11.716 -0.6912 -2.4418 -0.0130
 6143TIP3   OH242623   1.539   6.150  12.595 -0.3375  0.2513  0.3462
 6143TIP3    H142624   1.518   6.061  12.626  0.9827 -0.8028 -1.5686
 6143TIP3    H242625   1.634   6.149  12.585 -0.4540  1.4006 -1.1379
 6144TIP3   OH242626   3.686   3.195  11.507 -0.3500  0.3697 -0.1362
 6144TIP3    H142627   3.628   3.270  11.516  2.3917  2.6347  0.2543
 6144TIP3    H242628   3.734   3.191  11.590 -0.5924 -2.0467 -0.0362
 6145TIP3   OH242629   3.988   6.531  11.830 -0.2615  0.0513 -0.0728
 6145TIP3    H142630   3.934   6.588  11.885 -0.4939  0.0466 -0.2958
 6145TIP3    H242631   3.970   6.442  11.863  0.4401  0.1356  0.5699
 6146TIP3   OH242632   3.941   1.274  11.676  0.1736 -0.3074  0.1098
 6146TIP3    H142633   3.891   1.201  11.639 -0.3103  0.6488 -1.1833
 6146TIP3    H242634   3.903   1.352  11.636 -0.2999  0.8084  2.5486
 6147TIP3   OH242635   0.204   0.854  12.857  0.1861 -0.3008  0.0526
 6147TIP3    H142636   0.255   0.779  12.826 -0.2738 -0.3347 -0.6397
 6147TIP3    H242637   0.183   0.833  12.948  0.7565 -0.6340  0.1138
 6148TIP3   OH242638   5.939   5.036  10.811  0.7213 -0.7172  0.3818
 6148TIP3    H142639   5.894   5.001  10.888 -0.5617 -1.3519 -0.6112
 6148TIP3    H242640   5.946   4.961  10.751  0.3173  0.0925 -0.7227
 6149TIP3   OH242641   5.397   4.835  10.531 -0.8303 -0.3295  0.3023
 6149TIP3    H142642   5.380   4.754  10.580 -1.5248  0.7462  1.9317
 6149TIP3    H242643   5.324   4.893  10.554  0.0680  1.0580 -0.1808
 6150TIP3   OH242644   6.568   1.641  10.879  0.4003  0.1499  0.1889
 6150TIP3    H142645   6.507   1.693  10.826 -1.6069 -1.4644  0.7870
 6150TIP3    H242646   6.639   1.702  10.900 -0.6153  1.9093 -1.1877
 6151TIP3   OH242647   0.545   2.701  11.164 -0.0180  0.1664  0.4128
 6151TIP3    H142648   0.620   2.755  11.140 -0.2682  1.2458  1.8675
 6151TIP3    H242649   0.505   2.676  11.081  1.9103 -0.3953 -0.3835
 6152TIP3   OH242650   2.928   7.328  12.354  0.3777 -0.5094 -0.6428
 6152TIP3    H142651   2.925   7.349  12.261  1.1438 -0.5108 -0.6734
 6152TIP3    H242652   2.983   7.250  12.360  2.1609  0.7349 -0.0044
 6153TIP3   OH242653   0.670   2.710  10.845 -0.1794 -0.2989 -0.2611
 6153TIP3    H142654   0.651   2.795  10.885  2.6965 -0.3660  1.5133
 6153TIP3    H242655   0.726   2.731  10.770  0.5242 -0.5876  0.1718
 6154TIP3   OH242656   3.411   5.481  11.897 -0.0434 -0.5737  0.2409
 6154TIP3    H142657   3.431   5.426  11.973 -1.9055  1.2108  2.1582
 6154TIP3    H242658   3.361   5.423  11.839  0.5323 -1.7021  0.8229
 6155TIP3   OH242659   5.371   4.736  10.976 -0.0458 -0.0412 -0.4142
 6155TIP3    H142660   5.281   4.714  10.953  0.3203  0.4300 -2.5398
 6155TIP3    H242661   5.364   4.822  11.017 -0.5586  0.1178 -0.8152
 6156TIP3   OH242662   4.125   4.725  11.587  0.4259 -0.5070  0.1697
 6156TIP3    H142663   4.177   4.649  11.614  1.5251 -0.6779 -2.1820
 6156TIP3    H242664   4.185   4.799  11.594 -0.2952 -0.0030  1.3373
 6157TIP3   OH242665   5.151   6.207  11.750 -0.1405 -0.1691 -0.3227
 6157TIP3    H142666   5.183   6.209  11.660 -0.9638  0.3139 -0.6106
 6157TIP3    H242667   5.171   6.294  11.785 -0.6088 -0.0650 -0.3168
 6158TIP3   OH242668   5.132   4.154  11.046 -0.0451 -0.1017  0.4343
 6158TIP3    H142669   5.038   4.154  11.028 -0.2739  0.7416  1.5193
 6158TIP3    H242670   5.172   4.116  10.968 -1.2893 -0.5043 -0.0216
 6159TIP3   OH242671   6.423   0.356  12.957 -0.3056 -0.0776 -0.2848
 6159TIP3    H142672   6.435   0.343  13.051 -0.1827  1.0686 -0.1289
 6159TIP3    H242673   6.354   0.295  12.934  1.1345 -1.9517  0.1065
 6160TIP3   OH242674   3.418   6.598  10.778 -0.4598  0.2765 -0.2068
 6160TIP3    H142675   3.452   6.626  10.693  0.1072  2.3919  0.6465
 6160TIP3    H242676   3.467   6.650  10.842 -2.0487 -0.0247  1.3328
 6161TIP3   OH242677   4.253   6.645  13.205  0.0903  0.1120  0.2177
 6161TIP3    H142678   4.282   6.571  13.258  1.3583 -1.0863 -1.9710
 6161TIP3    H242679   4.158   6.636  13.201  0.1221 -0.6922  0.9640
 6162TIP3   OH242680   0.281   5.197  11.731 -0.5711  0.0426 -0.3471
 6162TIP3    H142681   0.345   5.220  11.798 -1.3280 -0.3987  0.5507
 6162TIP3    H242682   0.297   5.104  11.714  0.6336  0.4916 -1.9328
 6163TIP3   OH242683   5.787   0.620  11.677  0.0535 -0.2491  0.5845
 6163TIP3    H142684   5.880   0.638  11.664  0.3048 -0.2818  2.0749
 6163TIP3    H242685   5.784   0.527  11.701 -0.0691  0.2313  2.6565
 6164TIP3   OH242686   5.570   6.419  12.338 -0.0378  0.3420 -0.0863
 6164TIP3    H142687   5.501   6.415  12.404 -0.3840  1.0672 -0.3937
 6164TIP3    H242688   5.530   6.385  12.258  0.2252 -0.0528 -0.0517
 6165TIP3   OH242689   5.727   6.948  11.903 -0.6917 -0.1935 -0.6845
 6165TIP3    H142690   5.806   6.927  11.952 -1.4970 -0.8364  0.3677
 6165TIP3    H242691   5.744   6.914  11.815  1.0592  1.6208 -1.1239
 6166TIP3   OH242692   3.718   4.919  11.226  0.3313  0.0838  0.8381
 6166TIP3    H142693   3.770   4.983  11.274  0.6808 -0.2586  0.9168
 6166TIP3    H242694   3.668   4.874  11.294  0.6086 -0.2029  0.8516
 6167TIP3   OH242695   7.577   2.737  10.526  0.2922 -0.2140 -0.1955
 6167TIP3    H142696   7.620   2.755  10.610  1.5863  1.3648 -1.1310
 6167TIP3    H242697   7.498   2.689  10.549  1.0228 -0.5234  1.8564
 6168TIP3   OH242698   2.255   3.233  10.957 -0.0764  0.1083 -0.0328
 6168TIP3    H142699   2.333   3.233  10.900 -0.0130  1.1363  0.0455
 6168TIP3    H242700   2.226   3.141  10.956 -0.1027  0.0885 -1.7682
 6169TIP3   OH242701   1.224   3.754  18.261 -0.1449 -0.3677  0.2783
 6169TIP3    H142702   1.251   3.710  18.181  0.8172  0.7256 -0.0209
 6169TIP3    H242703   1.129   3.746  18.262 -0.3004  0.8140 -1.7100
 6170TIP3   OH242704   4.613   0.790  11.945 -0.5249 -0.4946 -0.6717
 6170TIP3    H142705   4.631   0.813  11.854  0.2994  1.5886 -0.0501
 6170TIP3    H242706   4.640   0.699  11.953  4.2589  0.6129 -1.3751
 6171TIP3   OH242707   2.732   4.202  12.199  0.0890 -0.1219  0.0906
 6171TIP3    H142708   2.798   4.269  12.182  0.1277  0.7339  3.0561
 6171TIP3    H242709   2.649   4.249  12.191 -0.0469 -0.5062 -0.8467
 6172TIP3   OH242710   6.552   1.707  11.480  0.0059  0.7594  0.1987
 6172TIP3    H142711   6.642   1.711  11.512  0.6704  0.9574 -1.5698
 6172TIP3    H242712   6.550   1.767  11.405 -2.0986  2.1614  1.2797
 6173TIP3   OH242713   0.524   2.165  12.938  0.0273  0.2116  0.3224
 6173TIP3    H142714   0.440   2.144  12.981  0.0485 -0.6789 -0.0332
 6173TIP3    H242715   0.589   2.117  12.988  0.0426 -0.9167 -0.7250
 6174TIP3   OH242716   2.224   5.548  12.424  0.0416  0.0743 -0.4450
 6174TIP3    H142717   2.300   5.591  12.464  0.3850 -0.6554 -0.3052
 6174TIP3    H242718   2.250   5.457  12.415 -0.2431  0.1117 -1.8198
 6175TIP3   OH242719   5.997   7.393  11.890 -0.1636 -0.0560 -0.3730
 6175TIP3    H142720   5.992   7.475  11.939  1.2660 -2.1290  3.8016
 6175TIP3    H242721   6.070   7.405  11.829  1.0887  1.3282  1.2911
 6176TIP3   OH242722   3.879   2.353  12.118  0.1216  0.4402 -0.1044
 6176TIP3    H142723   3.949   2.377  12.179 -0.2700 -0.5543  0.7693
 6176TIP3    H242724   3.909   2.385  12.033  1.6047  0.0889  0.2606
 6177TIP3   OH242725   0.104   6.892  11.638 -0.1585 -0.3877  0.0800
 6177TIP3    H142726   0.032   6.946  11.670 -1.3046 -1.5668 -0.3967
 6177TIP3    H242727   0.063   6.808  11.619  1.6243 -1.5582  1.1406
 6178TIP3   OH242728   0.203   3.155  11.027  0.2171  0.6428 -0.2256
 6178TIP3    H142729   0.279   3.132  11.080 -0.2327  1.6592  0.9209
 6178TIP3    H242730   0.187   3.248  11.047 -2.1875  0.1165  0.7655
 6179TIP3   OH242731   5.083   1.769  12.464 -0.8028 -0.4781  0.2382
 6179TIP3    H142732   5.110   1.687  12.504 -1.3334 -0.9742 -0.3954
 6179TIP3    H242733   5.149   1.786  12.397  0.8556  1.0495  2.1215
 6180TIP3   OH242734   4.691   2.448  11.756  0.4533  0.5812  0.0890
 6180TIP3    H142735   4.598   2.471  11.751  0.7716  1.7145 -1.3390
 6180TIP3    H242736   4.702   2.412  11.844 -1.5537 -0.6163 -0.0854
 6181TIP3   OH242737   4.777   0.267  11.814 -0.1616  0.0035  0.1546
 6181TIP3    H142738   4.755   0.174  11.804 -0.8129 -0.0134  1.5101
 6181TIP3    H242739   4.780   0.301  11.724 -0.2313 -1.2546 -0.3391
 6182TIP3   OH242740   0.544   7.328  11.047  0.4929  0.2493 -0.2237
 6182TIP3    H142741   0.527   7.311  11.140  0.5628 -0.7470 -0.3850
 6182TIP3    H242742   0.458   7.352  11.011  0.7162  2.1983  0.3870
 6183TIP3   OH242743   3.018   6.505  10.763  0.1641  0.5267 -0.6459
 6183TIP3    H142744   2.925   6.512  10.741 -0.1660  0.0759  0.5256
 6183TIP3    H242745   3.056   6.451  10.694 -0.5240  0.3892 -0.9228
 6184TIP3   OH242746   2.449   0.045  10.562 -0.1845  0.2317 -0.3390
 6184TIP3    H142747   2.495  -0.003  10.493 -2.2850  0.3224 -1.9368
 6184TIP3    H242748   2.360   0.010  10.559 -0.4370  0.4751  2.1785
 6185TIP3   OH242749   4.799   2.366  10.517 -1.0007 -0.0252 -0.2228
 6185TIP3    H142750   4.831   2.435  10.458 -1.3246  0.1940 -0.1441
 6185TIP3    H242751   4.814   2.401  10.604  0.0035 -0.5863 -0.1541
 6186TIP3   OH242752   5.016   3.076  11.117  0.1553 -0.2927 -0.2953
 6186TIP3    H142753   4.988   3.159  11.157 -0.6426 -0.5327 -0.3437
 6186TIP3    H242754   5.020   3.015  11.190 -0.7671 -0.5919 -0.4759
 6187TIP3   OH242755   3.139   1.908  11.786 -0.6306  0.3002 -0.5637
 6187TIP3    H142756   3.231   1.905  11.812 -0.8763  1.6475  0.6107
 6187TIP3    H242757   3.136   1.859  11.704  1.4112  1.4973 -1.4469
 6188TIP3   OH242758   1.231   4.577  10.653 -0.3996 -0.1088  0.1300
 6188TIP3    H142759   1.172   4.562  10.579 -1.8364  0.5132  1.0882
 6188TIP3    H242760   1.172   4.603  10.725  1.0668  0.5909  1.1206
 6189TIP3   OH242761   2.521   6.550  12.636  0.3915 -0.7855 -0.2270
 6189TIP3    H142762   2.487   6.609  12.569  0.4590  0.6573  0.9526
 6189TIP3    H242763   2.473   6.573  12.716  4.2768  1.7678  1.6988
 6190TIP3   OH242764   7.012   2.184  11.607 -0.4826  0.2110  0.3983
 6190TIP3    H142765   6.952   2.252  11.638 -0.0504  1.0513 -0.5418
 6190TIP3    H242766   6.966   2.102  11.624 -2.2967  0.8620 -1.0388
 6191TIP3   OH242767   4.228   5.587  11.955  0.0821  0.3103  0.1536
 6191TIP3    H142768   4.194   5.560  11.869  2.2010  0.9043 -0.9506
 6191TIP3    H242769   4.152   5.581  12.013 -1.1470 -1.3363 -1.4661
 6192TIP3   OH242770   4.360   4.507  11.263 -0.1056 -0.4073  0.1932
 6192TIP3    H142771   4.290   4.514  11.198  0.7089  0.7430 -0.6148
 6192TIP3    H242772   4.392   4.597  11.273  0.8643 -0.8226  0.9864
 6193TIP3   OH242773   3.776   1.002  12.377  0.5846  0.5323 -0.2787
 6193TIP3    H142774   3.788   0.917  12.333 -1.7516 -0.0481  0.0926
 6193TIP3    H242775   3.786   0.982  12.470 -1.1634  0.3718 -0.0945
 6194TIP3   OH242776   5.959   4.151  11.167 -0.5954 -1.0070 -0.8687
 6194TIP3    H142777   5.998   4.107  11.092  0.1984 -0.3727 -0.8468
 6194TIP3    H242778   5.950   4.242  11.140 -0.1678 -0.7387 -0.1547
 6195TIP3   OH242779   7.306   5.442  11.309 -0.6865  1.3768 -0.2873
 6195TIP3    H142780   7.355   5.362  11.292 -0.7785  1.7226 -2.3759
 6195TIP3    H242781   7.217   5.412  11.328 -0.4346  0.9304  0.2152
 6196TIP3   OH242782   3.994   0.014  11.092  0.3923  0.0791  0.4973
 6196TIP3    H142783   4.023   0.101  11.119 -0.3879  0.5748 -0.1838
 6196TIP3    H242784   3.901   0.013  11.114  0.0002  0.0695 -1.0354
 6197TIP3   OH242785   5.613   0.200  13.421 -0.5752 -0.0057  0.1427
 6197TIP3    H142786   5.648   0.231  13.338  1.7759 -2.0686  0.2590
 6197TIP3    H242787   5.673   0.235  13.487 -1.3485  0.0803  0.8191
 6198TIP3   OH242788   5.637   5.311  10.495 -0.0900  0.5062 -0.7144
 6198TIP3    H142789   5.669   5.244  10.555 -0.2573  1.2715  0.2625
 6198TIP3    H242790   5.650   5.274  10.408  0.2971 -0.5717 -0.2135
 6199TIP3   OH242791   0.394   3.504  10.888 -0.1019  0.5191  0.1850
 6199TIP3    H142792   0.383   3.455  10.970  0.9943  2.6577  1.7026
 6199TIP3    H242793   0.480   3.544  10.895  0.2762  0.3182 -2.3311
 6200TIP3   OH242794   5.447   1.564  13.221 -0.0274  0.1887 -0.2229
 6200TIP3    H142795   5.490   1.629  13.166  0.4052  0.3162  0.2551
 6200TIP3    H242796   5.485   1.577  13.308  1.5463 -1.9865 -0.4996
 6201TIP3   OH242797   2.861   6.440  13.210  0.7003 -0.9908  0.0358
 6201TIP3    H142798   2.953   6.467  13.202  0.1546  0.9031 -0.3503
 6201TIP3    H242799   2.858   6.387  13.289  2.2347 -1.6114 -0.2860
 6202TIP3   OH242800   4.535   4.142  11.463  0.1021 -0.2130 -0.2768
 6202TIP3    H142801   4.613   4.086  11.460  0.4110  0.1194  0.8334
 6202TIP3    H242802   4.562   4.223  11.420 -0.1463 -0.6673 -1.3203
 6203TIP3   OH242803   6.866   3.054  12.140 -0.2276  0.0178  0.9004
 6203TIP3    H142804   6.882   3.144  12.167  0.7554  0.1240  0.0206
 6203TIP3    H242805   6.870   3.003  12.221  0.0865  0.6478  1.2819
 6204TIP3   OH242806   6.868   3.569  12.545  0.2016  0.5526 -0.7680
 6204TIP3    H142807   6.815   3.589  12.468  0.4157 -0.0598 -1.0809
 6204TIP3    H242808   6.959   3.583  12.516  0.6648 -3.5821 -1.9784
 6205TIP3   OH242809   0.677   6.862  12.445  0.0333  0.4007  0.4300
 6205TIP3    H142810   0.644   6.939  12.490 -1.0389 -0.8824  1.9237
 6205TIP3    H242811   0.756   6.838  12.493  1.3580  1.5059 -1.0858
 6206TIP3   OH242812   5.970   5.052  12.806 -0.2469  0.4824 -0.0064
 6206TIP3    H142813   6.025   5.113  12.757 -1.1802  1.0177 -0.4039
 6206TIP3    H242814   5.905   5.107  12.848 -0.8697 -0.1985 -0.0659
 6207TIP3   OH242815   0.818   0.930  12.245  0.1172 -0.4824  0.2386
 6207TIP3    H142816   0.808   0.849  12.195  1.6787 -0.4875 -0.1390
 6207TIP3    H242817   0.763   0.994  12.199 -0.6401 -1.1673  0.1753
 6208TIP3   OH242818   6.003   5.811  12.638 -0.4960 -0.0795 -0.2582
 6208TIP3    H142819   5.956   5.889  12.667 -3.3338 -1.6545 -0.2449
 6208TIP3    H242820   6.051   5.783  12.716 -0.2580  1.0617  0.0273
 6209TIP3   OH242821   4.865   3.782  12.201  0.1155  0.0442  0.1618
 6209TIP3    H142822   4.952   3.803  12.168  0.3598  0.0948  0.8246
 6209TIP3    H242823   4.857   3.832  12.282  0.1557 -1.2875  1.0285
 6210TIP3   OH242824   6.721   3.714  10.256 -0.1386  0.5093  0.0508
 6210TIP3    H142825   6.629   3.719  10.281  0.2698  2.9505  1.3375
 6210TIP3    H242826   6.763   3.666  10.328 -0.1522  0.8733  0.3031
 6211TIP3   OH242827   4.989   1.210  11.605  0.1383  0.1713 -0.4630
 6211TIP3    H142828   4.912   1.217  11.661 -0.1025  3.3069 -1.0151
 6211TIP3    H242829   5.051   1.274  11.641  1.9167 -1.2229 -0.9152
 6212TIP3   OH242830   1.106   5.884  13.298 -0.1016  0.5734  0.4174
 6212TIP3    H142831   1.168   5.938  13.344 -1.2025 -0.4623  3.3347
 6212TIP3    H242832   1.159   5.817  13.254  0.9875  1.7655 -0.1335
 6213TIP3   OH242833   3.998   3.272  11.711 -0.2779 -0.3447  0.6559
 6213TIP3    H142834   3.906   3.260  11.734  0.0785  0.5914  2.8298
 6213TIP3    H242835   4.016   3.364  11.727  1.0215 -0.4758  0.1337
 6214TIP3   OH242836   3.766   5.783  11.937 -0.8043 -0.0473  0.0271
 6214TIP3    H142837   3.820   5.848  11.981 -1.2864 -0.4514  1.2405
 6214TIP3    H242838   3.701   5.834  11.889 -0.4726  0.3926  0.0432
 6215TIP3   OH242839   3.884   4.025  11.515 -0.1128  0.1178  0.5975
 6215TIP3    H142840   3.858   3.959  11.451  0.3052 -1.4197  1.9418
 6215TIP3    H242841   3.973   4.000  11.539  0.4942  1.8810  0.3102
 6216TIP3   OH242842   7.333   1.012  11.782  0.1018  0.1510  0.2717
 6216TIP3    H142843   7.294   1.048  11.861  0.7553  1.5737 -0.0080
 6216TIP3    H242844   7.419   0.980  11.810 -0.1368 -0.4094  0.3601
 6217TIP3   OH242845   3.767   1.319  12.121 -0.4317  0.0757 -0.5689
 6217TIP3    H142846   3.758   1.299  12.027  1.7181  0.5283 -0.9359
 6217TIP3    H242847   3.678   1.335  12.151 -1.2441 -0.7535 -2.3879
 6218TIP3   OH242848   1.153   3.225  10.964  0.3249 -0.1026  0.1778
 6218TIP3    H142849   1.174   3.299  11.022  0.9259 -0.7888  0.8546
 6218TIP3    H242850   1.208   3.239  10.887 -0.0643  0.5127 -0.0011
 6219TIP3   OH242851   1.982   1.518  12.955 -0.5253 -0.6216  0.8417
 6219TIP3    H142852   1.930   1.578  13.008  0.6390  0.5201  0.7436
 6219TIP3    H242853   1.974   1.433  13.000 -0.8887 -0.0470  1.9007
 6220TIP3   OH242854   2.457   2.528  12.005  0.4184  0.6963  0.2106
 6220TIP3    H142855   2.510   2.464  12.052 -1.5326  0.8093  2.8184
 6220TIP3    H242856   2.468   2.609  12.055  2.4455  2.4325 -2.7248
 6221TIP3   OH242857   6.489   6.481  11.184 -0.3864 -0.2928  0.2409
 6221TIP3    H142858   6.482   6.499  11.278 -1.7823 -1.8643  0.4786
 6221TIP3    H242859   6.567   6.426  11.176 -1.0006 -1.2708  0.7026
 6222TIP3   OH242860   6.792   4.467  11.132 -0.4202 -0.1533  0.3145
 6222TIP3    H142861   6.719   4.411  11.103 -3.2839  2.5103  1.7771
 6222TIP3    H242862   6.798   4.535  11.065  2.1146 -1.2704 -0.7358
 6223TIP3   OH242863   4.447   0.429  11.289  0.5333 -0.1328  0.0251
 6223TIP3    H142864   4.514   0.493  11.314  0.2474 -0.4915  1.8164
 6223TIP3    H242865   4.373   0.482  11.261  0.9663  0.2943 -0.3207
 6224TIP3   OH242866   6.848   1.923  11.924 -0.0657  0.2442 -0.1985
 6224TIP3    H142867   6.938   1.918  11.957  0.1848  1.4689 -0.6648
 6224TIP3    H242868   6.856   1.904  11.830 -0.2245  0.8743 -0.3387
 6225TIP3   OH242869   3.265   5.048  11.658 -0.1667  0.2610 -0.1409
 6225TIP3    H142870   3.196   5.007  11.606  0.7064 -0.7674 -0.5243
 6225TIP3    H242871   3.273   4.991  11.735  0.2093  0.4097 -0.0688
 6226TIP3   OH242872   1.945   3.003  10.755  0.3528  0.1728  0.0644
 6226TIP3    H142873   1.974   2.961  10.836 -1.2999  1.2172  1.2769
 6226TIP3    H242874   1.944   3.096  10.776  1.0599  0.5840 -1.5847
 6227TIP3   OH242875   5.372   0.770  11.956  0.2693 -0.1017 -0.4194
 6227TIP3    H142876   5.298   0.812  11.911  0.3851  0.6066  0.0324
 6227TIP3    H242877   5.396   0.832  12.026 -0.3818 -1.5117  1.1098
 6228TIP3   OH242878   1.989   2.346  11.244  0.4527  0.0914 -0.3203
 6228TIP3    H142879   1.947   2.430  11.263  1.5716  0.3296  1.3681
 6228TIP3    H242880   1.922   2.281  11.265 -0.7118  0.5215 -2.4421
 6229TIP3   OH242881   2.296   1.462  11.999 -0.1836 -0.4847 -0.2089
 6229TIP3    H142882   2.361   1.404  12.039 -1.1627 -1.5425 -0.0807
 6229TIP3    H242883   2.346   1.539  11.972  1.2645 -1.5673 -0.8008
 6230TIP3   OH242884   6.989   4.547  12.316  0.2437 -0.2380  0.8280
 6230TIP3    H142885   6.928   4.575  12.247  0.6282  1.4871  1.1314
 6230TIP3    H242886   7.065   4.515  12.269  0.0237 -0.2115  0.4471
 6231TIP3   OH242887   4.731   1.012  12.587  0.5617 -0.1546 -0.1604
 6231TIP3    H142888   4.761   0.995  12.677  0.3771  2.7449  0.5563
 6231TIP3    H242889   4.636   1.001  12.591  0.4342  0.9761  0.3093
 6232TIP3   OH242890   3.514   1.139  10.427 -0.0718  0.1676 -0.3360
 6232TIP3    H142891   3.568   1.060  10.422  1.8631  1.4690 -1.3693
 6232TIP3    H242892   3.425   1.109  10.409  0.6394 -1.7236 -0.9450
 6233TIP3   OH242893   6.800   1.812  10.889 -0.1288 -0.7503 -0.3529
 6233TIP3    H142894   6.873   1.763  10.927 -0.1470  0.2701  1.0828
 6233TIP3    H242895   6.830   1.836  10.801  0.6558 -1.6302 -0.3355
 6234TIP3   OH242896   1.446   0.857  10.860  0.3054  0.2308 -0.1727
 6234TIP3    H142897   1.496   0.810  10.927 -0.4188 -0.2201  0.0649
 6234TIP3    H242898   1.494   0.939  10.847  0.5228  0.2726  0.8124
 6235TIP3   OH242899   1.826   0.369  11.263 -0.1925 -0.3558  0.1610
 6235TIP3    H142900   1.754   0.306  11.275 -0.6599  0.0189 -0.6087
 6235TIP3    H242901   1.876   0.334  11.190 -1.3577  0.9451 -1.3287
 6236TIP3   OH242902   3.533   3.021  12.557 -0.3226  0.1995  0.1836
 6236TIP3    H142903   3.554   3.023  12.463  0.2022  0.1879  0.2979
 6236TIP3    H242904   3.576   2.942  12.589 -0.2658  0.3565  0.4923
 6237TIP3   OH242905   0.859   1.853  12.421  0.3293  0.2029 -0.7129
 6237TIP3    H142906   0.893   1.939  12.396  0.0702  1.2203  2.0851
 6237TIP3    H242907   0.932   1.811  12.466 -0.1627 -0.2090 -0.2917
 6238TIP3   OH242908   7.237   1.707  13.627 -0.6241 -0.6081  0.0009
 6238TIP3    H142909   7.160   1.736  13.676 -0.7411 -1.1789  0.1585
 6238TIP3    H242910   7.201   1.664  13.549 -0.4508 -0.4013 -0.1969
 6239TIP3   OH242911   4.360   0.648  11.708 -0.1849 -0.0784 -0.3734
 6239TIP3    H142912   4.301   0.692  11.647 -0.8359 -0.7187 -0.2266
 6239TIP3    H242913   4.371   0.560  11.671  0.4632 -0.0542 -0.2544
 6240TIP3   OH242914   5.699   5.963  11.137  0.0118  0.5638 -0.0610
 6240TIP3    H142915   5.708   5.965  11.232 -0.3682  0.7291 -0.0260
 6240TIP3    H242916   5.780   5.924  11.105 -0.8419 -1.8179  0.4667
 6241TIP3   OH242917   6.630   6.380  10.761  0.2491  0.2702 -0.0741
 6241TIP3    H142918   6.552   6.419  10.801 -1.5831 -1.2588 -2.0087
 6241TIP3    H242919   6.696   6.450  10.767 -1.3386  1.7605  1.2653
 6242TIP3   OH242920   6.993   4.961  12.136  0.2779  0.0208 -0.3652
 6242TIP3    H142921   7.050   4.888  12.113 -1.5774 -1.2799 -1.1211
 6242TIP3    H242922   6.910   4.942  12.092 -1.1080  1.2395  1.5178
 6243TIP3   OH242923   4.977   4.358  11.776 -0.2274 -0.2341  0.3296
 6243TIP3    H142924   4.888   4.388  11.758 -0.9472 -2.6805 -0.6537
 6243TIP3    H242925   5.023   4.435  11.808 -2.4639  1.3030  0.0350
 6244TIP3   OH242926   4.430   2.096  11.065  0.1118 -0.2344  0.0485
 6244TIP3    H142927   4.404   2.167  11.124  0.8539  0.8777 -0.9207
 6244TIP3    H242928   4.523   2.111  11.050  0.3078 -1.5174 -0.0689
 6245TIP3   OH242929   0.600   3.237  11.760 -0.2885 -0.0870 -0.9890
 6245TIP3    H142930   0.639   3.163  11.713  2.0375 -0.8980  1.9061
 6245TIP3    H242931   0.535   3.196  11.818 -0.8906  0.4824 -1.2572
 6246TIP3   OH242932   2.287   1.635  10.510  0.0612 -0.4628  0.2032
 6246TIP3    H142933   2.286   1.712  10.454 -0.3647 -1.4804 -1.2428
 6246TIP3    H242934   2.256   1.564  10.454 -0.3708 -1.5345  1.7325
 6247TIP3   OH242935   1.527   4.589  13.016 -0.8712 -0.8784  0.0321
 6247TIP3    H142936   1.561   4.670  13.055 -1.4324 -1.3989  1.7125
 6247TIP3    H242937   1.470   4.617  12.945  0.4720  0.1166 -0.6826
 6248TIP3   OH242938   7.440   6.800  11.920  0.0621  0.0381  0.5735
 6248TIP3    H142939   7.495   6.723  11.931  1.4437  1.0605  1.2706
 6248TIP3    H242940   7.403   6.815  12.007 -0.7547 -0.2181  0.2785
 6249TIP3   OH242941   0.641   1.780  12.269  0.1531  0.1708  0.2139
 6249TIP3    H142942   0.574   1.811  12.330  1.2471  0.9257  1.0781
 6249TIP3    H242943   0.724   1.798  12.314  0.9688  0.2865 -1.2827
 6250TIP3   OH242944   5.952   4.127  11.962 -0.1073 -0.3657  0.7441
 6250TIP3    H142945   5.997   4.129  11.878  0.3976 -0.3891  1.0132
 6250TIP3    H242946   5.867   4.169  11.944 -0.6349 -1.7439 -0.1248
 6251TIP3   OH242947   7.288   5.410  13.259  0.1354  0.3358 -0.2637
 6251TIP3    H142948   7.225   5.376  13.196  1.2630  1.4224 -2.0821
 6251TIP3    H242949   7.338   5.333  13.288 -0.7288 -0.2437 -0.2857
 6252TIP3   OH242950   1.619   2.313  11.953 -0.6578  0.3502  0.0716
 6252TIP3    H142951   1.550   2.349  11.897 -3.0421 -1.2715  1.7758
 6252TIP3    H242952   1.628   2.378  12.023 -0.7771  0.3516  0.0860
 6253TIP3   OH242953   3.414   4.116  11.698 -0.4654  0.1901  0.3125
 6253TIP3    H142954   3.434   4.104  11.605 -0.4510 -1.9699  0.5467
 6253TIP3    H242955   3.324   4.086  11.707  0.8957 -4.3077  1.6753
 6254TIP3   OH242956   0.635   6.131  12.025  0.0680 -0.0422  0.5338
 6254TIP3    H142957   0.618   6.125  12.119 -0.6678  1.6415  0.5463
 6254TIP3    H242958   0.557   6.092  11.984 -0.4046  0.7938  0.6252
 6255TIP3   OH242959   1.006   6.179  11.759 -0.1201 -0.2854 -0.2617
 6255TIP3    H142960   1.092   6.137  11.764  0.0063 -0.1647 -1.2403
 6255TIP3    H242961   1.008   6.228  11.677 -0.0342  2.2114  1.1342
 6256TIP3   OH242962   4.593   5.587  11.434  0.1030  0.1134  0.2868
 6256TIP3    H142963   4.607   5.675  11.469 -0.7723  0.6285 -0.6194
 6256TIP3    H242964   4.681   5.550  11.429  0.3850  0.5346  1.6710
 6257TIP3   OH242965   0.667   4.600  12.436  0.2440 -0.3094 -0.4676
 6257TIP3    H142966   0.598   4.534  12.449  1.0829 -0.9201  1.2249
 6257TIP3    H242967   0.749   4.551  12.444  0.9522  1.1235  2.6979
 6258TIP3   OH242968   6.436   2.821  10.419  0.4499  0.3977 -0.1959
 6258TIP3    H142969   6.525   2.822  10.383  0.1223  0.6615 -1.0254
 6258TIP3    H242970   6.380   2.837  10.343 -0.1751  2.8521  0.6778
 6259TIP3   OH242971   7.593   3.284  10.926 -0.2436  0.1761  0.4643
 6259TIP3    H142972   7.626   3.242  11.005  0.6572  0.9615  0.5205
 6259TIP3    H242973   7.667   3.333  10.891 -0.5526 -0.3641 -1.0256
 6260TIP3   OH242974   7.462   3.158  13.427 -0.1130 -0.7554 -0.1457
 6260TIP3    H142975   7.381   3.159  13.376 -1.2632 -2.7764  1.4724
 6260TIP3    H242976   7.502   3.244  13.410 -0.2064 -1.3232 -4.5611
 6261TIP3   OH242977   5.953   0.701  10.879 -0.0479 -0.0653  0.1689
 6261TIP3    H142978   5.929   0.690  10.787  1.0263 -0.4621 -0.0813
 6261TIP3    H242979   5.873   0.678  10.927 -0.8912  0.9982 -0.6753
 6262TIP3   OH242980   5.150   3.060  11.968 -0.4373  0.1385 -0.0839
 6262TIP3    H142981   5.108   2.986  11.923  0.2066 -0.0433 -0.3849
 6262TIP3    H242982   5.079   3.098  12.021 -1.0250 -0.0749 -0.7012
 6263TIP3   OH242983   0.191   3.535  11.565 -0.1538 -0.2781  0.5377
 6263TIP3    H142984   0.146   3.451  11.563 -0.7971  0.0642  0.3646
 6263TIP3    H242985   0.135   3.593  11.514 -0.2108  0.4903  1.4478
 6264TIP3   OH242986   1.961   2.334  12.469 -0.3117 -0.3126  0.1293
 6264TIP3    H142987   1.906   2.412  12.471 -1.1114 -0.7014 -2.7134
 6264TIP3    H242988   2.037   2.359  12.417 -0.4309 -1.3321 -0.5578
 6265TIP3   OH242989   4.187   4.237  11.762 -0.2871  0.6269 -0.5440
 6265TIP3    H142990   4.256   4.172  11.753  0.4623  1.2619  0.3609
 6265TIP3    H242991   4.199   4.296  11.688 -0.6797  0.0009 -1.1094
 6266TIP3   OH242992   4.894   5.573  11.443 -0.1867 -0.1228  0.5247
 6266TIP3    H142993   4.952   5.637  11.403  0.2797  0.3432  1.8631
 6266TIP3    H242994   4.933   5.557  11.530 -0.2662 -2.2380  0.2368
 6267TIP3   OH242995   0.694   6.951  11.075  0.5645  0.4483 -0.2868
 6267TIP3    H142996   0.733   7.037  11.090  1.5977 -0.5175  3.6416
 6267TIP3    H242997   0.660   6.924  11.161 -0.8037 -2.5906 -1.6182
 6268TIP3   OH242998   3.187   4.004  10.448  0.2571 -0.4279 -0.3600
 6268TIP3    H142999   3.151   4.041  10.368  0.6530  0.1711 -0.2613
 6268TIP3    H243000   3.276   4.039  10.454 -0.4844  1.2841  1.4600
 6269TIP3   OH243001   2.469   4.634  11.469 -0.5157 -0.0704 -0.3939
 6269TIP3    H143002   2.512   4.719  11.455 -0.4352 -0.0070  0.2112
 6269TIP3    H243003   2.477   4.589  11.385 -2.7789  1.4987 -1.5696
 6270TIP3   OH243004   6.044   2.136  11.785 -0.1475  0.1681 -0.3662
 6270TIP3    H143005   6.018   2.228  11.775 -0.3124  0.2342  0.6236
 6270TIP3    H243006   6.121   2.139  11.841  0.6963 -0.2058 -1.4653
 6271TIP3   OH243007   6.213   2.412  10.951  0.2649  0.1195 -0.3620
 6271TIP3    H143008   6.207   2.370  10.865 -1.0080 -1.0706  0.2659
 6271TIP3    H243009   6.296   2.460  10.948 -0.2642  1.0263 -2.6337
 6272TIP3   OH243010   4.745   2.060  11.779  0.4633  0.6656 -0.1097
 6272TIP3    H143011   4.780   1.982  11.737 -0.4073 -0.0910  0.5034
 6272TIP3    H243012   4.812   2.127  11.767  0.3919  0.3878 -2.3453
 6273TIP3   OH243013   7.030   1.020  12.375 -0.3599  0.3656  0.0342
 6273TIP3    H143014   7.029   0.949  12.310 -2.0160  0.9530 -0.6460
 6273TIP3    H243015   7.044   0.976  12.459 -1.0982 -0.7531 -0.4002
 6274TIP3   OH243016   1.256   2.627  11.249 -0.3592  0.0990  0.0187
 6274TIP3    H143017   1.191   2.657  11.312 -1.8088 -0.5284 -1.1230
 6274TIP3    H243018   1.319   2.700  11.243 -0.7453  0.5682  1.4037
 6275TIP3   OH243019   7.346   2.572  10.583 -0.3904 -0.1728  0.3443
 6275TIP3    H143020   7.256   2.550  10.557 -0.1083 -1.5145  0.4125
 6275TIP3    H243021   7.357   2.527  10.667 -0.0060  0.8949  0.8779
 6276TIP3   OH243022   6.446   4.310  11.048  0.4935 -0.1439  0.7054
 6276TIP3    H143023   6.449   4.295  10.953  1.0780 -0.2346  0.7332
 6276TIP3    H243024   6.429   4.223  11.085  1.1076 -0.2598  0.7238
 6277TIP3   OH243025   2.550   2.897  13.278  0.0511  0.3210 -0.0634
 6277TIP3    H143026   2.480   2.952  13.314  1.2679  1.7823  0.1578
 6277TIP3    H243027   2.553   2.921  13.185 -1.1736 -1.3765 -0.6139
 6278TIP3   OH243028   5.792   5.006  13.087  0.9235 -0.8786 -0.1381
 6278TIP3    H143029   5.751   4.944  13.027  1.6633 -1.7164  0.1916
 6278TIP3    H243030   5.736   5.083  13.085 -0.1194 -1.6272 -0.4236
 6279TIP3   OH243031   6.193   0.643  11.352  0.3669  0.1968  0.0759
 6279TIP3    H143032   6.174   0.733  11.327  2.6439  0.3927 -1.2023
 6279TIP3    H243033   6.172   0.591  11.274  0.9069 -0.1062  0.1250
 6280TIP3   OH243034   5.436   5.501  11.372  0.2727 -0.1285  0.1003
 6280TIP3    H143035   5.387   5.460  11.443 -0.3632 -1.2801 -0.9601
 6280TIP3    H243036   5.384   5.579  11.349 -0.1426 -0.3952  0.1299
 6281TIP3   OH243037   3.627   0.740  12.129  0.1443  0.4624  0.1851
 6281TIP3    H143038   3.544   0.772  12.096 -0.4258 -1.8484 -0.7918
 6281TIP3    H243039   3.631   0.649  12.101  2.7992  0.3626  0.6042
 6282TIP3   OH243040   4.144   6.028  12.983 -0.7172  0.2614 -0.2345
 6282TIP3    H143041   4.084   6.026  13.058 -0.0429 -0.0087  0.3105
 6282TIP3    H243042   4.218   5.973  13.010 -0.2354  0.5674 -0.9021
 6283TIP3   OH243043   0.682   2.997  10.792 -0.5314  0.2167  1.1077
 6283TIP3    H143044   0.752   3.040  10.743  1.2999 -1.4745  2.0959
 6283TIP3    H243045   0.602   3.045  10.768  0.7310  1.3093 -1.1655
 6284TIP3   OH243046   0.812   0.071  12.212  0.1885  0.2196 -0.1160
 6284TIP3    H143047   0.863   0.049  12.289 -0.5113  0.3979  0.4124
 6284TIP3    H243048   0.769  -0.011  12.187 -0.9231  0.5111  0.7209
 6285TIP3   OH243049   5.960   5.223  11.203  0.2929 -0.3789  0.3144
 6285TIP3    H143050   6.027   5.180  11.150 -0.0375  0.5388 -0.8939
 6285TIP3    H243051   6.009   5.279  11.264  0.6479 -0.3403 -0.0039
 6286TIP3   OH243052   6.918   4.643  11.421 -0.4688 -0.3387  0.5426
 6286TIP3    H143053   6.894   4.713  11.481  1.6914 -0.5968  1.8045
 6286TIP3    H243054   6.932   4.688  11.337 -0.5849  0.4961  0.9564
 6287TIP3   OH243055   4.630   5.055  11.710  0.2350 -0.1485  0.0171
 6287TIP3    H143056   4.706   5.112  11.724  0.6542 -0.5602 -0.5226
 6287TIP3    H243057   4.586   5.053  11.795  1.6272 -1.0251  0.7539
 6288TIP3   OH243058   5.554   6.660  13.246  0.2186  0.0515  0.0019
 6288TIP3    H143059   5.649   6.673  13.253  0.0912  0.7422  0.5859
 6288TIP3    H243060   5.519   6.749  13.235 -0.2073 -0.3496 -2.3043
 6289TIP3   OH243061   2.908   5.836  12.101 -0.4091 -0.4629  0.0978
 6289TIP3    H143062   2.925   5.843  12.195 -1.9673 -0.7897  0.4341
 6289TIP3    H243063   2.989   5.865  12.060 -0.0344  0.6746  1.5409
 6290TIP3   OH243064   1.697   3.987  11.045 -0.1194 -0.4043 -0.5096
 6290TIP3    H143065   1.735   3.915  11.095 -0.3159 -0.1701 -0.0121
 6290TIP3    H243066   1.633   3.946  10.988  0.0388 -0.6658 -0.4992
 6291TIP3   OH243067   0.992   6.473  13.344 -0.6450  0.1313 -0.2169
 6291TIP3    H143068   1.087   6.464  13.330 -0.4941 -2.3020  1.7480
 6291TIP3    H243069   0.966   6.540  13.281  2.1659  0.0086 -1.7148
 6292TIP3   OH243070   2.584   4.456  12.420  0.0028 -0.1957  0.0107
 6292TIP3    H143071   2.540   4.508  12.488  0.8261 -0.1981  0.5594
 6292TIP3    H243072   2.575   4.365  12.450 -0.5752 -0.2944 -0.4446
 6293TIP3   OH243073   6.581   6.852  11.425  0.3672  0.1258  0.0419
 6293TIP3    H143074   6.550   6.942  11.428  1.1906  0.4149 -0.0963
 6293TIP3    H243075   6.665   6.853  11.471  2.1048  0.1374 -2.8701
 6294TIP3   OH243076   1.603   5.676  10.988  0.5623  0.2794  0.5741
 6294TIP3    H143077   1.562   5.719  11.063  0.6500  1.0845  0.1762
 6294TIP3    H243078   1.530   5.638  10.939  0.5480 -0.6385  1.3016
 6295TIP3   OH243079   5.688   7.363  12.397  0.1775 -0.3189 -0.3837
 6295TIP3    H143080   5.763   7.362  12.338  1.5012 -0.0753  1.2297
 6295TIP3    H243081   5.719   7.321  12.477 -1.0659  0.7124  0.6970
 6296TIP3   OH243082   1.882   3.268  12.402 -0.0111 -0.0793 -0.3872
 6296TIP3    H143083   1.965   3.242  12.363  0.9206 -0.1059  1.4774
 6296TIP3    H243084   1.893   3.361  12.423 -0.8332  0.1707 -0.9865
 6297TIP3   OH243085   7.617   6.455  12.321  0.1130 -0.0534 -0.1108
 6297TIP3    H143086   7.699   6.405  12.316  1.3542  1.9212 -0.5991
 6297TIP3    H243087   7.559   6.411  12.259  0.4743 -1.9790  0.8247
 6298TIP3   OH243088   4.192   1.659  10.412  0.1177 -0.0950  0.6909
 6298TIP3    H143089   4.110   1.703  10.391  0.1811  0.5378  1.7458
 6298TIP3    H243090   4.257   1.702  10.357  0.0390  0.5883  1.1283
 6299TIP3   OH243091   0.439   2.545  12.750  0.1604 -0.5822  0.2956
 6299TIP3    H143092   0.441   2.603  12.826 -0.4244 -0.7721  0.4622
 6299TIP3    H243093   0.384   2.590  12.686  1.5388  0.0814 -0.4459
 6300TIP3   OH243094   5.414   2.765  12.727  0.1141 -0.0509  0.0001
 6300TIP3    H143095   5.393   2.774  12.634 -0.5638  0.9136  0.2184
 6300TIP3    H243096   5.414   2.671  12.743 -0.2584 -0.2102 -0.8735
 6301TIP3   OH243097   7.315   1.154  10.897 -0.2678 -0.7001 -0.3520
 6301TIP3    H143098   7.314   1.202  10.814  0.0527 -1.4684 -0.8111
 6301TIP3    H243099   7.294   1.064  10.873 -1.4123 -0.6974  0.5717
 6302TIP3   OH243100   0.007   3.612  12.931  0.6069  0.5409 -0.1821
 6302TIP3    H143101  -0.019   3.639  13.020  0.7463  0.1761 -0.0274
 6302TIP3    H243102  -0.012   3.688  12.876  1.4410  1.1277  0.3166
 6303TIP3   OH243103   1.807   5.946  13.066  0.6837 -0.4841 -0.1081
 6303TIP3    H143104   1.738   5.904  13.117  1.5847 -1.1253  0.6260
 6303TIP3    H243105   1.844   6.012  13.124  1.9688 -1.4772  0.2414
 6304TIP3   OH243106   4.395   3.935  11.336  0.3555  0.1003  0.0932
 6304TIP3    H143107   4.454   3.979  11.275 -0.1588 -0.6123 -0.9605
 6304TIP3    H243108   4.403   3.984  11.418  1.2036  0.9685 -0.4896
 6305TIP3   OH243109   6.211   5.376  13.734  0.2373  0.2281  0.4309
 6305TIP3    H143110   6.199   5.428  13.655  0.3331  0.7992  0.7781
 6305TIP3    H243111   6.298   5.400  13.765  0.2058 -0.0002  0.6963
 6306TIP3   OH243112   7.546   3.943  11.372  0.0571  0.6100 -0.1777
 6306TIP3    H143113   7.611   4.001  11.411  1.0018  0.6178 -1.7031
 6306TIP3    H243114   7.483   4.001  11.330  1.3891  0.5910 -2.3202
 6307TIP3   OH243115   5.737   0.689  11.403  0.2655  0.0117 -0.0509
 6307TIP3    H143116   5.804   0.629  11.370  0.3481  1.2858 -2.3910
 6307TIP3    H243117   5.743   0.680  11.498  2.9974 -0.7522 -0.1948
 6308TIP3   OH243118   7.603   0.992  10.851 -0.5436 -0.1280  0.2668
 6308TIP3    H143119   7.580   1.058  10.785 -0.1347 -0.5114 -0.2741
 6308TIP3    H243120   7.519   0.954  10.876 -0.5955 -1.1440 -1.2962
 6309TIP3   OH243121   1.217   0.162  10.959 -0.0915  0.0329  0.0190
 6309TIP3    H143122   1.251   0.214  10.887 -2.5770  0.6160 -0.8456
 6309TIP3    H243123   1.287   0.099  10.979  1.7251  1.6222 -1.0246
 6310TIP3   OH243124   4.384   0.114  11.528 -0.6039  0.0394 -0.3071
 6310TIP3    H143125   4.425   0.190  11.569  0.2775 -0.0424 -1.0081
 6310TIP3    H243126   4.296   0.111  11.565  0.6178 -0.9756  2.8253
 6311TIP3   OH243127   2.323   1.463  10.738 -0.6398 -0.2312 -0.4712
 6311TIP3    H143128   2.241   1.434  10.777 -0.3885 -1.2559 -0.6862
 6311TIP3    H243129   2.297   1.522  10.668 -1.1504  0.2634  0.1220
 6312TIP3   OH243130   2.806   2.445  11.243  0.2199 -0.2969  0.0191
 6312TIP3    H143131   2.892   2.464  11.206  0.6658 -0.1238  1.1164
 6312TIP3    H243132   2.823   2.382  11.313 -0.6324 -0.7820 -0.1914
 6313TIP3   OH243133   1.168   3.531  13.097 -0.3797  0.3985  0.4999
 6313TIP3    H143134   1.138   3.516  13.187 -0.6739  0.6825  0.4530
 6313TIP3    H243135   1.088   3.525  13.044 -0.1517 -0.1315  0.2142
 6314TIP3   OH243136   1.503   0.748  13.073  0.2653 -0.3733 -0.0441
 6314TIP3    H143137   1.573   0.726  13.135  0.5355 -0.3943 -0.3579
 6314TIP3    H243138   1.429   0.774  13.129  1.1946  1.7854  0.2888
 6315TIP3   OH243139   5.159   5.982  11.033 -0.3190 -0.7330  0.4463
 6315TIP3    H143140   5.214   5.967  10.957 -1.1641 -0.7774 -0.1681
 6315TIP3    H243141   5.212   5.954  11.108  1.3101  1.1886  0.1020
 6316TIP3   OH243142   3.197   4.134  12.581  0.2221  0.1393 -0.1180
 6316TIP3    H143143   3.171   4.162  12.668  0.1805 -0.1928 -0.0214
 6316TIP3    H243144   3.193   4.038  12.584  0.1350  0.1256 -0.5090
 6317TIP3   OH243145   1.352   5.053  13.041  0.3269 -0.2258  0.1126
 6317TIP3    H143146   1.365   5.142  13.010  0.0818 -0.7506 -1.6016
 6317TIP3    H243147   1.436   5.009  13.026  0.2977 -0.4172  0.4901
 6318TIP3   OH243148   4.022   6.539  10.707  0.3353  0.3668 -0.5286
 6318TIP3    H143149   4.103   6.491  10.690  0.4634  1.3368 -3.2388
 6318TIP3    H243150   4.050   6.626  10.735  0.1809  0.1191  0.4146
 6319TIP3   OH243151   4.372   7.091  12.368 -0.1061 -0.7756  0.1753
 6319TIP3    H143152   4.312   7.072  12.440 -0.3174 -2.9396 -0.5022
 6319TIP3    H243153   4.316   7.105  12.292  0.1882 -2.2098 -0.3338
 6320TIP3   OH243154   3.913   2.277  10.471 -0.3242 -0.0446  0.1738
 6320TIP3    H143155   3.995   2.234  10.493  0.6347  1.4685 -0.2859
 6320TIP3    H243156   3.906   2.269  10.376 -1.8594 -2.0692  0.3842
 6321TIP3   OH243157   6.452   1.005  11.408  0.5396  0.2572  0.1589
 6321TIP3    H143158   6.465   1.059  11.329  2.1101 -3.3507 -2.3392
 6321TIP3    H243159   6.540   0.996  11.444  0.5383 -1.4350 -0.1729
 6322TIP3   OH243160   1.343   0.535  12.892  0.0396  0.4366 -0.4048
 6322TIP3    H143161   1.369   0.457  12.842  0.1504  1.5864 -2.2212
 6322TIP3    H243162   1.300   0.500  12.969 -0.8440 -1.4526 -1.6688
 6323TIP3   OH243163   2.690   2.397  11.580 -0.1545 -0.0527  0.6268
 6323TIP3    H143164   2.670   2.352  11.662 -0.1307 -1.4192 -0.0799
 6323TIP3    H243165   2.606   2.406  11.536  0.1539 -2.1875 -0.5594
 6324TIP3   OH243166   4.630   1.634  11.994 -0.1864  0.9497 -0.0438
 6324TIP3    H143167   4.599   1.583  11.919 -0.5784  0.9926  0.0883
 6324TIP3    H243168   4.648   1.569  12.061 -1.0201  1.0014  0.2448
 6325TIP3   OH243169   3.926   2.401  10.972  0.2665 -0.7866  0.3277
 6325TIP3    H143170   4.021   2.396  10.957  0.0679 -2.3387 -0.6905
 6325TIP3    H243171   3.918   2.439  11.059  1.7800  0.5995 -0.0902
 6326TIP3   OH243172   5.168   5.951  12.075 -0.1625 -0.4398 -0.2038
 6326TIP3    H143173   5.135   6.011  12.141 -0.9812 -0.5622 -0.4942
 6326TIP3    H243174   5.108   5.961  12.001  0.8375 -0.1737 -1.0071
 6327TIP3   OH243175   0.001   1.980  10.186  0.0850  0.4525 -0.4915
 6327TIP3    H143176  -0.030   2.047  10.247  0.5792  0.4034 -0.1822
 6327TIP3    H243177   0.048   1.917  10.241  0.1899  0.1975 -0.8692
 6328TIP3   OH243178   0.828   0.529  13.114  0.1629  0.0418 -0.5170
 6328TIP3    H143179   0.856   0.514  13.205 -1.2195 -1.6516 -0.3292
 6328TIP3    H243180   0.853   0.449  13.068  2.2526  1.4724 -2.0570
 6329TIP3   OH243181   3.389   1.403  12.943  1.3401 -0.0692 -0.3000
 6329TIP3    H143182   3.366   1.356  13.022  0.6390 -0.4103 -0.7035
 6329TIP3    H243183   3.399   1.494  12.971  1.4487 -0.2436  0.2374
 6330TIP3   OH243184   2.977   3.024  12.228  0.3600 -0.1374  0.1968
 6330TIP3    H143185   2.989   2.981  12.144 -1.7961  0.0985 -0.2987
 6330TIP3    H243186   3.028   2.971  12.290  2.4075 -0.0056 -1.2943
 6331TIP3   OH243187   3.904   4.140  11.781 -0.2564  0.2370  0.2632
 6331TIP3    H143188   3.877   4.098  11.699 -1.8262  1.0571  0.3404
 6331TIP3    H243189   3.998   4.154  11.770  0.1545 -2.3500 -0.1792
 6332TIP3   OH243190   7.604   2.141  12.923  0.3673 -0.4754  0.2201
 6332TIP3    H143191   7.574   2.210  12.864 -0.9230 -0.8970  0.3484
 6332TIP3    H243192   7.675   2.098  12.876  1.0383  0.7807  0.0432
 6333TIP3   OH243193   4.299   6.954  11.008 -0.1334  0.4866 -0.2896
 6333TIP3    H143194   4.211   6.991  11.009 -0.2961  0.1395 -0.9813
 6333TIP3    H243195   4.357   7.029  11.005 -0.3673  0.7450  0.8953
 6334TIP3   OH243196   0.764   0.170  11.816  0.4408  0.1921  0.5528
 6334TIP3    H143197   0.797   0.209  11.735 -0.0035 -0.2446  0.1458
 6334TIP3    H243198   0.834   0.181  11.880  0.4869  1.2607  0.3325
 6335TIP3   OH243199   2.720   5.656  13.276  0.4625 -0.0877  0.0939
 6335TIP3    H143200   2.672   5.585  13.318  2.2432 -1.3863  0.0487
 6335TIP3    H243201   2.759   5.616  13.198  2.7720  0.5021  0.8880
 6336TIP3   OH243202   7.141   1.992  12.048 -0.4172 -0.0880 -0.0912
 6336TIP3    H143203   7.193   1.920  12.084  0.2427 -0.1104 -1.0561
 6336TIP3    H243204   7.104   2.036  12.125  0.7234 -0.3028  0.6060
 6337TIP3   OH243205   4.944   7.218  10.961  0.2360  0.4721 -0.5077
 6337TIP3    H143206   4.977   7.138  11.001 -0.8241 -0.3486 -1.2259
 6337TIP3    H243207   4.917   7.273  11.035  1.2248  0.2975 -0.0017
 6338TIP3   OH243208   6.176   6.281  11.065 -0.0999  0.2269 -0.2508
 6338TIP3    H143209   6.110   6.342  11.034  1.4235  1.5502 -1.0125
 6338TIP3    H243210   6.176   6.292  11.160 -1.6376 -0.5309 -0.1405
 6339TIP3   OH243211   1.126   1.954  10.664  0.2197 -0.1913 -0.2118
 6339TIP3    H143212   1.040   1.964  10.706  0.1652  1.4743 -0.6441
 6339TIP3    H243213   1.187   1.943  10.737 -0.2642 -0.5444  0.1417
 6340TIP3   OH243214   5.619   0.905  10.562 -0.3185  0.0930  0.1095
 6340TIP3    H143215   5.528   0.934  10.560 -1.3246 -2.5854  1.5538
 6340TIP3    H243216   5.650   0.928  10.649  1.4833  3.5795 -1.2611
 6341TIP3   OH243217   4.749   5.958  11.944  0.1764  0.1427 -0.3312
 6341TIP3    H143218   4.771   5.969  11.851  3.4752 -2.8402 -0.0839
 6341TIP3    H243219   4.829   5.978  11.991 -0.2111 -2.2883  1.5332
 6342TIP3   OH243220   7.476   4.879  11.944 -0.1926  0.0791  0.3853
 6342TIP3    H143221   7.449   4.817  11.876 -0.6544 -0.1013  0.7259
 6342TIP3    H243222   7.469   4.965  11.902 -1.1225  0.0214  0.3982
 6343TIP3   OH243223   3.187   2.888  10.708 -0.1455 -0.7278  0.1518
 6343TIP3    H143224   3.118   2.938  10.752 -0.0067  0.6699 -1.1339
 6343TIP3    H243225   3.139   2.824  10.654 -0.4270 -0.2087 -0.2246
 6344TIP3   OH243226   1.637   4.255  10.984  0.2109  0.2560  0.4901
 6344TIP3    H143227   1.616   4.244  10.891 -1.2666 -0.7329  0.9080
 6344TIP3    H243228   1.668   4.169  11.013  1.7108  0.8265  0.7036
 6345TIP3   OH243229   3.548   5.055  11.639 -0.3645 -0.0050 -0.3985
 6345TIP3    H143230   3.552   5.121  11.708  1.3353 -0.3283 -0.1301
 6345TIP3    H243231   3.455   5.043  11.622 -0.7432  3.0160 -1.0030
 6346TIP3   OH243232   7.032   0.559  12.017 -0.5811 -0.3500  0.5803
 6346TIP3    H143233   6.987   0.474  12.018 -0.0224 -0.7240 -1.2962
 6346TIP3    H243234   7.125   0.536  12.024 -0.4541  0.1332  0.4737
 6347TIP3   OH243235   4.020   2.574  12.636 -0.4411 -0.6197 -0.1515
 6347TIP3    H143236   4.064   2.612  12.560  0.6547 -2.1823 -0.3604
 6347TIP3    H243237   4.014   2.481  12.615 -1.5212 -0.8331  1.0268
 6348TIP3   OH243238   7.418   4.692  12.881 -0.0079  0.3426  0.2999
 6348TIP3    H143239   7.387   4.646  12.958  1.2151 -0.3387  0.4120
 6348TIP3    H243240   7.471   4.765  12.915  0.4422  0.1070  0.1225
 6349TIP3   OH243241   1.448   4.761  10.554 -0.2271 -0.3314  0.1328
 6349TIP3    H143242   1.520   4.701  10.536  0.1572 -0.4922  1.9598
 6349TIP3    H243243   1.371   4.705  10.560 -0.4393 -0.2209 -1.3328
 6350TIP3   OH243244   2.752   2.142  12.352  0.3405  0.3531  0.2944
 6350TIP3    H143245   2.675   2.151  12.408 -0.3557  0.8582 -0.7165
 6350TIP3    H243246   2.801   2.223  12.363  0.6156  0.1269  0.7611
 6351TIP3   OH243247   6.011   0.533  12.924 -0.1221 -0.3216 -0.0455
 6351TIP3    H143248   5.999   0.453  12.872  0.4063 -2.0181  2.3066
 6351TIP3    H243249   6.099   0.525  12.960  0.2521  1.7675 -0.3976
 6352TIP3   OH243250   2.196   0.401  11.506  0.2010 -0.1068  0.0533
 6352TIP3    H143251   2.130   0.462  11.474  1.9583  0.3014 -3.2520
 6352TIP3    H243252   2.273   0.418  11.451  2.2530 -2.2392  2.0456
 6353TIP3   OH243253   7.313   7.035  10.985  0.0556 -0.9637  0.7444
 6353TIP3    H143254   7.355   6.984  10.916 -0.4891 -0.5166  0.0811
 6353TIP3    H243255   7.220   7.015  10.977 -0.5152  1.8603 -1.0371
 6354TIP3   OH243256   6.824   2.275  12.261 -0.1884 -0.2468 -0.7795
 6354TIP3    H143257   6.898   2.306  12.314  1.0059 -2.6054 -0.9213
 6354TIP3    H243258   6.780   2.211  12.318 -0.1876 -1.2070 -1.8234
 6355TIP3   OH243259   0.979   4.443  10.525  0.4372  0.1678  0.5519
 6355TIP3    H143260   0.958   4.361  10.571 -0.6490  0.6207  0.9068
 6355TIP3    H243261   0.908   4.452  10.461  1.1186  0.3114 -0.1858
 6356TIP3   OH243262   5.464   4.062  12.380 -0.2675 -0.1546 -0.5418
 6356TIP3    H143263   5.370   4.060  12.402  0.0914 -0.3779  1.1040
 6356TIP3    H243264   5.482   3.974  12.347 -0.7798  0.1197 -1.6060
 6357TIP3   OH243265   0.588   2.586  11.395  0.1267  0.3316 -0.0273
 6357TIP3    H143266   0.581   2.496  11.363  3.2785  0.6067 -1.8799
 6357TIP3    H243267   0.571   2.641  11.318  2.3139  1.1367 -0.0265
 6358TIP3   OH243268   2.986   3.514  11.880  0.2150  0.1558  0.1083
 6358TIP3    H143269   2.944   3.599  11.867 -0.2372 -0.1942 -0.9058
 6358TIP3    H243270   2.913   3.452  11.882  0.6346 -0.4034 -1.1062
 6359TIP3   OH243271   0.915   0.238  10.669 -0.0175  0.1735 -0.1134
 6359TIP3    H143272   0.967   0.202  10.598  1.5391 -0.0260  1.0677
 6359TIP3    H243273   0.919   0.171  10.738 -1.5750  0.3088  0.1454
 6360TIP3   OH243274   1.304   0.808  11.531 -0.5722  0.3168  0.1224
 6360TIP3    H143275   1.319   0.851  11.447  1.0961 -0.1854  0.1389
 6360TIP3    H243276   1.210   0.792  11.532 -0.7628  1.1107 -1.2570
 6361TIP3   OH243277   0.712   6.172  12.670 -0.0255  0.6265 -0.4455
 6361TIP3    H143278   0.634   6.189  12.617  0.5673  1.6691 -1.0305
 6361TIP3    H243279   0.705   6.080  12.694 -1.4126  0.6854 -0.5102
 6362TIP3   OH243280   7.411   2.477  11.623  0.0294 -0.2553 -0.5680
 6362TIP3    H143281   7.356   2.508  11.694  0.5899 -0.5978  0.0190
 6362TIP3    H243282   7.381   2.388  11.605 -0.4003 -0.0194 -1.0637
 6363TIP3   OH243283   1.436   0.555  11.867  0.0426  0.5739 -0.2506
 6363TIP3    H143284   1.495   0.578  11.939  1.0002  1.5041 -1.2838
 6363TIP3    H243285   1.366   0.619  11.872  0.1172  0.6493 -0.1694
 6364TIP3   OH243286   4.349   1.588  11.536  0.1580 -0.0266  0.4157
 6364TIP3    H143287   4.277   1.625  11.486  1.0420 -0.0912 -0.9502
 6364TIP3    H243288   4.334   1.618  11.626 -2.2136 -1.0332  0.4132
 6365TIP3   OH243289   2.814   2.072  11.812 -0.0216  0.4827 -0.5633
 6365TIP3    H143290   2.737   2.045  11.761  0.0212  0.0157 -0.3886
 6365TIP3    H243291   2.785   2.069  11.903  1.1169 -3.0954 -0.1729
 6366TIP3   OH243292   6.700   6.429  12.437 -0.7568  0.5558  0.1374
 6366TIP3    H143293   6.629   6.385  12.484  0.6143 -1.7159  0.2200
 6366TIP3    H243294   6.702   6.385  12.351  0.0371  1.1353 -0.1493
 6367TIP3   OH243295   7.155   2.618  12.118  0.4413 -0.3019  0.0601
 6367TIP3    H143296   7.083   2.643  12.176 -0.2380 -0.0194 -0.8961
 6367TIP3    H243297   7.171   2.526  12.140  0.3943 -0.1247  0.8925
 6368TIP3   OH243298   3.256   3.238  11.336  0.0377  0.4675 -0.3257
 6368TIP3    H143299   3.290   3.189  11.261  0.3703 -0.5617  0.4739
 6368TIP3    H243300   3.321   3.308  11.350  0.9747 -0.4679  0.1460
 6369TIP3   OH243301   0.710   2.905  11.372 -0.6480  0.5201 -0.3866
 6369TIP3    H143302   0.773   2.962  11.328 -1.6946  3.1879  1.3168
 6369TIP3    H243303   0.637   2.900  11.310  0.7600 -1.9765 -2.0407
 6370TIP3   OH243304   7.462   2.171  11.213 -0.2854  0.0172 -0.3562
 6370TIP3    H143305   7.402   2.123  11.270 -1.6452  0.2084 -1.5611
 6370TIP3    H243306   7.463   2.260  11.249 -0.2420 -0.1395  0.0307
 6371TIP3   OH243307   0.881   1.601  11.303 -0.0835  0.1551 -0.2119
 6371TIP3    H143308   0.869   1.678  11.357  0.6619  1.2162 -1.5060
 6371TIP3    H243309   0.848   1.529  11.357 -2.6081  1.5658  0.3115
 6372TIP3   OH243310   2.169   1.652  11.092 -1.0516  0.3226 -0.0276
 6372TIP3    H143311   2.222   1.699  11.155  0.3035 -0.6493 -0.4024
 6372TIP3    H243312   2.113   1.596  11.145 -0.6231  0.2363  0.3388
 6373TIP3   OH243313   3.735   6.092  12.866  0.2277 -0.7585 -0.0465
 6373TIP3    H143314   3.731   6.005  12.906 -0.9410 -1.6539 -1.9606
 6373TIP3    H243315   3.643   6.120  12.862  0.6331  0.9565  1.2398
 6374TIP3   OH243316   4.246   4.375  11.500 -0.3802 -0.4200  0.5207
 6374TIP3    H143317   4.318   4.363  11.438  0.1217  1.0200  0.7764
 6374TIP3    H243318   4.170   4.391  11.445  0.0917  0.9989  0.2389
 6375TIP3   OH243319   4.743   3.215  12.592 -0.0450 -0.0210 -0.1486
 6375TIP3    H143320   4.773   3.193  12.680  2.0144  1.0724 -0.5106
 6375TIP3    H243321   4.672   3.278  12.606  0.7960  0.7655  0.7589
 6376TIP3   OH243322   4.445   4.043  10.819  0.4083 -0.2233  0.0086
 6376TIP3    H143323   4.474   4.134  10.813 -0.0349 -0.1358 -1.2019
 6376TIP3    H243324   4.494   4.007  10.893  0.9080  0.8780  0.2410
 6377TIP3   OH243325   3.330   2.518  11.979  0.0017  0.4616 -0.2926
 6377TIP3    H143326   3.244   2.480  11.961 -0.5942  1.2503  0.8045
 6377TIP3    H243327   3.392   2.452  11.949 -0.9935 -1.2544  1.2703
 6378TIP3   OH243328   4.298   2.616  12.093  0.0785  0.0833 -0.2010
 6378TIP3    H143329   4.260   2.543  12.141 -1.4545  0.7283 -0.3628
 6378TIP3    H243330   4.324   2.679  12.160 -2.0137  0.9630 -0.1279
 6379TIP3   OH243331   4.192   2.140  11.670  0.1894  0.3811 -0.4232
 6379TIP3    H143332   4.281   2.164  11.695 -0.1908  1.0620  0.3271
 6379TIP3    H243333   4.136   2.184  11.734 -0.6059 -1.4802  0.2626
 6380TIP3   OH243334   1.179   0.247  12.665 -0.1116  0.3239  0.0491
 6380TIP3    H143335   1.190   0.246  12.760 -0.0605  0.7932  0.0511
 6380TIP3    H243336   1.198   0.338  12.640 -0.9981  0.4200 -0.3030
 6381TIP3   OH243337   0.821   1.373  10.854  0.4945  0.0629  0.0958
 6381TIP3    H143338   0.776   1.411  10.779  0.7976 -1.7581 -1.0758
 6381TIP3    H243339   0.761   1.308  10.888  0.2905  0.9831  1.5972
 6382TIP3   OH243340   3.983   6.163  11.683  0.0299  0.0115  0.1723
 6382TIP3    H143341   3.909   6.102  11.691  1.4323 -1.9800 -1.1018
 6382TIP3    H243342   3.953   6.230  11.622 -0.5699 -1.0576 -0.7328
 6383TIP3   OH243343   6.526   6.584  11.431  0.1552 -0.4174  0.0141
 6383TIP3    H143344   6.616   6.598  11.460  0.3773  0.0609 -0.8742
 6383TIP3    H243345   6.485   6.671  11.436 -1.4802 -1.1671  4.1801
 6384TIP3   OH243346   7.031   0.461  11.657 -0.0780  0.2186 -0.0755
 6384TIP3    H143347   7.076   0.546  11.663 -0.7996  0.5134  2.7644
 6384TIP3    H243348   6.945   0.482  11.620  0.5294  0.3253 -1.4897
 6385TIP3   OH243349   2.558   3.089  11.700 -0.2821 -0.1572 -0.6056
 6385TIP3    H143350   2.607   3.026  11.648  0.1930 -0.4403  0.1725
 6385TIP3    H243351   2.493   3.125  11.639 -0.8586 -1.7155 -0.9648
 6386TIP3   OH243352   4.430   1.154  12.531 -0.3727  0.0314 -0.0989
 6386TIP3    H143353   4.464   1.132  12.444  1.2724  1.7547  0.0459
 6386TIP3    H243354   4.431   1.250  12.533  1.6312  0.0444  2.5265
 6387TIP3   OH243355   4.891   1.634  11.138  0.1482 -0.7048 -0.2872
 6387TIP3    H143356   4.847   1.719  11.129  1.4336  0.0590  0.2385
 6387TIP3    H243357   4.842   1.588  11.206 -0.6522 -0.4463 -0.6804
 6388TIP3   OH243358   3.222   7.246  12.350 -0.1935  0.2187 -0.2846
 6388TIP3    H143359   3.311   7.257  12.384 -0.7884  0.8255  1.1751
 6388TIP3    H243360   3.230   7.262  12.256  0.9204  2.3478  0.1102
 6389TIP3   OH243361   4.283   7.173  12.109 -0.1860 -0.3499  0.1431
 6389TIP3    H143362   4.376   7.161  12.090 -0.1308 -0.1892  0.3110
 6389TIP3    H243363   4.238   7.123  12.040  0.0333 -2.5556  1.4955
 6390TIP3   OH243364   2.708   4.738  10.692  0.4685 -0.3914  0.4932
 6390TIP3    H143365   2.658   4.798  10.748 -0.4326  0.1984 -0.8984
 6390TIP3    H243366   2.659   4.656  10.694 -0.5643  0.1597 -0.8000
 6391TIP3   OH243367   3.728   2.934  11.597  0.3315 -0.2233  0.0892
 6391TIP3    H143368   3.723   3.021  11.556  1.3168 -0.3598 -0.3514
 6391TIP3    H243369   3.779   2.882  11.535 -0.0689 -1.0648  0.4546
 6392TIP3   OH243370   4.436   5.600  12.134 -0.8246  0.1994  0.0727
 6392TIP3    H143371   4.369   5.592  12.066 -1.3846  0.2027  0.6194
 6392TIP3    H243372   4.434   5.692  12.159  0.6723  0.6162 -1.1932
 6393TIP3   OH243373   4.359   3.231  10.761  0.1767 -0.4685  0.0444
 6393TIP3    H143374   4.343   3.325  10.759  0.9674 -0.3338 -0.7634
 6393TIP3    H243375   4.272   3.192  10.765 -0.1363  0.2999  1.1992
 6394TIP3   OH243376   1.359   7.343  11.102  0.2636  0.0212  0.0288
 6394TIP3    H143377   1.372   7.253  11.071 -0.7313  0.3030 -1.2852
 6394TIP3    H243378   1.367   7.336  11.197 -3.3720 -2.1588  0.3739
 6395TIP3   OH243379   3.243   1.752  12.116 -0.0217  0.0179 -0.0742
 6395TIP3    H143380   3.185   1.825  12.092  0.0264 -0.1202 -0.6267
 6395TIP3    H243381   3.326   1.793  12.139  0.1577  0.1149 -0.8594
 6396TIP3   OH243382   4.556   0.792  18.407  0.5477  0.0006  0.1066
 6396TIP3    H143383   4.553   0.788  18.503  1.3666 -0.1095  0.1295
 6396TIP3    H243384   4.617   0.863  18.388 -0.6548  0.9583 -0.3383
 6397TIP3   OH243385   3.766   0.284  11.039  0.1471  0.1157 -0.2797
 6397TIP3    H143386   3.822   0.346  10.992 -1.1182 -0.0142 -2.0757
 6397TIP3    H243387   3.786   0.199  10.999  0.5636 -0.3793  0.9253
 6398TIP3   OH243388   6.958   5.400  12.722  0.3561 -0.2495  0.5922
 6398TIP3    H143389   7.025   5.461  12.691 -0.0539 -0.6618 -1.2232
 6398TIP3    H243390   6.918   5.366  12.642 -0.6954 -1.4898  1.6056
 6399TIP3   OH243391   6.055   4.998  11.479 -0.1159  0.2277 -0.4289
 6399TIP3    H143392   6.070   5.069  11.542  0.6337 -1.3709  1.2741
 6399TIP3    H243393   6.134   4.996  11.425  1.2701 -1.1955  1.5051
 6400TIP3   OH243394   7.134   4.476  13.305  0.2233 -0.3515  0.4580
 6400TIP3    H143395   7.105   4.390  13.336  1.6043 -1.4223 -1.0133
 6400TIP3    H243396   7.071   4.538  13.342 -0.4651 -1.9244  2.0483
 6401TIP3   OH243397   3.780   7.385  12.106 -0.0764  0.8818 -0.3314
 6401TIP3    H143398   3.870   7.361  12.124 -0.2678  1.0838  1.0085
 6401TIP3    H243399   3.757   7.337  12.026  0.4411 -1.1390  0.6665
 6402TIP3   OH243400   1.108   2.970  12.058 -0.3099  0.4364  0.2812
 6402TIP3    H143401   1.090   2.878  12.078 -1.4464  0.5830 -0.0119
 6402TIP3    H243402   1.120   2.972  11.963  0.4429  0.4812  0.3729
 6403TIP3   OH243403   4.506   6.928  11.630 -0.1691  0.0086 -0.4499
 6403TIP3    H143404   4.577   6.992  11.632  0.5883 -0.8447  0.6039
 6403TIP3    H243405   4.503   6.899  11.539 -0.4729  1.4560 -0.9377
 6404TIP3   OH243406   1.239   5.663  11.571  0.2495  0.4285  0.3952
 6404TIP3    H143407   1.158   5.613  11.560  0.1269  0.8053 -0.4774
 6404TIP3    H243408   1.210   5.754  11.578  0.5622  0.5090  0.6821
 6405TIP3   OH243409   3.293   4.568  12.993  0.0701  0.2819 -0.4101
 6405TIP3    H143410   3.317   4.533  13.079 -1.0296  0.8427  0.1488
 6405TIP3    H243411   3.376   4.596  12.955  0.9293 -2.2260 -0.5976
 6406TIP3   OH243412   7.409   7.283  11.091 -0.5393 -0.2337 -0.4004
 6406TIP3    H143413   7.339   7.346  11.075 -0.5472 -0.5454 -1.7514
 6406TIP3    H243414   7.371   7.199  11.065  0.0522 -0.5389 -0.2981
 6407TIP3   OH243415   1.394   2.051  11.298 -0.6133  0.4238 -0.0654
 6407TIP3    H143416   1.352   2.077  11.216 -0.8829  1.1938  0.3094
 6407TIP3    H243417   1.452   1.979  11.273 -0.6050  0.7232 -0.9542
 6408TIP3   OH243418   0.403   6.589  11.958 -0.2531  0.3678  0.0008
 6408TIP3    H143419   0.483   6.536  11.961 -0.6080 -0.2624 -1.0951
 6408TIP3    H243420   0.431   6.676  11.986  0.6771  0.0040  0.2499
 6409TIP3   OH243421   7.632   6.466  10.813  0.1174  0.3320  0.2506
 6409TIP3    H143422   7.627   6.419  10.896  1.9910  1.5049  1.1005
 6409TIP3    H243423   7.627   6.559  10.839  0.0265  0.6905 -1.0128
 6410TIP3   OH243424   5.541   2.474  11.710 -0.6643  0.0207  0.6297
 6410TIP3    H143425   5.452   2.489  11.678 -0.3927 -0.0516 -0.2005
 6410TIP3    H243426   5.594   2.470  11.630 -0.2768 -2.4891  0.9212
 6411TIP3   OH243427   6.519   5.092  11.196  0.1757  0.0141  0.2797
 6411TIP3    H143428   6.544   5.014  11.246  0.5246  0.7194  1.2442
 6411TIP3    H243429   6.491   5.059  11.111  1.4394 -1.0597  0.2576
 6412TIP3   OH243430   1.761   7.177  10.293 -0.2075  0.2184 -0.2983
 6412TIP3    H143431   1.705   7.226  10.353 -1.9151  0.5282 -2.0467
 6412TIP3    H243432   1.706   7.105  10.262  0.8813 -0.3834 -0.8964
 6413TIP3   OH243433   1.129   6.533  12.166  0.2904  0.0104  0.5018
 6413TIP3    H143434   1.211   6.556  12.123 -0.0920  1.1077  0.3283
 6413TIP3    H243435   1.096   6.458  12.115  1.8334 -1.3625  1.4211
 6414TIP3   OH243436   3.982   5.854  13.440 -0.0148  0.1760  0.2319
 6414TIP3    H143437   4.034   5.774  13.443 -1.7260 -1.0230 -0.2735
 6414TIP3    H243438   4.041   5.921  13.406  1.1184 -1.1771 -0.5629
 6415TIP3   OH243439   3.685   5.061  12.086  0.1492 -0.1772  0.2457
 6415TIP3    H143440   3.726   5.025  12.165 -2.5679  3.0549  3.5409
 6415TIP3    H243441   3.733   5.141  12.068  0.5962 -0.7683 -1.3481
 6416TIP3   OH243442   4.391   2.978  10.899 -0.4012  0.4842  0.0746
 6416TIP3    H143443   4.381   3.070  10.875  0.4166  0.9961  1.5504
 6416TIP3    H243444   4.452   2.979  10.974  0.3724 -1.3282 -0.4641
 6417TIP3   OH243445   0.806   5.086  12.685 -0.3399  0.1107  0.1295
 6417TIP3    H143446   0.896   5.117  12.673 -0.6422  0.5662 -1.0908
 6417TIP3    H243447   0.800   5.006  12.634 -0.3229 -0.5518  1.1320
 6418TIP3   OH243448   6.294   3.236  11.399  0.5338  0.0794  0.5453
 6418TIP3    H143449   6.292   3.220  11.493 -1.1801  0.3732  0.5897
 6418TIP3    H243450   6.293   3.149  11.360 -0.9637 -0.0560  0.8190
 6419TIP3   OH243451   1.965   3.261  10.825 -0.1404 -0.5155  0.9875
 6419TIP3    H143452   1.986   3.314  10.901  0.6286 -0.6241  0.8648
 6419TIP3    H243453   1.883   3.296  10.792  0.9821  1.4523  0.1458
 6420TIP3   OH243454   4.053   4.465  11.865  0.2594  0.2599 -0.2680
 6420TIP3    H143455   4.081   4.373  11.861 -1.2643 -0.3046  0.8850
 6420TIP3    H243456   4.134   4.515  11.855  1.2274 -1.2114 -0.2199
 6421TIP3   OH243457   1.173   1.408  12.988 -0.1922  0.5737 -0.2529
 6421TIP3    H143458   1.141   1.397  12.898 -0.4046  1.1896 -0.2536
 6421TIP3    H243459   1.264   1.378  12.984  0.2510  1.9389 -1.0097
 6422TIP3   OH243460   0.719   1.650  11.011 -0.1390 -0.0159  0.3791
 6422TIP3    H143461   0.665   1.621  11.084  0.2873 -0.5598  0.4856
 6422TIP3    H243462   0.660   1.652  10.935 -0.7207  1.0885  0.8334
 6423TIP3   OH243463   6.921   4.483  10.654  0.1020  0.4735 -0.3360
 6423TIP3    H143464   6.917   4.510  10.746  2.8247 -0.3050  0.1196
 6423TIP3    H243465   7.012   4.502  10.628  0.8258 -3.5825 -1.4241
 6424TIP3   OH243466   6.484   2.108  10.704  0.3690  0.1739 -0.0642
 6424TIP3    H143467   6.462   2.133  10.615  1.1655  0.9837 -0.0555
 6424TIP3    H243468   6.507   2.191  10.747  0.4146 -0.2576  0.7643
 6425TIP3   OH243469   5.225   2.225  11.682 -0.3833 -0.7051  0.1050
 6425TIP3    H143470   5.235   2.297  11.745 -1.1147 -0.9417  0.5085
 6425TIP3    H243471   5.311   2.183  11.679  0.0525  0.1670 -0.1232
 6426TIP3   OH243472   2.446   0.599  11.013  0.6103  0.3079  0.7374
 6426TIP3    H143473   2.384   0.631  11.078 -1.8850 -1.1906 -0.7760
 6426TIP3    H243474   2.437   0.659  10.939 -0.5632 -1.0358 -0.2524
 6427TIP3   OH243475   5.514   0.795  12.280  0.1527 -0.0087 -0.6135
 6427TIP3    H143476   5.469   0.821  12.361  0.8677  1.4515 -0.6451
 6427TIP3    H243477   5.483   0.707  12.262 -1.7087  0.4617  0.0578
 6428TIP3   OH243478   6.209   6.278  11.689 -0.3058  0.3059 -0.4989
 6428TIP3    H143479   6.277   6.211  11.687  0.0882  0.6400  1.0277
 6428TIP3    H243480   6.255   6.360  11.671  0.0342  0.7526  2.0571
 6429TIP3   OH243481   5.235   2.485  11.980 -0.4070 -0.0850 -0.2547
 6429TIP3    H143482   5.225   2.509  11.889 -0.4849  1.6804  0.1884
 6429TIP3    H243483   5.151   2.507  12.021 -0.4927 -1.1599  0.1921
 6430TIP3   OH243484   1.700   0.967  12.588 -0.1942  0.8570  0.3931
 6430TIP3    H143485   1.721   0.990  12.678 -2.4559  0.5878  1.0375
 6430TIP3    H243486   1.634   1.030  12.561 -0.3077  0.2981 -0.7149
 6431TIP3   OH243487   7.439   5.721  11.021  0.0433  0.4268 -0.1639
 6431TIP3    H143488   7.377   5.656  11.054 -0.0396  0.0346 -1.0608
 6431TIP3    H243489   7.398   5.805  11.038  0.5280  0.3126  1.7950
 6432TIP3   OH243490   0.164   1.677  11.138 -0.3137  0.0647 -0.4615
 6432TIP3    H143491   0.181   1.612  11.206  2.3268  0.3885 -0.7009
 6432TIP3    H243492   0.069   1.674  11.125 -0.8502 -0.3672  2.8097
 6433TIP3   OH243493   3.337   6.654  10.492  0.2588  0.0857  0.4602
 6433TIP3    H143494   3.263   6.697  10.536  0.5989 -0.3018  1.4419
 6433TIP3    H243495   3.390   6.726  10.459 -0.0341  0.3904  0.6429
 6434TIP3   OH243496   1.006   5.132  11.149  0.2259  0.2910 -0.0974
 6434TIP3    H143497   1.052   5.144  11.066  0.1478 -0.1474 -0.2090
 6434TIP3    H243498   0.921   5.096  11.124  0.0125  0.6188  0.1410
 6435TIP3   OH243499   4.192   5.505  11.094 -0.2180 -0.4195  0.0413
 6435TIP3    H143500   4.150   5.481  11.177  1.1310 -1.3086  0.4960
 6435TIP3    H243501   4.283   5.520  11.117 -0.0574  0.4456 -1.1013
 6436TIP3   OH243502   6.177   0.228  12.949  0.2525 -0.2554 -0.3244
 6436TIP3    H143503   6.134   0.281  13.015  2.2672  1.5446 -0.3494
 6436TIP3    H243504   6.119   0.233  12.872 -0.9426 -0.4295  0.5395
 6437TIP3   OH243505   4.234   6.229  11.587 -0.0303 -0.3621 -0.3973
 6437TIP3    H143506   4.161   6.194  11.639  1.0292 -1.2258  0.5879
 6437TIP3    H243507   4.309   6.173  11.611  1.3276  1.4701 -0.1598
 6438TIP3   OH243508   4.757   2.136  10.726 -0.3080 -0.4124  0.5757
 6438TIP3    H143509   4.702   2.132  10.648  0.0027 -0.4473  0.3530
 6438TIP3    H243510   4.825   2.200  10.704 -0.4748 -0.0883  0.9868
 6439TIP3   OH243511   2.009   5.237  13.437  0.1011 -0.0448 -0.1955
 6439TIP3    H143512   2.104   5.246  13.443  0.3399 -1.7872 -0.6646
 6439TIP3    H243513   1.988   5.162  13.492 -0.9178 -0.0618 -0.5748
 6440TIP3   OH243514   7.565   1.631  10.435 -0.4598 -0.2938 -0.3380
 6440TIP3    H143515   7.581   1.536  10.436  0.1277 -0.2311 -1.6468
 6440TIP3    H243516   7.642   1.667  10.391 -0.3770  0.8692  0.7187
 6441TIP3   OH243517   6.507   4.756  10.949 -0.5353  0.7959 -0.0811
 6441TIP3    H143518   6.527   4.739  10.856  0.2107  0.2988  0.1594
 6441TIP3    H243519   6.480   4.848  10.951  0.0523  0.9911 -0.7063
 6442TIP3   OH243520   4.739   3.268  11.515 -0.2567 -0.3109  0.3688
 6442TIP3    H143521   4.734   3.172  11.512 -0.9319 -0.3673  2.2946
 6442TIP3    H243522   4.648   3.296  11.527  0.1003  0.4785  1.3569
 6443TIP3   OH243523   5.398   0.181  13.022  0.5945 -0.1277 -0.2735
 6443TIP3    H143524   5.447   0.172  12.940  0.5223  0.1187 -0.3432
 6443TIP3    H243525   5.397   0.275  13.039  0.2745 -0.1450 -0.1945
 6444TIP3   OH243526   0.958   2.638  13.030 -0.0136  0.1267  0.6110
 6444TIP3    H143527   0.894   2.697  13.071  0.0323 -0.5334  1.6677
 6444TIP3    H243528   0.916   2.610  12.948 -0.7331  0.3454  0.8976
 6445TIP3   OH243529   2.132   0.108  12.935  0.2414 -0.4849 -0.3250
 6445TIP3    H143530   2.166   0.132  12.848 -1.6578  0.9265 -0.7350
 6445TIP3    H243531   2.131   0.013  12.935 -0.2153 -0.5123 -2.0659
 6446TIP3   OH243532   4.315   7.181  11.417 -0.0988  0.3017  0.0156
 6446TIP3    H143533   4.291   7.101  11.370  1.2238  0.3509 -0.7798
 6446TIP3    H243534   4.349   7.150  11.501  2.0784 -0.1537 -0.9598
 6447TIP3   OH243535   4.350   0.035  12.093 -0.1740 -0.1527  0.0032
 6447TIP3    H143536   4.302  -0.026  12.038  0.4653  0.1570 -0.9152
 6447TIP3    H243537   4.295   0.113  12.096 -0.3024 -0.2416 -0.0370
 6448TIP3   OH243538   0.603   5.442  11.652 -0.3908 -0.7160  0.4769
 6448TIP3    H143539   0.652   5.516  11.616 -2.3891  1.4942  1.9238
 6448TIP3    H243540   0.604   5.457  11.747  1.1282 -3.9597  1.0998
 6449TIP3   OH243541   1.522   5.858  12.663 -0.2189 -0.5347  0.6583
 6449TIP3    H143542   1.606   5.813  12.654 -0.4177 -0.7503 -0.2037
 6449TIP3    H243543   1.492   5.836  12.751  0.2405 -1.1241  0.6744
 6450TIP3   OH243544   5.263   7.176  12.179 -0.2136 -0.2272 -0.1501
 6450TIP3    H143545   5.241   7.098  12.128  1.7340 -0.2628 -1.0338
 6450TIP3    H243546   5.179   7.220  12.193 -1.0545 -1.2126 -1.7619
 6451TIP3   OH243547   4.455   2.125  11.809 -0.0998 -0.1018  0.3539
 6451TIP3    H143548   4.466   2.204  11.755  0.9433  1.3959  2.5979
 6451TIP3    H243549   4.543   2.108  11.843 -0.3567 -2.1550  0.1125
 6452TIP3   OH243550   3.508   5.573  13.085  0.4124  0.6469  0.6295
 6452TIP3    H143551   3.442   5.578  13.154 -0.2928  0.5658 -0.0215
 6452TIP3    H243552   3.563   5.498  13.110 -0.5672 -0.1444  0.4920
 6453TIP3   OH243553   1.263   5.318  11.744 -0.3426 -0.1093 -0.2740
 6453TIP3    H143554   1.221   5.310  11.658 -2.3761  0.2052  0.6538
 6453TIP3    H243555   1.195   5.353  11.801  1.3047  0.7670  1.2310
 6454TIP3   OH243556   1.608   1.219  11.706 -0.5175  0.0133  0.3380
 6454TIP3    H143557   1.633   1.269  11.784 -0.7653 -1.0992  1.1594
 6454TIP3    H243558   1.533   1.268  11.670 -0.5779  0.3950  0.9568
 6455TIP3   OH243559   0.995   3.588  11.300 -0.4109 -0.1211 -0.3553
 6455TIP3    H143560   0.926   3.655  11.304 -0.0570  0.1825  0.9462
 6455TIP3    H243561   0.975   3.528  11.371  2.5313  1.8833  2.4515
 6456TIP3   OH243562   4.709   2.615  11.452  0.8216  0.2327 -0.1443
 6456TIP3    H143563   4.641   2.671  11.492  1.4400 -0.2673  1.7200
 6456TIP3    H243564   4.774   2.604  11.522  2.8074  0.6155 -1.8353
 6457TIP3   OH243565   0.310   5.278  11.478 -0.0913 -0.2593  0.3140
 6457TIP3    H143566   0.279   5.248  11.564 -1.2438  0.3958  0.1519
 6457TIP3    H243567   0.335   5.369  11.493 -0.5082 -0.0761 -0.0888
 6458TIP3   OH243568   2.024   7.287  11.232 -0.4041 -0.1824 -0.5745
 6458TIP3    H143569   2.027   7.280  11.328 -0.4427 -0.7839 -0.6122
 6458TIP3    H243570   1.967   7.361  11.215 -0.4652 -0.1247 -0.1288
 6459TIP3   OH243571   2.230   6.358  11.747  0.1185 -0.2327 -1.0498
 6459TIP3    H143572   2.307   6.304  11.730  0.7027  0.6629 -1.3236
 6459TIP3    H243573   2.216   6.351  11.841  0.6900 -0.2131 -0.9581
 6460TIP3   OH243574   6.161   7.142  13.362 -0.2710 -0.2292 -0.4955
 6460TIP3    H143575   6.241   7.109  13.405  0.6290  0.1106 -1.8407
 6460TIP3    H243576   6.152   7.087  13.284  0.3521  1.5864 -1.9290
 6461TIP3   OH243577   3.576   4.660  11.601 -0.5760 -0.1640  0.2149
 6461TIP3    H143578   3.630   4.708  11.538  0.2043  0.7667  1.5346
 6461TIP3    H243579   3.490   4.656  11.560 -0.3082  1.1828 -0.5459
 6462TIP3   OH243580   6.871   0.837  10.728 -0.4177 -0.1774  0.0912
 6462TIP3    H143581   6.823   0.756  10.745 -1.4280  0.3994  0.0554
 6462TIP3    H243582   6.858   0.852  10.634 -0.2221  0.0221  0.0958
 6463TIP3   OH243583   3.766   7.090  12.129  0.4319 -0.3967  0.1016
 6463TIP3    H143584   3.858   7.068  12.112  1.1938 -0.0853  3.2383
 6463TIP3    H243585   3.738   7.025  12.194 -0.2842  1.8181  2.1615
 6464TIP3   OH243586   5.055   5.718  12.197  0.5655 -0.4513 -0.1016
 6464TIP3    H143587   4.960   5.727  12.195  0.6095  0.6221  1.3000
 6464TIP3    H243588   5.088   5.803  12.167  1.0731 -0.6156 -0.0215
 6465TIP3   OH243589   2.915   3.781  11.880  0.3693 -0.3639  0.0765
 6465TIP3    H143590   2.931   3.809  11.790 -0.7994 -0.8285 -0.2980
 6465TIP3    H243591   2.897   3.862  11.928 -1.8229 -0.2907 -0.7461
 6466TIP3   OH243592   0.921   3.243  12.466 -0.4698  0.3731 -0.2705
 6466TIP3    H143593   1.008   3.248  12.505 -1.1600 -0.0155  1.4012
 6466TIP3    H243594   0.897   3.151  12.472 -1.6199  0.7024  0.8130
 6467TIP3   OH243595   1.940   2.137  11.654  0.4632  0.0374  0.2339
 6467TIP3    H143596   1.876   2.067  11.640  1.5716 -0.4899 -2.9255
 6467TIP3    H243597   2.021   2.091  11.676  0.7596  0.4338 -0.0257
 6468TIP3   OH243598   7.643   5.577  10.860 -0.1072  0.3176  0.2510
 6468TIP3    H143599   7.584   5.649  10.883 -0.1975  0.3343 -0.0338
 6468TIP3    H243600   7.730   5.617  10.857 -0.3862  0.8674 -1.8864
 6469TIP3   OH243601   5.813   1.877  11.608  0.0746  0.1226 -0.5204
 6469TIP3    H143602   5.901   1.912  11.596 -0.4481  1.8453  0.3861
 6469TIP3    H243603   5.759   1.923  11.544 -0.3063 -0.3575 -0.5509
 6470TIP3   OH243604   6.911   2.417  10.854  0.2795 -0.1661  0.5500
 6470TIP3    H143605   6.820   2.413  10.885  0.4762 -0.0159  1.1588
 6470TIP3    H243606   6.920   2.505  10.817 -0.4393 -0.8871 -1.5073
 6471TIP3   OH243607   3.399   1.585  11.720 -0.1388 -0.0638 -0.1219
 6471TIP3    H143608   3.378   1.663  11.772 -0.2334  0.7511 -1.3505
 6471TIP3    H243609   3.487   1.601  11.687 -0.2335 -0.3936 -0.5427
 6472TIP3   OH243610   4.785   4.826  11.831 -0.2404  0.2096  0.3430
 6472TIP3    H143611   4.779   4.907  11.781 -0.1108 -0.7741 -1.3385
 6472TIP3    H243612   4.763   4.851  11.921  1.1245  2.3350  0.1395
 6473TIP3   OH243613   1.419   0.348  10.718 -0.4859  0.0309 -0.1679
 6473TIP3    H143614   1.432   0.415  10.651 -1.1779 -0.8672 -1.2480
 6473TIP3    H243615   1.344   0.380  10.769  0.3666  0.9704  0.5473
 6474TIP3   OH243616   7.620   3.361  13.328  0.4212  0.5826 -0.2184
 6474TIP3    H143617   7.673   3.440  13.336  0.9424  0.3315 -1.0657
 6474TIP3    H243618   7.560   3.380  13.256 -0.3332  0.6821  0.4205
 6475TIP3   OH243619   5.970   6.303  10.850 -0.2289 -0.2728  0.3439
 6475TIP3    H143620   5.922   6.267  10.924 -1.6320  0.7299 -0.0346
 6475TIP3    H243621   5.907   6.358  10.805  0.4134 -1.2790 -1.9304
 6476TIP3   OH243622   3.554   5.427  11.575  0.2712  0.6981 -0.1970
 6476TIP3    H143623   3.504   5.389  11.647  1.0199 -0.1855 -0.1369
 6476TIP3    H243624   3.506   5.507  11.553 -1.9863 -0.7771 -1.0569
 6477TIP3   OH243625   0.394   6.902  12.157 -0.2252 -0.9892  0.2733
 6477TIP3    H143626   0.424   6.907  12.066  1.0114 -0.0282  0.6866
 6477TIP3    H243627   0.453   6.838  12.198 -2.0738 -2.9749 -0.0182
 6478TIP3   OH243628   1.933   5.208  11.155 -0.3732  0.0136 -0.2043
 6478TIP3    H143629   1.854   5.164  11.124 -0.3571  0.1119 -0.3822
 6478TIP3    H243630   1.995   5.198  11.084 -0.5018  0.6861 -0.4107
 6479TIP3   OH243631   1.811   4.276  12.961 -0.1221 -0.3193  0.4040
 6479TIP3    H143632   1.878   4.339  12.988 -0.2171 -0.2627  0.5117
 6479TIP3    H243633   1.859   4.210  12.911 -0.2291  0.5858 -0.9418
 6480TIP3   OH243634   6.058   3.394  10.831  0.5451 -0.1071 -0.6919
 6480TIP3    H143635   6.013   3.311  10.838  2.9135 -1.6602 -2.3150
 6480TIP3    H243636   6.036   3.427  10.743  1.0592  0.0461 -0.7704
 6481TIP3   OH243637   4.707   3.290  10.962  0.0188 -0.4178 -0.4631
 6481TIP3    H143638   4.793   3.303  10.923  0.6849  0.1691  1.1398
 6481TIP3    H243639   4.716   3.212  11.017 -1.3461 -2.2104 -2.5840
 6482TIP3   OH243640   3.088   1.302  12.161  0.4942  0.2296  0.6238
 6482TIP3    H143641   3.040   1.250  12.097 -1.0370  0.0612  1.8541
 6482TIP3    H243642   3.147   1.240  12.203  0.2001 -0.0482  0.6283
 6483TIP3   OH243643   1.870   1.795  11.848 -0.0942  0.7167 -0.2365
 6483TIP3    H143644   1.850   1.887  11.865  1.6443  1.6274 -2.5392
 6483TIP3    H243645   1.965   1.793  11.833 -0.3683 -1.0330 -2.3643
 6484TIP3   OH243646   0.446   5.115  12.827 -0.4992 -0.0459  0.3169
 6484TIP3    H143647   0.428   5.101  12.734  1.9608  0.4403 -0.2995
 6484TIP3    H243648   0.422   5.206  12.843  1.0354  0.5232 -0.4243
 6485TIP3   OH243649   2.045   5.356  11.571 -0.3096 -0.1691 -0.2440
 6485TIP3    H143650   2.133   5.320  11.581 -0.3374 -0.1445  0.0960
 6485TIP3    H243651   2.036   5.418  11.643 -0.9172 -0.7974  0.2405
 6486TIP3   OH243652   3.404   0.095  10.905  0.2267  0.0419 -0.2240
 6486TIP3    H143653   3.334   0.097  10.840  0.1273  0.6309 -0.1051
 6486TIP3    H243654   3.485   0.100  10.854  0.3265 -2.8603 -0.5345
 6487TIP3   OH243655   7.174   6.853  13.009 -0.8206  0.5546 -0.2575
 6487TIP3    H143656   7.185   6.762  13.039 -2.0767 -0.1180 -1.6975
 6487TIP3    H243657   7.221   6.905  13.074  0.9992 -1.1987 -0.0423
 6488TIP3   OH243658   7.618   4.542  10.448  0.0301  0.4054 -0.1179
 6488TIP3    H143659   7.579   4.569  10.365 -1.2274 -0.4398  0.1784
 6488TIP3    H243660   7.696   4.597  10.456  0.2472  0.4270 -1.9064
 6489TIP3   OH243661   1.023   1.281  11.354  0.5550 -0.2658 -0.0551
 6489TIP3    H143662   1.014   1.280  11.259  0.5215 -0.4601 -0.0510
 6489TIP3    H243663   0.933   1.275  11.387  0.5219  0.3684 -0.0077
 6490TIP3   OH243664   3.055   7.098  11.227  0.5463 -0.2919 -0.7868
 6490TIP3    H143665   2.990   7.153  11.183 -0.8019 -1.2104 -0.0088
 6490TIP3    H243666   3.138   7.143  11.211 -0.1111  0.3770 -2.6864
 6491TIP3   OH243667   1.311   4.715  12.865 -0.0726  0.3715  0.3150
 6491TIP3    H143668   1.367   4.791  12.857 -0.2026  0.3539 -0.9527
 6491TIP3    H243669   1.284   4.695  12.776 -1.2105 -0.2850  0.7762
 6492TIP3   OH243670   0.948   2.439  12.148 -0.5651 -0.5023  0.3217
 6492TIP3    H143671   1.018   2.402  12.202 -0.5844 -0.5530  0.3126
 6492TIP3    H243672   0.962   2.533  12.150  0.7983 -0.6234 -1.4438
 6493TIP3   OH243673   2.757   1.328  10.921  0.8800  0.4098 -0.7467
 6493TIP3    H143674   2.701   1.384  10.976 -1.1793 -0.2497 -2.0376
 6493TIP3    H243675   2.822   1.292  10.981 -1.4326 -0.4980  1.3844
 6494TIP3   OH243676   3.527   4.761  11.866  0.3271 -0.1414  0.1944
 6494TIP3    H143677   3.529   4.710  11.785 -0.7775  1.3794 -0.8473
 6494TIP3    H243678   3.611   4.808  11.866  0.4831 -0.4184  0.1124
 6495TIP3   OH243679   7.315   4.518  13.082 -0.3519 -0.1839  0.2799
 6495TIP3    H143680   7.390   4.538  13.138 -1.0573  3.8464  0.1095
 6495TIP3    H243681   7.238   4.532  13.138 -1.0288 -0.7684 -0.4764
 6496TIP3   OH243682   6.852   4.174  10.688  0.0931 -0.0543  0.0262
 6496TIP3    H143683   6.853   4.257  10.641 -2.0596  0.4750  0.8250
 6496TIP3    H243684   6.944   4.156  10.707  0.7240  1.3655 -1.4588
 6497TIP3   OH243685   0.056   0.985  12.296 -0.5711 -0.2308  0.4715
 6497TIP3    H143686   0.054   1.044  12.221  0.1090  0.1070  0.7029
 6497TIP3    H243687   0.116   0.915  12.269 -0.1301  0.0192  0.7747
 6498TIP3   OH243688   4.318   7.340  12.958 -0.0946 -0.8843  0.3557
 6498TIP3    H143689   4.326   7.433  12.938 -1.6874 -1.0378 -1.3411
 6498TIP3    H243690   4.254   7.335  13.029 -0.6811 -0.6920 -0.1459
 6499TIP3   OH243691   7.275   6.068  12.052  0.0556 -0.1714 -0.4335
 6499TIP3    H143692   7.315   6.155  12.062 -0.8959  0.1456  0.9926
 6499TIP3    H243693   7.193   6.075  12.100  0.7897 -2.3722  1.3103
 6500TIP3   OH243694   2.933   1.531  10.769 -0.5617  0.3120  0.7255
 6500TIP3    H143695   2.849   1.487  10.781 -1.0068  0.9166  0.0072
 6500TIP3    H243696   2.948   1.529  10.674 -0.7282  1.8726  0.6251
 6501TIP3   OH243697   3.169   1.445  11.667  0.3761  0.3987  0.3963
 6501TIP3    H143698   3.260   1.471  11.654  0.9323 -0.3119  2.5151
 6501TIP3    H243699   3.173   1.376  11.733 -1.8221  1.5117  1.8027
 6502TIP3   OH243700   2.943   5.681  10.759  0.1215 -0.2035 -0.4219
 6502TIP3    H143701   2.942   5.753  10.821  1.6324 -0.3041 -0.2456
 6502TIP3    H243702   3.036   5.669  10.738 -0.1315 -1.8526 -0.7177
 6503TIP3   OH243703   1.865   3.562  12.914 -0.4514  0.0831 -0.0343
 6503TIP3    H143704   1.957   3.544  12.934 -0.6892 -0.3020  0.7840
 6503TIP3    H243705   1.868   3.625  12.843  0.4480 -0.5429 -0.5851
 6504TIP3   OH243706   0.469   2.013  12.707 -0.5685 -0.2875  0.3232
 6504TIP3    H143707   0.504   2.068  12.777  0.3059 -1.6367  0.9902
 6504TIP3    H243708   0.527   1.936  12.705 -1.2476 -0.8074 -1.1269
 6505TIP3   OH243709   6.333   2.873  12.526 -0.5896 -0.3588 -0.6363
 6505TIP3    H143710   6.389   2.939  12.486 -0.0716 -0.1727  0.3660
 6505TIP3    H243711   6.244   2.908  12.517 -0.3068  0.5524  0.0172
 6506TIP3   OH243712   0.375   2.913  12.482  0.2106  0.0164  0.1433
 6506TIP3    H143713   0.361   2.819  12.475  1.2676 -0.0371 -3.3479
 6506TIP3    H243714   0.308   2.952  12.427  1.8653  0.9814 -1.3089
 6507TIP3   OH243715   6.076   5.704  10.673 -0.4132  0.1673  0.0573
 6507TIP3    H143716   5.983   5.693  10.692 -0.3338  0.8627  0.8979
 6507TIP3    H243717   6.093   5.797  10.688  0.5080 -0.0340  0.3496
 6508TIP3   OH243718   7.451   3.804  11.657 -0.2433  0.1454  0.4422
 6508TIP3    H143719   7.464   3.826  11.565  0.0946 -0.6389  0.2916
 6508TIP3    H243720   7.439   3.888  11.701 -1.5717  0.4683 -0.4857
 6509TIP3   OH243721   3.819   2.068  11.448  0.2544  0.6434 -0.1550
 6509TIP3    H143722   3.860   2.059  11.534 -0.4721  2.0681  0.3893
 6509TIP3    H243723   3.755   1.997  11.443  0.2403  0.6082  0.5303
 6510TIP3   OH243724   4.392   1.587  10.170  0.3705 -0.0566 -0.0970
 6510TIP3    H143725   4.406   1.677  10.197 -0.2205  0.5903 -1.8130
 6510TIP3    H243726   4.474   1.542  10.191 -0.0738  0.3152  2.7777
 6511TIP3   OH243727   0.773   3.366  12.291  0.1674  0.0225  0.0953
 6511TIP3    H143728   0.829   3.341  12.365 -0.8293 -1.6677  0.3162
 6511TIP3    H243729   0.696   3.311  12.299 -1.1290  1.6257 -0.7710
 6512TIP3   OH243730   5.991   3.402  11.411  0.3471  0.0442  0.0120
 6512TIP3    H143731   5.979   3.379  11.319  0.5484 -1.3189  0.3050
 6512TIP3    H243732   5.906   3.436  11.439 -0.1601 -0.9129 -0.3117
 6513TIP3   OH243733   6.466   5.211  12.648  0.0594 -0.3558  0.8660
 6513TIP3    H143734   6.555   5.179  12.655  0.1259  0.0645  2.5551
 6513TIP3    H243735   6.451   5.223  12.554  1.6199 -0.8224  0.5316
 6514TIP3   OH243736   6.990   4.168  12.154 -0.1615  0.0119 -0.1053
 6514TIP3    H143737   7.019   4.227  12.224 -1.7154 -0.3326  0.9034
 6514TIP3    H243738   6.977   4.084  12.197 -0.6478 -0.3459 -0.9165
 6515TIP3   OH243739   4.051   7.298  12.512 -0.2196 -0.2353 -0.3838
 6515TIP3    H143740   4.112   7.232  12.543 -0.1369  0.4880  1.0691
 6515TIP3    H243741   4.074   7.377  12.561 -1.7093  0.2869 -0.4797
 6516TIP3   OH243742   1.679   3.842  12.302  0.2613 -0.7331  0.3803
 6516TIP3    H143743   1.674   3.882  12.389  3.9811  0.0685  0.3888
 6516TIP3    H243744   1.609   3.885  12.252 -1.3512 -0.5419  2.6694
 6517TIP3   OH243745   6.543   3.133  12.092  0.3510 -0.1647 -0.1050
 6517TIP3    H143746   6.583   3.211  12.131  0.6215 -0.6856  0.6880
 6517TIP3    H243747   6.571   3.061  12.149 -0.9556 -0.6706 -0.0770
 6518TIP3   OH243748   5.471   6.108  11.742 -0.1146 -0.2231 -0.3242
 6518TIP3    H143749   5.453   6.059  11.822  0.1029  0.4300  0.1304
 6518TIP3    H243750   5.480   6.199  11.771 -1.5613  0.2520 -1.2887
 6519TIP3   OH243751   7.063   0.452  12.700 -0.2888 -0.0605 -0.4974
 6519TIP3    H143752   6.972   0.422  12.700 -0.0341 -0.8767  0.1365
 6519TIP3    H243753   7.114   0.371  12.696  0.4421  0.1456  2.3917
 6520TIP3   OH243754   4.095   6.307  12.945 -0.2458 -0.1495 -0.1620
 6520TIP3    H143755   4.040   6.344  13.014 -0.4602 -0.5568 -0.1112
 6520TIP3    H243756   4.131   6.227  12.984  1.8863  1.0499  0.4809
 6521TIP3   OH243757   4.194   3.598  12.723  0.3107 -0.4271 -0.2815
 6521TIP3    H143758   4.168   3.639  12.640  1.3671  0.3837 -0.2342
 6521TIP3    H243759   4.208   3.671  12.783 -0.6742 -1.0189  0.6962
 6522TIP3   OH243760   4.976   3.932  12.634  0.1981 -0.0303  0.3605
 6522TIP3    H143761   4.924   3.897  12.562  1.1679 -0.8421  0.0224
 6522TIP3    H243762   4.914   3.981  12.688 -0.6911 -0.0796 -0.5949
 6523TIP3   OH243763   4.811   1.893  10.509 -0.3985  0.0414 -0.4457
 6523TIP3    H143764   4.880   1.950  10.478 -0.4795 -1.1303 -3.0550
 6523TIP3    H243765   4.837   1.869  10.598  2.7492 -0.6231 -1.4272
 6524TIP3   OH243766   1.038   0.015  10.796 -0.1255 -0.1667 -0.2944
 6524TIP3    H143767   1.096   0.025  10.721 -0.6114 -1.2550 -0.8294
 6524TIP3    H243768   1.085  -0.045  10.855  1.0490  2.0152  1.1273
 6525TIP3   OH243769   5.346   2.248  10.461  0.0708  0.0512 -0.0485
 6525TIP3    H143770   5.401   2.318  10.428  1.4266  0.5566  3.0335
 6525TIP3    H243771   5.256   2.279  10.446  0.6354  2.1118  0.5429
 6526TIP3   OH243772   6.493   2.198  11.231 -0.5159  0.0861  0.1170
 6526TIP3    H143773   6.523   2.136  11.164  1.3565 -1.6774  2.3845
 6526TIP3    H243774   6.494   2.283  11.188  1.2474 -0.8683 -1.9205
 6527TIP3   OH243775   2.554   2.810  12.742 -0.3734  0.1426 -0.3904
 6527TIP3    H143776   2.567   2.860  12.822 -2.0767 -1.0123  0.6667
 6527TIP3    H243777   2.477   2.849  12.701 -0.8381 -0.6613 -0.3049
 6528TIP3   OH243778   7.300   1.766  11.517  0.2641 -0.7426 -0.6506
 6528TIP3    H143779   7.233   1.734  11.577  0.0604  1.1099  0.1897
 6528TIP3    H243780   7.382   1.728  11.549  0.4015  1.3865  1.8663
 6529TIP3   OH243781   4.351   2.588  12.485 -0.3098  0.1078 -0.2587
 6529TIP3    H143782   4.443   2.594  12.460 -0.0808 -0.4774  0.4212
 6529TIP3    H243783   4.336   2.496  12.504 -0.7562  0.3415  0.6286
 6530TIP3   OH243784   0.732   0.565  11.311  0.3116 -0.2480  0.6687
 6530TIP3    H143785   0.727   0.473  11.282 -2.5794  0.0412 -0.0375
 6530TIP3    H243786   0.674   0.612  11.251 -0.1067  1.6593  2.4493
 6531TIP3   OH243787   2.518   5.957  11.583  0.9853 -0.2651  0.1428
 6531TIP3    H143788   2.532   6.050  11.567  1.5784 -0.1338  1.3304
 6531TIP3    H243789   2.562   5.940  11.666 -0.9209 -1.1656  1.0266
 6532TIP3   OH243790   4.250   6.417  10.732 -0.1199 -0.3274  0.0765
 6532TIP3    H143791   4.202   6.339  10.707  0.2964 -0.8799  0.9292
 6532TIP3    H243792   4.314   6.386  10.797 -1.8063  1.1143  2.6368
 6533TIP3   OH243793   5.041   5.036  10.779 -0.4594  0.1104 -0.3444
 6533TIP3    H143794   5.093   5.069  10.706  3.1313  0.5488  2.1426
 6533TIP3    H243795   4.999   5.113  10.816 -1.2913  0.0681 -1.1738
 6534TIP3   OH243796   3.296   4.337  11.391  0.4018  0.2698  0.0266
 6534TIP3    H143797   3.385   4.304  11.402  0.0648 -1.1864 -1.1535
 6534TIP3    H243798   3.302   4.397  11.316  0.2798 -0.3849 -0.5168
 6535TIP3   OH243799   4.700   5.056  12.634 -0.0444  0.2268 -0.7439
 6535TIP3    H143800   4.736   5.080  12.719  1.9746 -0.8578 -1.2250
 6535TIP3    H243801   4.667   4.967  12.645  0.7211 -0.1228 -1.2244
 6536TIP3   OH243802   4.250   7.504  11.976 -0.7649 -0.1778 -0.5957
 6536TIP3    H143803   4.164   7.465  11.991 -0.7860 -0.6004 -1.7031
 6536TIP3    H243804   4.272   7.479  11.886  1.1164 -1.2196  0.1257
 6537TIP3   OH243805   0.382   6.545  12.865 -0.3889  0.1239  0.0850
 6537TIP3    H143806   0.384   6.623  12.920 -0.7765 -0.1641  0.5132
 6537TIP3    H243807   0.292   6.540  12.833  0.0670  0.8772 -1.4434
 6538TIP3   OH243808   0.642   4.287  13.288  0.4460 -0.3584  0.2103
 6538TIP3    H143809   0.685   4.281  13.202 -1.8641 -0.0745 -1.0492
 6538TIP3    H243810   0.580   4.360  13.279 -2.3029 -2.4219  0.8995
 6539TIP3   OH243811   7.409   3.737  12.675  0.0604 -0.3319 -0.3846
 6539TIP3    H143812   7.413   3.646  12.646 -2.4844  0.2558 -3.0241
 6539TIP3    H243813   7.484   3.779  12.633 -0.3153 -0.6924 -1.4449
 6540TIP3   OH243814   3.272   1.511  10.551 -0.4813  0.3110  0.3648
 6540TIP3    H143815   3.352   1.462  10.566 -1.1707 -0.6047  1.1511
 6540TIP3    H243816   3.218   1.453  10.497 -0.6248  0.9248 -0.1678
 6541TIP3   OH243817   0.900   5.543  12.585  0.2196  0.6488  0.4383
 6541TIP3    H143818   0.950   5.610  12.538  0.6838 -0.0480 -0.0822
 6541TIP3    H243819   0.817   5.586  12.607  1.3914  2.1497  2.2083
 6542TIP3   OH243820   0.889   4.270  10.766 -0.4827 -0.0048  0.0334
 6542TIP3    H143821   0.848   4.356  10.757 -0.8499 -0.0827  0.9019
 6542TIP3    H243822   0.921   4.268  10.856  0.7070 -0.2706 -0.3779
 6543TIP3   OH243823   2.814   5.285  11.154 -0.2725 -0.1015  0.2237
 6543TIP3    H143824   2.856   5.353  11.102  1.3413  0.7401  2.4927
 6543TIP3    H243825   2.739   5.327  11.193 -0.0578 -0.0142  0.5442
 6544TIP3   OH243826   4.916   5.463  12.809  0.0283  0.6892  0.4405
 6544TIP3    H143827   4.899   5.415  12.890  1.7670  0.8020  0.9108
 6544TIP3    H243828   5.010   5.457  12.797 -0.3518 -1.1167 -2.7278
 6545TIP3   OH243829   3.981   5.151  11.757 -0.3850  0.2878 -0.0516
 6545TIP3    H143830   3.954   5.207  11.831 -0.3757 -0.0337  0.1979
 6545TIP3    H243831   4.075   5.167  11.748 -0.1233 -0.6048  0.8253
 6546TIP3   OH243832   4.291   5.850  10.930  0.5239  0.6962  0.3694
 6546TIP3    H143833   4.202   5.817  10.916  1.0542 -0.3479 -0.6736
 6546TIP3    H243834   4.339   5.774  10.964  1.2221  1.0190  0.1074
 6547TIP3   OH243835   7.051   1.894  12.866 -0.8496  0.6167 -0.2544
 6547TIP3    H143836   6.978   1.944  12.831 -0.6661  0.9798 -0.1298
 6547TIP3    H243837   7.128   1.932  12.823 -0.8535 -0.8086 -1.5970
 6548TIP3   OH243838   2.791   6.997  12.490  0.3588  0.2062 -0.2174
 6548TIP3    H143839   2.786   6.972  12.398  0.0121  1.2844 -0.5072
 6548TIP3    H243840   2.858   6.940  12.527 -0.4598 -1.2006 -0.8094
 6549TIP3   OH243841   6.515   3.659  11.493  0.2387  0.1243 -0.5178
 6549TIP3    H143842   6.542   3.724  11.429  0.2692  0.3081 -0.3170
 6549TIP3    H243843   6.428   3.632  11.465  0.8414 -0.9033 -1.5128
 6550TIP3   OH243844   4.317   1.852  10.184 -0.1537 -0.3091 -0.5098
 6550TIP3    H143845   4.234   1.870  10.141 -1.7854  1.0722  2.8866
 6550TIP3    H243846   4.375   1.923  10.156 -1.4878  1.1425  0.2986
 6551TIP3   OH243847   3.931   5.301  11.022  0.2842  0.0788 -0.0939
 6551TIP3    H143848   3.993   5.289  10.950 -0.9416  1.2299 -1.3727
 6551TIP3    H243849   3.920   5.213  11.058  4.4265  0.0719  1.7824
 6552TIP3   OH243850   3.749   5.960  13.310 -0.1124  0.4980  0.3987
 6552TIP3    H143851   3.817   5.910  13.357 -2.1781 -1.4899  1.4766
 6552TIP3    H243852   3.694   5.996  13.380 -0.1685  2.1553 -0.4559
 6553TIP3   OH243853   0.569   2.984  13.547  0.0634 -0.0209  0.3136
 6553TIP3    H143854   0.486   2.983  13.499 -0.2477  0.5270  0.8239
 6553TIP3    H243855   0.632   2.946  13.486 -0.3314  0.6015 -0.5056
 6554TIP3   OH243856   3.322   6.002  11.590  0.1102  0.2865  0.5242
 6554TIP3    H143857   3.377   6.080  11.598 -0.3500  0.5874  0.8288
 6554TIP3    H243858   3.323   5.981  11.497 -1.7494  2.1450 -0.0055
 6555TIP3   OH243859   0.102   1.202  10.486 -0.1641  0.0248  0.4264
 6555TIP3    H143860   0.179   1.259  10.496 -1.0779  1.4657 -0.4152
 6555TIP3    H243861   0.138   1.113  10.492  1.4178  0.6545  1.0563
 6556TIP3   OH243862   2.424   7.161  10.730  0.2680 -0.5398 -0.0672
 6556TIP3    H143863   2.496   7.109  10.694  1.3712  0.2529  0.9281
 6556TIP3    H243864   2.371   7.098  10.779  1.3042 -0.8514  0.6905
 6557TIP3   OH243865   4.793   6.632  12.864 -0.5540  0.0030  0.2172
 6557TIP3    H143866   4.732   6.705  12.851  1.0559  1.2344 -0.8940
 6557TIP3    H243867   4.879   6.674  12.871  0.2174 -1.6896  1.4258
 6558TIP3   OH243868   1.079   1.741  10.888 -0.7850  0.4713  0.2097
 6558TIP3    H143869   1.086   1.696  10.805 -0.3211  0.8307  0.0486
 6558TIP3    H243870   1.166   1.735  10.927 -0.6800  1.3050  0.1357
 6559TIP3   OH243871   5.354   5.806  11.726 -0.1412  0.0526 -0.0259
 6559TIP3    H143872   5.368   5.736  11.662 -1.5781 -1.1424  0.8863
 6559TIP3    H243873   5.425   5.795  11.789 -0.6295 -0.9683  0.3871
 6560TIP3   OH243874   1.961   4.516  11.851 -0.5479  0.1394 -0.2213
 6560TIP3    H143875   1.883   4.508  11.795 -0.9239  0.1958  0.2900
 6560TIP3    H243876   1.995   4.427  11.857 -1.5649 -0.1961  0.9599
 6561TIP3   OH243877   4.883   5.421  11.196  0.1709 -0.1256 -0.0607
 6561TIP3    H143878   4.974   5.450  11.203 -0.0280  0.6143 -0.4728
 6561TIP3    H243879   4.837   5.471  11.264 -0.3749  1.3962 -1.4936
 6562TIP3   OH243880   4.180   5.647  13.407  0.3840  0.2012  0.0233
 6562TIP3    H143881   4.256   5.686  13.364  1.3843 -0.7769  0.8321
 6562TIP3    H243882   4.217   5.588  13.473 -1.0566 -1.4151 -0.5226
 6563TIP3   OH243883   1.157   5.299  11.490  0.0747 -0.5888  0.1201
 6563TIP3    H143884   1.122   5.359  11.424 -0.4097 -1.5124 -0.4959
 6563TIP3    H243885   1.080   5.258  11.529  0.3634 -0.0210  1.2965
 6564TIP3   OH243886   7.071   6.057  10.648  0.1391  0.0111  0.2234
 6564TIP3    H143887   7.107   5.982  10.695 -0.0908 -1.0047 -1.1689
 6564TIP3    H243888   6.993   6.023  10.604 -0.8757  1.4572  0.8053
 6565TIP3   OH243889   6.817   5.489  11.431  0.3228 -0.5128  0.3823
 6565TIP3    H143890   6.781   5.402  11.449 -2.2557  0.4351  0.3167
 6565TIP3    H243891   6.887   5.500  11.494  0.4513 -2.4876  0.6446
 6566TIP3   OH243892   7.680   4.799  12.109 -0.1624 -0.1540 -0.9463
 6566TIP3    H143893   7.619   4.857  12.064 -1.7424 -0.0556  1.1880
 6566TIP3    H243894   7.678   4.718  12.058 -1.4617  0.1434 -1.4010
 6567TIP3   OH243895   4.534   2.141  12.938  0.2140 -0.2269 -0.1763
 6567TIP3    H143896   4.506   2.192  13.015  0.1873 -1.4773  0.6726
 6567TIP3    H243897   4.485   2.180  12.866  0.7380  1.4155  0.3029
 6568TIP3   OH243898   2.996   6.068  11.349 -0.1273 -0.1082  0.0819
 6568TIP3    H143899   3.015   5.986  11.395 -0.1894  0.5814  1.3762
 6568TIP3    H243900   3.061   6.071  11.279 -0.7942 -1.7695 -0.6617
 6569TIP3   OH243901   0.489   4.608  11.544 -0.1319 -0.4964 -0.2628
 6569TIP3    H143902   0.566   4.666  11.549  0.0393 -0.7793  3.5218
 6569TIP3    H243903   0.512   4.533  11.599 -2.5929 -1.2693 -0.1712
 6570TIP3   OH243904   0.101   6.526  12.778  0.1835  0.2653  0.2438
 6570TIP3    H143905   0.071   6.616  12.765  0.1650 -0.0463 -2.2341
 6570TIP3    H243906   0.025   6.480  12.815  0.0360  1.1210  1.0431
 6571TIP3   OH243907   0.369   4.334  12.285 -0.0849 -0.0315 -0.1656
 6571TIP3    H143908   0.365   4.398  12.214 -0.1819 -0.2501 -0.3612
 6571TIP3    H243909   0.326   4.256  12.249 -0.7432  0.0756  0.3664
 6572TIP3   OH243910   5.694   0.094  12.005 -0.2164  0.0857 -0.0041
 6572TIP3    H143911   5.602   0.066  12.002 -0.9586  2.3801 -1.7158
 6572TIP3    H243912   5.707   0.123  12.095 -1.2127 -0.1501  0.2332
 6573TIP3   OH243913   6.542   3.874  11.894  0.3116 -0.1671  0.1862
 6573TIP3    H143914   6.631   3.906  11.875  0.6174 -0.5929  0.8806
 6573TIP3    H243915   6.535   3.792  11.846  0.0000  0.2568 -0.5138
 6574TIP3   OH243916   0.729   0.204  10.868 -0.0125  0.0701  0.7072
 6574TIP3    H143917   0.737   0.291  10.907 -2.1552  0.9316 -0.5966
 6574TIP3    H243918   0.753   0.216  10.776  0.5192 -0.9127  0.7052
 6575TIP3   OH243919   6.488   1.313  11.237  0.3582  0.0907 -0.1724
 6575TIP3    H143920   6.571   1.353  11.263  0.4618 -0.5566  0.5672
 6575TIP3    H243921   6.513   1.245  11.175  0.2486  0.7285 -0.9222
 6576TIP3   OH243922   4.629   6.424  12.818  0.0969 -0.4971 -0.0511
 6576TIP3    H143923   4.547   6.465  12.846 -0.3777  0.4137 -2.5098
 6576TIP3    H243924   4.694   6.494  12.824 -0.1250 -0.1279 -1.6109
 6577TIP3   OH243925   5.125   3.016  13.447  0.6584  0.2523  0.5433
 6577TIP3    H143926   5.187   3.053  13.510 -0.2908 -0.0515  1.6929
 6577TIP3    H243927   5.091   2.938  13.490  0.2870 -0.1897 -0.5306
 6578TIP3   OH243928   1.757   7.243  12.244 -0.4393 -0.1067 -0.1509
 6578TIP3    H143929   1.770   7.278  12.332  2.3698  0.4885 -0.6903
 6578TIP3    H243930   1.673   7.278  12.216 -0.6925  0.9187  1.7307
 6579TIP3   OH243931   1.468   0.384  12.550 -0.3013  0.8831  0.4498
 6579TIP3    H143932   1.420   0.464  12.528 -1.0978  0.8949  2.0570
 6579TIP3    H243933   1.429   0.355  12.632  2.9225  1.2646  2.2652
 6580TIP3   OH243934   5.110   2.020  12.184  0.3265 -0.0420  0.1916
 6580TIP3    H143935   5.163   2.073  12.125 -2.1448  0.1167 -2.0792
 6580TIP3    H243936   5.169   1.951  12.214  2.1137  0.7982 -1.1905
 6581TIP3   OH243937   7.601   1.233  10.704  0.4899  0.0662 -0.0645
 6581TIP3    H143938   7.594   1.324  10.732  2.1037 -0.0807  0.9838
 6581TIP3    H243939   7.646   1.236  10.620 -0.9851  0.3038 -0.8710
 6582TIP3   OH243940   1.871   0.131  10.562 -0.2238 -0.4997  0.2635
 6582TIP3    H143941   1.805   0.076  10.603 -0.0798 -0.8308  0.0556
 6582TIP3    H243942   1.870   0.105  10.470 -0.8649  0.5601 -0.0420
 6583TIP3   OH243943   4.746   6.316  12.183 -0.1653 -0.1627 -0.7594
 6583TIP3    H143944   4.700   6.333  12.265 -0.1189  0.7834 -0.9180
 6583TIP3    H243945   4.836   6.342  12.200 -0.6358  2.5813 -1.8372
 6584TIP3   OH243946   1.105   5.041  12.921  0.4565  0.3478  0.3629
 6584TIP3    H143947   1.188   5.042  12.968  1.1867  1.9123 -0.8603
 6584TIP3    H243948   1.114   5.109  12.854 -1.2823 -0.4225 -0.7390
 6585TIP3   OH243949   1.611   7.334  11.261 -0.4813 -0.2821 -0.8079
 6585TIP3    H143950   1.558   7.287  11.196 -0.5284 -1.0452 -0.2378
 6585TIP3    H243951   1.547   7.369  11.323 -0.4622  0.7454 -1.3408
 6586TIP3   OH243952   3.813   4.368  10.986 -0.2429  0.1893  0.1745
 6586TIP3    H143953   3.837   4.319  11.064  0.0254  0.8018  0.4801
 6586TIP3    H243954   3.719   4.352  10.976  0.1397 -1.8807 -0.8010
 6587TIP3   OH243955   2.281   5.974  11.078 -0.1991  0.5941 -0.0349
 6587TIP3    H143956   2.330   5.892  11.070 -0.1724  0.7812 -2.5493
 6587TIP3    H243957   2.310   6.011  11.162  1.9112 -0.6317 -0.1496
 6588TIP3   OH243958   6.862   0.102  11.878 -0.0039  0.3346  0.7093
 6588TIP3    H143959   6.774   0.120  11.844  1.2326  0.9241 -2.5889
 6588TIP3    H243960   6.885   0.181  11.926 -0.6132  0.9571  0.0135
 6589TIP3   OH243961   2.726   3.695  10.582  0.0200 -0.0652  0.5831
 6589TIP3    H143962   2.739   3.702  10.488 -0.7791  1.8452  0.5561
 6589TIP3    H243963   2.631   3.687  10.592  0.1711 -1.2623  1.2018
 6590TIP3   OH243964   6.709   4.206  11.115  0.9063 -0.6901 -0.1844
 6590TIP3    H143965   6.783   4.172  11.165  0.2743  0.8091  1.9015
 6590TIP3    H243966   6.634   4.155  11.144  1.0359 -2.1559 -2.2366
 6591TIP3   OH243967   6.964   0.787  11.863  0.1760 -0.5113 -0.1625
 6591TIP3    H143968   7.045   0.757  11.822  0.6211 -0.2905  0.5440
 6591TIP3    H243969   6.942   0.718  11.926  0.1638 -0.2638  0.1066
 6592TIP3   OH243970   0.870   1.508  11.637 -0.2251 -0.0482  0.1600
 6592TIP3    H143971   0.851   1.456  11.715  2.9861  0.5401  1.4913
 6592TIP3    H243972   0.831   1.594  11.656 -1.4263 -0.5393  0.0424
 6593TIP3   OH243973   2.780   3.310  12.546 -0.5978 -0.0639 -0.0266
 6593TIP3    H143974   2.797   3.216  12.543 -0.7440 -0.0647 -0.9219
 6593TIP3    H243975   2.749   3.332  12.458 -1.3648  0.6669  0.4125
 6594TIP3   OH243976   1.754   5.217  12.126 -0.1125 -0.1379  0.3880
 6594TIP3    H143977   1.793   5.181  12.046  0.1499  1.4799 -0.2359
 6594TIP3    H243978   1.801   5.172  12.197  0.9836 -0.2212 -0.3588
 6595TIP3   OH243979   4.651   5.846  11.552 -0.3019 -0.0597  0.0712
 6595TIP3    H143980   4.734   5.874  11.590  0.4108 -0.4238 -1.1783
 6595TIP3    H243981   4.606   5.927  11.529  1.3131  0.1698 -2.6140
 6596TIP3   OH243982   0.441   3.053  10.677  0.2792 -0.3429  1.2818
 6596TIP3    H143983   0.349   3.057  10.703  0.1545  0.1922  0.7581
 6596TIP3    H243984   0.443   3.089  10.589  0.8582 -1.1998  0.9320
 6597TIP3   OH243985   0.315   2.082  11.457 -0.6262  1.5283 -0.0289
 6597TIP3    H143986   0.293   2.156  11.401 -0.9484  1.1893 -0.3517
 6597TIP3    H243987   0.402   2.054  11.428 -0.6240  1.6028 -0.0927
 6598TIP3   OH243988   7.031   4.545  13.637  0.1468  0.2629 -0.0512
 6598TIP3    H143989   7.126   4.539  13.646 -0.0424 -0.4962  1.8617
 6598TIP3    H243990   7.017   4.580  13.549  2.1718 -0.1958 -0.5932
 6599TIP3   OH243991   2.145   5.232  10.972  0.3113  0.2189 -0.0960
 6599TIP3    H143992   2.230   5.210  10.934  1.1100  0.2052  1.5833
 6599TIP3    H243993   2.162   5.308  11.027 -0.5784 -0.2691  0.8996
 6600TIP3   OH243994   6.961   3.796  11.847 -0.0416  0.3042 -1.1221
 6600TIP3    H143995   6.948   3.702  11.860 -0.6317  0.4204 -0.8605
 6600TIP3    H243996   7.013   3.824  11.922  0.1004  0.1943 -1.1792
 6601TIP3   OH243997   5.041   4.891  11.932 -0.1420  0.2547  0.4149
 6601TIP3    H143998   5.007   4.960  11.990  0.5640  1.1312 -0.1964
 6601TIP3    H243999   4.968   4.871  11.873 -0.8168 -0.5327  1.4729
 6602TIP3   OH244000   0.163   3.097  12.575 -0.2417  0.1080  0.1020
 6602TIP3    H144001   0.182   3.079  12.483  0.1822 -3.3613  0.7155
 6602TIP3    H244002   0.221   3.170  12.598  1.7313 -0.7747 -1.7284
 6603TIP3   OH244003   7.674   0.242  13.138 -0.4162  0.0520 -0.2329
 6603TIP3    H144004   7.657   0.328  13.176  1.8781  1.2407 -1.7294
 6603TIP3    H244005   7.595   0.223  13.087 -0.3103  2.0967 -1.2674
 6604TIP3   OH244006   3.849   2.243  10.751  0.5019 -0.6082 -0.2063
 6604TIP3    H144007   3.895   2.316  10.792 -0.8507  0.6728 -0.9271
 6604TIP3    H244008   3.859   2.257  10.657 -1.3207 -0.3070 -0.3763
 6605TIP3   OH244009   3.633   2.542  11.452 -0.1841 -0.5590  0.2041
 6605TIP3    H144010   3.692   2.617  11.463 -0.0018 -0.7351  0.4413
 6605TIP3    H244011   3.546   2.579  11.464 -0.4119  0.3502 -3.2947
 6606TIP3   OH244012   7.226   4.788  12.073 -0.1257  0.1415 -0.4780
 6606TIP3    H144013   7.249   4.697  12.056  0.5048  0.0645  0.7142
 6606TIP3    H244014   7.308   4.836  12.062 -0.0060  0.2733  0.9155
 6607TIP3   OH244015   6.142   2.360  11.517  0.7197 -0.3848 -0.0803
 6607TIP3    H144016   6.136   2.374  11.611  0.3230  1.2831 -0.3119
 6607TIP3    H244017   6.112   2.443  11.478  3.2327 -0.0625 -1.6328
 6608TIP3   OH244018   3.840   3.020  12.954  0.7132  0.0739  0.0905
 6608TIP3    H144019   3.922   2.991  12.994  1.7005  1.4081 -0.8508
 6608TIP3    H244020   3.808   2.944  12.905  1.6221 -0.3290  0.1079
 6609TIP3   OH244021   2.024   5.416  12.295 -0.2523 -0.7182 -0.2160
 6609TIP3    H144022   2.081   5.473  12.348 -0.1942 -1.8087  0.9515
 6609TIP3    H244023   2.062   5.418  12.208  0.7377 -0.2942  0.2087
 6610TIP3   OH244024   0.351   2.221  18.282 -0.0966  0.4638 -0.7009
 6610TIP3    H144025   0.406   2.280  18.232  0.7713  0.0616 -0.2418
 6610TIP3    H244026   0.315   2.160  18.217  1.1940 -0.1894 -0.8375
 6611TIP3   OH244027   6.448   0.993  12.378 -0.5660 -0.0326  0.4773
 6611TIP3    H144028   6.470   1.018  12.468 -0.7929  0.6712  0.3402
 6611TIP3    H244029   6.511   1.041  12.324  0.8520 -1.9250  0.3258
 6612TIP3   OH244030   3.993   4.782  12.537  0.0374 -0.3314 -0.0900
 6612TIP3    H144031   3.994   4.687  12.524 -1.0858 -0.3968  0.1810
 6612TIP3    H244032   4.075   4.813  12.498  0.0973 -1.3289 -0.7909
 6613TIP3   OH244033   3.490   0.914  10.888 -0.2452 -0.0943 -0.2488
 6613TIP3    H144034   3.425   0.977  10.918 -1.3534 -0.7009 -1.2907
 6613TIP3    H244035   3.453   0.877  10.808  3.1875  2.5990 -3.4637
 6614TIP3   OH244036   0.783   2.492  11.563  0.0544 -0.1352  0.2747
 6614TIP3    H144037   0.713   2.527  11.507  0.8065 -1.2417 -1.4564
 6614TIP3    H244038   0.795   2.402  11.533  2.5268  0.1552  0.1277
 6615TIP3   OH244039   0.095   0.929  13.120 -0.2117 -0.2367 -0.3442
 6615TIP3    H144040   0.070   0.843  13.154 -1.0603 -0.2640 -1.0026
 6615TIP3    H244041   0.023   0.987  13.146  0.2738  0.2505 -0.0489
 6616TIP3   OH244042   5.046   5.042  13.121  0.4660 -0.3236  0.4717
 6616TIP3    H144043   5.133   5.009  13.100  0.4211 -0.9698  1.2593
 6616TIP3    H244044   5.062   5.118  13.177  0.5313 -0.3251  0.4551
 6617TIP3   OH244045   5.079   3.470  10.676  0.8040  0.5147  0.0983
 6617TIP3    H144046   5.170   3.490  10.654  1.6277 -2.2667  0.5200
 6617TIP3    H244047   5.073   3.484  10.771  0.6521  1.1558 -0.0053
 6618TIP3   OH244048   1.748   2.966  11.417 -0.1848  0.0674 -0.1363
 6618TIP3    H144049   1.703   2.914  11.351  0.4982  0.2389 -0.7465
 6618TIP3    H244050   1.813   2.907  11.455 -0.9316 -0.1941  0.7768
 6619TIP3   OH244051   0.492   4.176  10.493 -0.4487 -0.1573 -0.3613
 6619TIP3    H144052   0.540   4.096  10.514 -1.8335 -0.8267  0.3959
 6619TIP3    H244053   0.513   4.193  10.401  1.8377  0.0481  0.1279
 6620TIP3   OH244054   7.457   5.216  11.277 -0.0442 -0.1066  0.0998
 6620TIP3    H144055   7.409   5.137  11.253  0.0343  0.0017 -0.4223
 6620TIP3    H244056   7.510   5.236  11.200 -0.3005  0.6356  0.1103
 6621TIP3   OH244057   5.573   4.554  11.035  0.2768  0.4894 -0.2554
 6621TIP3    H144058   5.525   4.624  10.990  0.5839  1.1112  0.3647
 6621TIP3    H244059   5.575   4.581  11.127  1.1852  0.1130 -0.1504
 6622TIP3   OH244060   4.544   5.428  11.052  0.3667  0.2643 -0.6663
 6622TIP3    H144061   4.519   5.336  11.061 -0.6878  0.5588 -0.4248
 6622TIP3    H244062   4.615   5.428  10.988 -1.0181 -0.5127 -2.2719
 6623TIP3   OH244063   2.844   6.193  10.787  0.5542 -0.0079  0.3651
 6623TIP3    H144064   2.847   6.216  10.880  0.6882 -0.8325  0.5731
 6623TIP3    H244065   2.935   6.178  10.762  0.4047 -1.4158  0.5412
 6624TIP3   OH244066   3.425   1.676  13.089  0.0969 -0.0362  0.3869
 6624TIP3    H144067   3.381   1.745  13.138 -1.4760  1.5636 -2.9633
 6624TIP3    H244068   3.492   1.721  13.038  1.2172 -1.5077  0.4629
 6625TIP3   OH244069   4.484   4.652  11.525 -0.4505 -0.4790  0.5795
 6625TIP3    H144070   4.438   4.598  11.590  0.8557 -1.3161  0.8339
 6625TIP3    H244071   4.570   4.668  11.564 -0.2893  0.5334 -0.1655
 6626TIP3   OH244072   6.615   3.208  11.525  0.2100  0.0283 -0.4220
 6626TIP3    H144073   6.632   3.196  11.619  1.2662  0.3370 -0.5597
 6626TIP3    H244074   6.631   3.301  11.509  3.0741 -0.5241 -1.4473
 6627TIP3   OH244075   5.175   0.983  10.718 -0.2185 -0.0206 -0.3449
 6627TIP3    H144076   5.207   1.041  10.787  1.6030 -0.1691 -0.9993
 6627TIP3    H244077   5.093   1.023  10.688 -0.2214  0.8932  0.8146
 6628TIP3   OH244078   5.385   7.616  11.639 -0.0728  0.5162  0.8807
 6628TIP3    H144079   5.475   7.628  11.608 -0.6476 -0.9490 -1.5954
 6628TIP3    H244080   5.376   7.521  11.648 -2.4449  0.1960 -2.8341
 6629TIP3   OH244081   7.290   2.427  11.271 -0.6709  0.1485 -0.0893
 6629TIP3    H144082   7.217   2.414  11.210 -0.3789  2.5175 -1.0467
 6629TIP3    H244083   7.250   2.423  11.358 -1.7999  0.6222 -0.5739
 6630TIP3   OH244084   0.807   3.601  12.062 -0.0719 -0.0782  0.3279
 6630TIP3    H144085   0.740   3.604  11.994  0.2845 -0.7528 -0.0666
 6630TIP3    H244086   0.859   3.680  12.049  1.7330 -1.5309 -2.0175
 6631TIP3   OH244087   1.128   1.701  11.242  0.1522  0.5418 -0.3721
 6631TIP3    H144088   1.211   1.741  11.271 -0.7286  1.2491  1.2775
 6631TIP3    H244089   1.101   1.645  11.315 -0.2542 -0.6143 -1.3787
 6632TIP3   OH244090   6.586   3.556  12.449  0.1752  0.3357  0.0701
 6632TIP3    H144091   6.519   3.554  12.381  0.1606 -1.6612  0.0737
 6632TIP3    H244092   6.537   3.544  12.530  0.3853  0.5222  0.2222
 6633TIP3   OH244093   1.637   0.306  12.333  0.2531  0.1637  0.1551
 6633TIP3    H144094   1.693   0.229  12.343  0.0277  0.0238  0.3522
 6633TIP3    H244095   1.586   0.309  12.414 -1.0467 -0.5351 -0.6252
 6634TIP3   OH244096   1.702   3.745  12.654  0.1792  0.0720  0.2124
 6634TIP3    H144097   1.761   3.692  12.600 -1.2686 -0.1222 -1.2664
 6634TIP3    H244098   1.761   3.795  12.711  1.6868 -1.3333 -0.0039
 6635TIP3   OH244099   5.574   4.947  11.330 -0.4044 -0.0573  0.8156
 6635TIP3    H144100   5.512   4.967  11.401  0.3189  0.3020  1.3603
 6635TIP3    H244101   5.651   5.000  11.350 -0.6236  0.9841 -0.8905
 6636TIP3   OH244102   0.123   5.921  12.260  0.1409  0.3600  0.8697
 6636TIP3    H144103   0.149   5.878  12.179 -0.5943 -0.4873  1.0687
 6636TIP3    H244104   0.069   5.857  12.305  0.3289  0.9142  1.9193
 6637TIP3   OH244105   5.099   4.770  10.950  0.3194 -0.4227 -0.0147
 6637TIP3    H144106   5.038   4.817  11.008  0.0869 -0.7648  0.0222
 6637TIP3    H244107   5.093   4.816  10.866  1.1519  0.4867  0.4077
 6638TIP3   OH244108   1.795   0.791  11.636 -0.7772  0.5717 -0.5473
 6638TIP3    H144109   1.706   0.756  11.639 -0.8740  0.8635  1.1317
 6638TIP3    H244110   1.790   0.873  11.685  0.6749 -0.1124  0.8470
 6639TIP3   OH244111   7.177   0.697  11.703 -0.3807 -0.2350  0.1411
 6639TIP3    H144112   7.263   0.674  11.737  0.0837  2.3382  0.9161
 6639TIP3    H244113   7.195   0.738  11.618 -1.1350 -2.0429 -0.9770
 6640TIP3   OH244114   2.720   0.526  12.441  0.0972  0.5376 -0.4568
 6640TIP3    H144115   2.706   0.432  12.450  2.1765  0.2064 -0.1970
 6640TIP3    H244116   2.811   0.534  12.412  0.2419  2.5008  0.3883
 6641TIP3   OH244117   0.526   6.638  11.231 -0.4321  0.1204  0.0783
 6641TIP3    H144118   0.541   6.727  11.261  1.1439 -0.6233  1.6707
 6641TIP3    H244119   0.518   6.645  11.135  1.8012  1.7241 -0.0585
 6642TIP3   OH244120   4.254   3.547  10.848 -0.1427 -0.2533 -0.1137
 6642TIP3    H144121   4.241   3.526  10.941  0.1211  1.1535  0.2717
 6642TIP3    H244122   4.238   3.642  10.843  0.3469 -0.2216 -1.4138
 6643TIP3   OH244123   0.920   4.036  12.697  0.2267 -0.0569 -0.2162
 6643TIP3    H144124   0.911   4.099  12.768  2.4118  0.4924 -0.3634
 6643TIP3    H244125   0.960   4.086  12.625  1.2789 -1.4043 -0.6089
 6644TIP3   OH244126   0.970   4.692  10.791 -0.5836  0.2210  0.0804
 6644TIP3    H144127   0.973   4.616  10.849  0.4097  0.9672  1.0508
 6644TIP3    H244128   0.914   4.665  10.719  1.5716 -2.2833 -0.8292
 6645TIP3   OH244129   7.571   4.889  11.603 -0.7507  0.3235  0.1048
 6645TIP3    H144130   7.566   4.810  11.657 -2.2063  1.4922  1.8231
 6645TIP3    H244131   7.616   4.862  11.524 -2.3154 -2.5579  0.0762
 6646TIP3   OH244132   1.018   1.467  11.021  0.0880  0.0950  0.0006
 6646TIP3    H144133   1.108   1.451  10.992  0.1740  0.1148  0.2537
 6646TIP3    H244134   0.966   1.400  10.976  0.0927  0.6472 -0.8632
 6647TIP3   OH244135   5.545   0.398  12.841 -0.1690  0.0490 -0.3168
 6647TIP3    H144136   5.471   0.423  12.897 -1.2761 -1.5977 -0.9774
 6647TIP3    H244137   5.622   0.420  12.893 -1.0465  2.6651  0.0246
 6648TIP3   OH244138   3.518   5.768  11.131  0.0986 -0.0944 -0.3314
 6648TIP3    H144139   3.500   5.728  11.046 -2.0048  0.0067  0.0092
 6648TIP3    H244140   3.529   5.694  11.191 -0.6199 -0.1839 -0.2988
 6649TIP3   OH244141   3.344   5.966  12.863 -0.6571 -0.4124 -0.7351
 6649TIP3    H144142   3.354   5.872  12.878  2.7713 -0.2088 -1.0212
 6649TIP3    H244143   3.365   5.979  12.771  1.0168  0.8171 -0.2323
 6650TIP3   OH244144   4.210   6.932  11.322 -0.3635  0.2076 -0.3854
 6650TIP3    H144145   4.295   6.932  11.277 -0.5334  1.1945 -0.7320
 6650TIP3    H244146   4.147   6.904  11.255 -0.0429 -3.1321  0.5247
 6651TIP3   OH244147   3.805   0.836  11.375 -0.3475 -0.0280  0.0581
 6651TIP3    H144148   3.754   0.781  11.315  2.5350 -1.8554 -0.9108
 6651TIP3    H244149   3.880   0.865  11.323  1.2943 -0.1094  2.2383
 6652TIP3   OH244150   4.040   7.336  12.198  0.6615  0.3098 -0.1327
 6652TIP3    H144151   4.127   7.313  12.166  0.7374  0.9335 -0.4013
 6652TIP3    H244152   4.036   7.300  12.286  0.5429 -1.2340 -0.7361
 6653TIP3   OH244153   3.388   3.032  11.610 -0.3052 -0.3404 -0.3301
 6653TIP3    H144154   3.428   3.107  11.566 -0.3136 -1.1550 -1.7859
 6653TIP3    H244155   3.400   2.959  11.549  0.6100 -1.7919  1.4774
 6654TIP3   OH244156   1.690   4.992  12.529  0.1361 -0.1560  0.2907
 6654TIP3    H144157   1.669   4.975  12.437  0.6039 -0.9816  0.3193
 6654TIP3    H244158   1.771   5.043  12.525  0.8661 -1.2846  0.2476
 6655TIP3   OH244159   0.915   6.344  12.769  0.0241 -0.1058  0.3203
 6655TIP3    H144160   0.888   6.411  12.833 -1.2612 -0.1620 -0.1277
 6655TIP3    H244161   0.839   6.335  12.712  0.8076 -0.7524 -0.6404
 6656TIP3   OH244162   6.934   3.607  11.550  0.1344 -0.0468 -0.0764
 6656TIP3    H144163   7.026   3.629  11.565 -0.2355 -0.6684  4.1410
 6656TIP3    H244164   6.888   3.690  11.560  0.1082  0.2444 -2.0858
 6657TIP3   OH244165   6.361   0.499  11.543 -0.4851  0.0684 -0.7396
 6657TIP3    H144166   6.304   0.563  11.500 -0.7095 -0.4717 -1.2846
 6657TIP3    H244167   6.324   0.414  11.516  0.1282 -0.2857 -0.4782
 6658TIP3   OH244168   6.275   3.977  10.636 -0.5669  0.3809 -0.2045
 6658TIP3    H144169   6.244   3.887  10.649  0.9208 -0.2429 -0.7873
 6658TIP3    H244170   6.195   4.028  10.623 -1.4190 -0.9436 -0.3750
 6659TIP3   OH244171   3.322   2.599  12.707 -0.3806 -0.0642  0.8018
 6659TIP3    H144172   3.323   2.536  12.779  0.0334  0.2180  1.0490
 6659TIP3    H244173   3.381   2.668  12.735 -1.6100  0.9509  1.0000
 6660TIP3   OH244174   1.414   6.616  13.034 -0.5639  0.6942  0.3863
 6660TIP3    H144175   1.372   6.648  12.954  1.6180  0.9930 -0.7101
 6660TIP3    H244176   1.490   6.672  13.045  0.2275 -0.5693  1.6140
 6661TIP3   OH244177   2.380   3.476  12.163  0.1871 -0.2061 -0.1177
 6661TIP3    H144178   2.433   3.416  12.111  0.4886 -0.1682  0.1412
 6661TIP3    H244179   2.290   3.442  12.155  0.0006  0.6129 -1.8006
 6662TIP3   OH244180   1.066   7.515  12.079 -0.2726 -0.1106 -0.2217
 6662TIP3    H144181   1.130   7.470  12.135  1.5009  2.7510  0.2613
 6662TIP3    H244182   1.108   7.598  12.057 -4.2913  2.5481  1.1092
 6663TIP3   OH244183   5.017   0.783  10.629  0.1561  0.4938  0.0561
 6663TIP3    H144184   5.080   0.830  10.682 -0.3758 -0.2360  1.3741
 6663TIP3    H244185   5.066   0.759  10.550  0.9291  1.6722  0.1486
 6664TIP3   OH244186   5.945   0.417  12.103  0.2340  0.5866  0.0307
 6664TIP3    H144187   5.853   0.416  12.130  0.4423  1.6103  0.8293
 6664TIP3    H244188   5.992   0.453  12.178  1.4410 -0.9240  0.0552
 6665TIP3   OH244189   3.493   1.750  11.120  0.6994 -0.2638  0.5532
 6665TIP3    H144190   3.520   1.659  11.133  1.8690 -0.1228 -0.6214
 6665TIP3    H244191   3.428   1.745  11.050 -1.2534 -0.4370  2.3052
 6666TIP3   OH244192   0.964   0.238  11.045  0.7413  0.0867  0.2792
 6666TIP3    H144193   0.922   0.199  10.969 -0.3570 -0.2300  1.0340
 6666TIP3    H244194   1.051   0.197  11.047  0.3758 -0.7379 -0.1543
 6667TIP3   OH244195   6.932   0.835  11.124  0.0437 -0.1925  0.0142
 6667TIP3    H144196   6.911   0.908  11.183  0.1559 -0.1475 -0.0026
 6667TIP3    H244197   6.929   0.758  11.181  0.5655 -0.1022  0.1636
 6668TIP3   OH244198   3.611   1.582  12.697  0.1493  0.2527  0.0556
 6668TIP3    H144199   3.659   1.575  12.614  1.7416 -1.6442  1.0620
 6668TIP3    H244200   3.559   1.502  12.701 -0.6608  0.7898  0.4713
 6669TIP3   OH244201   6.953   2.685  12.296 -0.4106 -0.4375 -0.5551
 6669TIP3    H144202   7.017   2.721  12.357 -0.2870 -0.2226 -0.8087
 6669TIP3    H244203   6.879   2.745  12.301 -0.6868 -0.8108 -0.0942
 6670TIP3   OH244204   0.167   6.932  12.327 -0.0547  0.4423 -0.0249
 6670TIP3    H144205   0.204   6.946  12.240  1.3829 -0.8769  0.3036
 6670TIP3    H244206   0.235   6.883  12.373 -0.7328  1.2087  1.8872
 6671TIP3   OH244207   1.777   2.572  12.443  0.1794 -0.4783 -0.1873
 6671TIP3    H144208   1.790   2.666  12.456  0.5251 -0.5928  0.3481
 6671TIP3    H244209   1.683   2.563  12.427 -0.0552 -0.1427  0.8574
 6672TIP3   OH244210   4.379   6.262  10.937  0.2974  0.5978  0.1206
 6672TIP3    H144211   4.302   6.206  10.943  0.1171  0.9354  1.1744
 6672TIP3    H244212   4.420   6.256  11.023  1.2098  0.7718 -0.2822
 6673TIP3   OH244213   0.538   0.915  12.412  0.2089 -0.1542 -0.6965
 6673TIP3    H144214   0.542   1.004  12.376  1.9002 -0.7674 -2.2044
 6673TIP3    H244215   0.592   0.863  12.353  1.2737 -1.7187  1.4954
 6674TIP3   OH244216   7.210   1.925  13.237  0.2141 -0.0677  0.4116
 6674TIP3    H144217   7.122   1.941  13.202  0.2180 -1.8924 -0.5651
 6674TIP3    H244218   7.266   1.987  13.192  0.0274 -1.5769 -2.0898
 6675TIP3   OH244219   6.359   6.827  13.467  0.2961 -0.2652  0.0962
 6675TIP3    H144220   6.285   6.794  13.518 -0.1589 -0.9050 -0.9489
 6675TIP3    H244221   6.371   6.917  13.498  0.2471 -0.7337  1.5483
 6676TIP3   OH244222   3.154   4.469  12.761  0.4469 -0.1091 -0.3028
 6676TIP3    H144223   3.202   4.495  12.840 -1.3865 -0.4559  0.9977
 6676TIP3    H244224   3.105   4.391  12.787 -1.2573  0.5453 -1.3278
 6677TIP3   OH244225   6.589   4.734  12.451  0.2004 -0.0059  0.1011
 6677TIP3    H144226   6.524   4.691  12.506  0.0434  1.9680  1.6036
 6677TIP3    H244227   6.549   4.737  12.364  0.0349 -2.3354  0.0423
 6678TIP3   OH244228   4.642   2.449  12.791  0.7720 -0.0921 -0.5720
 6678TIP3    H144229   4.637   2.537  12.828 -0.0818 -0.2491 -0.2869
 6678TIP3    H244230   4.557   2.409  12.813  1.3746 -1.1942 -0.1529
 6679TIP3   OH244231   2.849   6.344  12.239  0.2939 -0.3813 -0.3697
 6679TIP3    H144232   2.799   6.317  12.161 -0.7347  1.0696 -0.2366
 6679TIP3    H244233   2.912   6.273  12.252 -0.8167 -1.5988 -1.3650
 6680TIP3   OH244234   6.684   2.639  12.430  0.3429  0.1642  0.3541
 6680TIP3    H144235   6.622   2.676  12.369  0.8874  0.7743  0.1563
 6680TIP3    H244236   6.699   2.550  12.399 -1.7977 -0.6591  1.4540
 6681TIP3   OH244237   4.668   6.338  10.567 -0.1298 -0.6232 -0.2805
 6681TIP3    H144238   4.743   6.376  10.522 -0.4424  0.5209  0.1296
 6681TIP3    H244239   4.641   6.406  10.629 -1.0956 -1.2820  0.0338
 6682TIP3   OH244240   1.703   2.796  10.494 -0.3004  0.4165 -0.0858
 6682TIP3    H144241   1.771   2.736  10.526  2.4406  1.9774 -2.4775
 6682TIP3    H244242   1.634   2.739  10.461  1.7016 -1.4627 -1.2840
 6683TIP3   OH244243   1.801   7.190  10.991  0.0592 -0.0430 -0.3230
 6683TIP3    H144244   1.848   7.115  10.954 -0.7335 -0.0261 -1.4337
 6683TIP3    H244245   1.861   7.227  11.056  0.9346 -0.9344 -0.6025
 6684TIP3   OH244246   6.736   4.279  12.962 -0.5048 -0.0788 -0.1034
 6684TIP3    H144247   6.811   4.221  12.966 -0.7978 -0.6184 -1.6954
 6684TIP3    H244248   6.773   4.367  12.959  0.0093 -0.2827  0.2411
 6685TIP3   OH244249   1.503   6.100  12.254  0.4876  0.3384  0.1667
 6685TIP3    H144250   1.575   6.083  12.314 -0.9960  0.0531  1.9695
 6685TIP3    H244251   1.515   6.037  12.183  1.7636  0.0087  0.6605
 6686TIP3   OH244252   2.124   1.136  11.623  0.2727  0.4569  0.3819
 6686TIP3    H144253   2.142   1.125  11.530 -0.4391  0.5012  0.2346
 6686TIP3    H244254   2.074   1.217  11.628 -0.7778 -0.1934  0.6553
 6687TIP3   OH244255   4.682   5.787  10.969 -0.2652 -0.1778 -0.0315
 6687TIP3    H144256   4.704   5.763  10.879  0.7937 -0.7933  0.3750
 6687TIP3    H244257   4.759   5.835  11.000 -0.3712 -0.5056  0.7410
 6688TIP3   OH244258   2.495   5.181  12.639 -0.9178 -0.2494 -0.2523
 6688TIP3    H144259   2.567   5.189  12.701  1.4296 -1.7236 -2.5736
 6688TIP3    H244260   2.458   5.094  12.656 -0.3314 -0.6169 -0.7928
 6689TIP3   OH244261   3.073   4.733  12.321 -0.5117 -0.2117  0.3669
 6689TIP3    H144262   3.134   4.695  12.385  0.0116  0.2602  0.1514
 6689TIP3    H244263   3.107   4.706  12.236 -0.9180 -0.4064  0.2628
 6690TIP3   OH244264   7.305   5.810  11.940 -0.1284 -0.2441  0.1044
 6690TIP3    H144265   7.235   5.754  11.975  0.6163 -0.1965  1.7368
 6690TIP3    H244266   7.275   5.899  11.958 -0.6158 -0.1271 -1.1526
 6691TIP3   OH244267   1.213   4.312  12.566  0.6806 -0.4956  0.2019
 6691TIP3    H144268   1.261   4.239  12.606  2.6609  0.4193 -0.3553
 6691TIP3    H244269   1.155   4.271  12.503  0.4525 -1.6870  1.1461
 6692TIP3   OH244270   4.390   3.263  12.633  1.0495 -0.4148  0.1369
 6692TIP3    H144271   4.468   3.296  12.679  1.3449  2.2778 -2.0309
 6692TIP3    H244272   4.384   3.318  12.555 -1.6993 -2.1457 -0.9970
 6693TIP3   OH244273   5.327   7.341  11.711 -0.3198 -0.0413  0.5709
 6693TIP3    H144274   5.393   7.286  11.670 -2.2489 -1.5997 -0.6739
 6693TIP3    H244275   5.335   7.323  11.805  1.2521  0.1468  0.4984
 6694TIP3   OH244276   0.718   0.031  11.369 -0.0010 -0.2583 -0.3060
 6694TIP3    H144277   0.780  -0.015  11.425  0.2644 -1.1726 -1.3042
 6694TIP3    H244278   0.741   0.002  11.280  0.1706  1.8027 -0.9951
 6695TIP3   OH244279   6.171   3.519  12.820 -0.3945  0.3082 -0.0280
 6695TIP3    H144280   6.088   3.550  12.857 -0.1319  1.1746 -0.1426
 6695TIP3    H244281   6.179   3.564  12.736  0.4547  0.6861  0.2334
 6696TIP3   OH244282   5.068   3.566  11.960  0.3006  0.2777 -0.3052
 6696TIP3    H144283   4.980   3.603  11.952  0.1577 -0.2192 -1.0737
 6696TIP3    H244284   5.056   3.483  12.005  0.5003  0.6311  0.4326
 6697TIP3   OH244285   6.506   1.926  12.754 -0.4134  0.5051  0.7951
 6697TIP3    H144286   6.433   1.952  12.698 -0.8310 -0.4395  0.8879
 6697TIP3    H244287   6.511   1.995  12.821 -1.4328  0.4049  0.9848
 6698TIP3   OH244288   0.954   1.180  11.071  0.0617  0.4636 -0.3493
 6698TIP3    H144289   0.930   1.088  11.063  1.6221 -0.1919  1.6488
 6698TIP3    H244290   1.025   1.192  11.009  1.2749 -0.2752  0.8561
 6699TIP3   OH244291   3.343   0.709  12.799  0.0130 -0.2139  0.1230
 6699TIP3    H144292   3.432   0.688  12.772 -0.3842 -0.1950 -1.2625
 6699TIP3    H244293   3.318   0.637  12.857  0.9204 -0.2123  0.5341
 6700TIP3   OH244294   4.986   2.115  12.401  0.0370  0.3178  0.3979
 6700TIP3    H144295   5.044   2.112  12.326 -1.1805  0.5296 -0.5832
 6700TIP3    H244296   4.935   2.034  12.396 -0.4689  0.6142  0.6424
 6701TIP3   OH244297   2.698   6.527  10.688  0.4701 -0.5196  0.0273
 6701TIP3    H144298   2.736   6.520  10.601 -2.5968  0.7912 -1.5598
 6701TIP3    H244299   2.648   6.447  10.699 -1.8388  0.7123 -0.9253
 6702TIP3   OH244300   6.747   7.358  11.700  0.2098  0.0943 -0.0221
 6702TIP3    H144301   6.684   7.341  11.770 -0.2502 -0.6397 -0.6084
 6702TIP3    H244302   6.807   7.423  11.738  0.4636 -0.8924  1.3448
 6703TIP3   OH244303   1.217   6.472  12.509 -0.3143 -0.6833 -0.2638
 6703TIP3    H144304   1.150   6.412  12.475 -0.1763 -0.7058 -0.4982
 6703TIP3    H244305   1.223   6.542  12.445 -1.4542  0.3191  0.6826
 6704TIP3   OH244306   5.180   6.531  10.603 -0.0678 -0.0146  0.0217
 6704TIP3    H144307   5.240   6.459  10.586  0.5196  0.2365  0.9361
 6704TIP3    H244308   5.214   6.573  10.683 -1.6251 -0.0686  0.7616
 6705TIP3   OH244309   0.826   5.986  11.885 -0.1791  0.4715  0.5593
 6705TIP3    H144310   0.866   6.048  11.823 -1.2827 -0.4740 -1.2031
 6705TIP3    H244311   0.755   6.036  11.925  0.3611  1.0137  0.8541
 6706TIP3   OH244312   4.833   0.113  10.725 -0.0114 -0.2928  0.0360
 6706TIP3    H144313   4.825   0.170  10.649 -0.2983 -0.4013 -0.0181
 6706TIP3    H244314   4.862   0.170  10.796 -0.8911  0.0472  0.1336
 6707TIP3   OH244315   2.685   7.002  10.747  0.0250  0.1618  0.6348
 6707TIP3    H144316   2.758   7.064  10.752  0.5802 -0.1057 -2.3331
 6707TIP3    H244317   2.708   6.933  10.808  0.6421  1.6090  2.1114
 6708TIP3   OH244318   2.563   5.688  12.129 -0.1628  0.1132  0.0019
 6708TIP3    H144319   2.539   5.598  12.153  0.4619 -0.4236 -1.3278
 6708TIP3    H244320   2.634   5.678  12.066  0.5762  1.5770  0.5686
 6709TIP3   OH244321   0.924   4.232  11.029 -0.1454  0.8515  0.1048
 6709TIP3    H144322   0.895   4.303  11.086 -0.5714  0.4542  0.3880
 6709TIP3    H244323   0.850   4.172  11.026  0.7453 -0.3488  1.1044
 6710TIP3   OH244324   6.952   1.676  10.486  0.1045 -0.3226 -0.3546
 6710TIP3    H144325   6.927   1.765  10.511  0.6070 -0.9049  2.6230
 6710TIP3    H244326   6.972   1.632  10.569  3.1575 -2.2513 -1.9034
 6711TIP3   OH244327   4.975   4.371  12.573  0.0139  0.0414  0.1765
 6711TIP3    H144328   4.939   4.293  12.530 -0.6435 -0.3252  1.3481
 6711TIP3    H244329   4.992   4.431  12.501 -1.0672 -0.5468 -0.6179
 6712TIP3   OH244330   2.923   3.134  13.530 -0.1286  0.4566 -0.8715
 6712TIP3    H144331   2.950   3.087  13.451 -2.3301 -0.1872 -1.3190
 6712TIP3    H244332   2.935   3.071  13.601 -1.5118 -0.2568 -1.2385
 6713TIP3   OH244333   5.536   1.192  11.440 -0.3017  0.3104  0.0708
 6713TIP3    H144334   5.546   1.286  11.454 -0.1592  0.3509 -0.2764
 6713TIP3    H244335   5.594   1.151  11.503  0.1642  0.4764 -0.2426
 6714TIP3   OH244336   6.249   2.637  12.382  0.0002 -0.4962  0.7396
 6714TIP3    H144337   6.276   2.612  12.470  0.3940  1.1404  1.1208
 6714TIP3    H244338   6.330   2.640  12.331  0.0552  0.5794  0.8696
 6715TIP3   OH244339   0.555   2.322  11.592  0.0747 -0.1103  0.1092
 6715TIP3    H144340   0.491   2.385  11.626 -0.1495  0.0898 -0.6709
 6715TIP3    H244341   0.545   2.327  11.497  1.5537  0.2282 -0.0440
 6716TIP3   OH244342   7.099   6.285  12.477  0.2724 -0.2162  0.2810
 6716TIP3    H144343   7.178   6.241  12.444 -0.3839 -2.4178  1.4371
 6716TIP3    H244344   7.033   6.267  12.410  0.0904 -0.7327  0.5923
 6717TIP3   OH244345   6.913   6.632  13.290  0.6334 -0.1503  0.2965
 6717TIP3    H144346   6.926   6.713  13.340 -0.3757 -0.0527  0.4207
 6717TIP3    H244347   6.987   6.629  13.229  2.2449 -0.5813  2.1727
 6718TIP3   OH244348   4.889   4.328  10.783 -0.5669  0.8386 -0.1794
 6718TIP3    H144349   4.951   4.383  10.830  1.8386 -2.8745  1.4856
 6718TIP3    H244350   4.876   4.372  10.699  1.1898  3.7722  0.9407
 6719TIP3   OH244351   6.931   6.408  11.728  0.5469  0.3355 -0.4893
 6719TIP3    H144352   6.926   6.315  11.703 -0.1331 -0.0842  1.0789
 6719TIP3    H244353   7.024   6.423  11.745  0.5686 -0.2576 -0.0632
 6720TIP3   OH244354   0.713   1.085  12.012 -0.2921 -0.2162 -0.9955
 6720TIP3    H144355   0.619   1.100  12.025  0.1704  1.6894  0.5136
 6720TIP3    H244356   0.755   1.165  12.042  1.8439 -0.9639 -1.7856
 6721TIP3   OH244357   4.830   1.827  11.653  0.3420  0.0770  0.6267
 6721TIP3    H144358   4.762   1.760  11.653 -0.9447  1.3076 -1.0401
 6721TIP3    H244359   4.879   1.812  11.572  1.6709 -0.3545  1.4664
 6722TIP3   OH244360   3.722   3.212  11.772  0.8809  0.3200 -0.4661
 6722TIP3    H144361   3.694   3.121  11.776 -0.0418  0.5140 -1.8045
 6722TIP3    H244362   3.718   3.243  11.863 -1.8977 -0.0858 -0.3754
 6723TIP3   OH244363   2.501   6.339  10.714 -0.3662 -0.1667 -0.1498
 6723TIP3    H144364   2.415   6.328  10.755 -0.3179 -1.7998 -0.3942
 6723TIP3    H244365   2.496   6.287  10.634  0.9283 -0.5073 -0.0371
 6724TIP3   OH244366   3.599   5.206  12.556 -0.6843 -0.1258 -0.0817
 6724TIP3    H144367   3.584   5.285  12.608 -1.5557  0.7076 -1.5260
 6724TIP3    H244368   3.687   5.177  12.580 -0.4647  1.1216  0.6882
 6725TIP3   OH244369   2.445   5.078  12.272 -0.3752 -0.7370 -0.5229
 6725TIP3    H144370   2.494   5.027  12.207  1.3183  1.3209 -0.9616
 6725TIP3    H244371   2.512   5.106  12.335 -0.9825  1.8730 -0.9401
 6726TIP3   OH244372   6.561   1.510  12.385  0.4896 -0.3553  0.7361
 6726TIP3    H144373   6.521   1.434  12.344 -2.7622  2.1698 -1.2671
 6726TIP3    H244374   6.501   1.533  12.456  1.3406  0.4589  1.2194
 6727TIP3   OH244375   2.873   1.259  10.373  0.2190 -0.6516 -0.2439
 6727TIP3    H144376   2.869   1.279  10.467  2.4659 -0.8589 -0.0369
 6727TIP3    H244377   2.868   1.163  10.369 -2.0056 -0.5615 -0.5476
 6728TIP3   OH244378   1.004   3.182  12.163 -0.3371 -0.2509  0.3564
 6728TIP3    H144379   1.043   3.098  12.138 -0.7762  0.0578 -1.5333
 6728TIP3    H244380   1.012   3.185  12.258 -0.5314 -2.5467  0.5114
 6729TIP3   OH244381   6.661   3.084  10.519  0.6578  0.2243  0.3736
 6729TIP3    H144382   6.686   3.169  10.484  0.1046  0.1360 -0.2619
 6729TIP3    H244383   6.566   3.085  10.521  0.6188 -0.5540 -0.1381
 6730TIP3   OH244384   2.339   0.005  13.257 -0.0486 -0.0250 -0.3385
 6730TIP3    H144385   2.255  -0.038  13.247 -0.2526  0.1246  0.6362
 6730TIP3    H244386   2.325   0.071  13.325  1.2348 -1.0823  1.0230
 6731TIP3   OH244387   2.355   2.474  11.260 -0.4258 -0.6088 -0.3637
 6731TIP3    H144388   2.351   2.410  11.332 -0.0328  0.6055  0.7755
 6731TIP3    H244389   2.275   2.525  11.268 -0.6665 -0.8418 -1.1798
 6732TIP3   OH244390   0.594   4.135  12.615 -0.0598  0.0224 -0.6307
 6732TIP3    H144391   0.575   4.152  12.707 -1.1415  3.1466 -1.2933
 6732TIP3    H244392   0.527   4.073  12.587 -0.3512 -0.1584  0.4347
 6733TIP3   OH244393   0.604   5.658  11.364  0.4324  0.1994  0.3313
 6733TIP3    H144394   0.610   5.627  11.274 -1.5515  0.8381 -0.0710
 6733TIP3    H244395   0.679   5.716  11.375  0.9677 -0.2673 -0.7362
 6734TIP3   OH244396   3.776   7.066  10.937  0.1640  0.5864  0.0428
 6734TIP3    H144397   3.715   7.111  10.996 -0.7903  0.2137 -0.6419
 6734TIP3    H244398   3.802   7.134  10.874  1.0997  0.9551  0.7828
 6735TIP3   OH244399   3.841   3.203  12.620 -0.3503  0.2070  0.1064
 6735TIP3    H144400   3.843   3.111  12.592 -0.6731  0.0406  0.6231
 6735TIP3    H244401   3.834   3.252  12.538  0.0746 -0.2188 -0.1912
 6736TIP3   OH244402   3.039   2.461  12.796 -0.0119 -0.2815  0.6635
 6736TIP3    H144403   2.976   2.486  12.863 -0.0724 -0.7341  0.7794
 6736TIP3    H244404   3.125   2.477  12.836 -0.0191  1.5569  0.0551
 6737TIP3   OH244405   4.637   5.126  10.868 -0.1931 -0.2046  0.1371
 6737TIP3    H144406   4.548   5.150  10.893 -0.0364 -0.1525  0.6421
 6737TIP3    H244407   4.658   5.186  10.796 -1.0968 -1.1732 -0.9948
 6738TIP3   OH244408   0.182   1.020  12.556 -0.7217 -0.5788 -0.3890
 6738TIP3    H144409   0.154   1.046  12.468 -0.3648 -1.9465 -0.9308
 6738TIP3    H244410   0.250   0.954  12.541  0.2325  0.0661  0.9095
 6739TIP3   OH244411   6.790   6.575  12.090  0.0142  0.8769 -0.6519
 6739TIP3    H144412   6.863   6.566  12.151  1.7111  1.9531 -2.4077
 6739TIP3    H244413   6.782   6.490  12.048 -0.5563  0.4123  0.3391
 6740TIP3   OH244414   0.005   0.544  11.967  0.2760 -0.7498 -0.1691
 6740TIP3    H144415   0.087   0.587  11.943  1.8905 -2.2474  2.2251
 6740TIP3    H244416   0.003   0.466  11.911  1.2958 -1.4609  0.7284
 6741TIP3   OH244417   6.311   7.646  11.995 -0.6228 -0.3562 -0.2530
 6741TIP3    H144418   6.347   7.702  12.063  0.1517 -0.4625 -0.5595
 6741TIP3    H244419   6.258   7.704  11.941 -2.7645 -0.6114  1.4659
 6742TIP3   OH244420   5.727   7.634  11.159  0.2947 -0.2519 -0.0419
 6742TIP3    H144421   5.669   7.627  11.083 -0.1075 -0.9456  0.3142
 6742TIP3    H244422   5.803   7.580  11.136  0.1241 -0.5519  0.0785
 6743TIP3   OH244423   7.646   6.798  11.361 -0.0139 -0.3265  0.2355
 6743TIP3    H144424   7.670   6.729  11.423  2.5933  0.4481  0.1930
 6743TIP3    H244425   7.719   6.859  11.362 -0.8910  0.9131 -1.9510
 6744TIP3   OH244426   0.622   1.254  10.133 -0.8031  0.1323 -0.2304
 6744TIP3    H144427   0.682   1.287  10.200  1.4632 -0.9522 -1.5847
 6744TIP3    H244428   0.638   1.159  10.131 -2.2623 -0.1348 -0.9551
 6745TIP3   OH244429   6.546   1.877  11.277  0.1552  0.1587  0.2246
 6745TIP3    H144430   6.600   1.915  11.207 -1.0864  0.0145 -0.8534
 6745TIP3    H244431   6.500   1.805  11.235 -1.6270  0.8937  0.8333
 6746TIP3   OH244432   6.507   5.642  12.318  0.1757  0.3063  0.7085
 6746TIP3    H144433   6.547   5.718  12.276 -1.4506  1.1963  0.6892
 6746TIP3    H244434   6.436   5.616  12.260 -0.4378 -0.0898  1.6018
 6747TIP3   OH244435   1.048   1.218  10.491 -0.1947 -0.1695 -0.0938
 6747TIP3    H144436   1.136   1.196  10.521 -0.5303  0.7004  1.6345
 6747TIP3    H244437   1.033   1.307  10.523 -1.4402 -0.0351 -0.9891
 6748TIP3   OH244438   6.145   4.432  10.955  0.1164  1.0151 -0.6991
 6748TIP3    H144439   6.192   4.351  10.937  0.2329  0.9505 -0.1214
 6748TIP3    H244440   6.208   4.487  11.001 -0.4784  0.7663  0.4686
 6749TIP3   OH244441   0.830   1.303  10.290 -0.4686 -0.3265 -0.1490
 6749TIP3    H144442   0.828   1.208  10.306 -1.4315 -0.3988 -0.6361
 6749TIP3    H244443   0.922   1.327  10.303 -0.3768 -1.1621  0.9205
 6750TIP3   OH244444   4.994   6.394  12.114  0.0521 -0.2507  0.2478
 6750TIP3    H144445   5.028   6.421  12.029  0.0687 -2.8868 -0.6853
 6750TIP3    H244446   5.063   6.418  12.176 -0.6521  3.2407 -0.1102
 6751TIP3   OH244447   6.165   3.988  11.472  0.5071  0.4366  0.4845
 6751TIP3    H144448   6.161   3.916  11.535 -1.6012  1.3941  1.5669
 6751TIP3    H244449   6.192   3.947  11.390 -1.6337 -1.8376  0.7908
 6752TIP3   OH244450   0.154   5.044  12.893 -0.3009 -0.3897 -0.1701
 6752TIP3    H144451   0.240   5.004  12.906  0.9329  1.9354 -0.6404
 6752TIP3    H244452   0.127   5.073  12.980 -1.4026 -2.5178  0.2452
 6753TIP3   OH244453   2.006   7.672  12.581 -0.4634 -0.9603 -0.2354
 6753TIP3    H144454   1.915   7.641  12.585 -0.6937 -0.3739 -0.7788
 6753TIP3    H244455   2.000   7.765  12.603 -0.0464 -0.8245 -0.6784
 6754TIP3   OH244456   7.653   3.841  13.121 -0.5043 -0.6991 -0.3407
 6754TIP3    H144457   7.624   3.885  13.041 -1.3030  1.4286  1.0004
 6754TIP3    H244458   7.582   3.858  13.184  0.2949 -1.9137  0.9312
 6755TIP3   OH244459   3.472   0.198  12.609 -0.0367  0.4882 -0.4999
 6755TIP3    H144460   3.508   0.280  12.645  1.0820  0.0329 -0.5468
 6755TIP3    H244461   3.393   0.182  12.661  0.9654  0.4047  1.0628
 6756TIP3   OH244462   4.103   4.051  10.851  0.5971 -0.2684  0.3035
 6756TIP3    H144463   4.171   4.090  10.905  3.6832 -1.3096 -2.5184
 6756TIP3    H244464   4.111   4.094  10.766 -2.1639 -0.6204 -0.2361
 6757TIP3   OH244465   7.109   5.801  11.261 -0.1909  0.2947  0.4483
 6757TIP3    H144466   7.074   5.861  11.195 -0.5478 -0.3252  0.0633
 6757TIP3    H244467   7.187   5.844  11.294  0.7414  0.0503 -1.3079
 6758TIP3   OH244468   3.371   7.527  12.531 -0.6763 -0.0438 -0.1978
 6758TIP3    H144469   3.350   7.444  12.572 -0.8068  0.0007 -0.1756
 6758TIP3    H244470   3.337   7.594  12.591 -0.4196  0.0303 -0.1290
 6759TIP3   OH244471   0.209   3.662  10.666 -0.1345 -0.1327  0.0501
 6759TIP3    H144472   0.272   3.722  10.708  0.6874 -0.2353 -0.9764
 6759TIP3    H244473   0.157   3.719  10.609 -0.4502 -0.1580  0.3169
 6760TIP3   OH244474   0.546   1.464  12.739  0.9927  0.8123  0.1708
 6760TIP3    H144475   0.483   1.461  12.811  0.9813  0.4496  0.1474
 6760TIP3    H244476   0.523   1.389  12.683  0.1669  1.8390 -0.9148
 6761TIP3   OH244477   0.013   4.149  11.650 -0.2205  0.4177  0.5614
 6761TIP3    H144478  -0.034   4.215  11.600 -0.7071 -0.3422  0.0011
 6761TIP3    H244479  -0.016   4.163  11.741 -1.6372 -0.1139  0.2091
 6762TIP3   OH244480   6.017   6.804  12.584 -0.4467 -0.4030 -0.7139
 6762TIP3    H144481   5.951   6.873  12.574  0.8275  0.6625 -2.3764
 6762TIP3    H244482   6.038   6.805  12.678 -0.2877  1.6837 -0.7165
 6763TIP3   OH244483   1.458   1.585  11.385  0.0874  0.1515  0.1924
 6763TIP3    H144484   1.461   1.575  11.480  1.4622 -1.7424  0.0138
 6763TIP3    H244485   1.453   1.495  11.352 -1.3181  0.8073 -1.5368
 6764TIP3   OH244486   2.381   2.931  11.865 -0.1144  0.0855 -0.2493
 6764TIP3    H144487   2.349   2.852  11.822  0.7144 -0.2490 -0.2757
 6764TIP3    H244488   2.437   2.973  11.800  0.7669 -0.1732  0.3220
 6765TIP3   OH244489   3.028   1.043  12.952  0.6439  0.3914 -0.0986
 6765TIP3    H144490   2.981   0.992  13.017  0.5861  0.4363 -0.1052
 6765TIP3    H244491   3.117   1.049  12.986  1.1177 -1.2616 -0.9855
 6766TIP3   OH244492   4.748   5.875  12.674 -0.2314  0.7798  0.6307
 6766TIP3    H144493   4.654   5.889  12.686 -0.3128  0.4456  0.4216
 6766TIP3    H244494   4.785   5.962  12.666 -0.4273  0.9437  1.4334
 6767TIP3   OH244495   3.299   3.314  10.949  0.0035  0.1729  0.4357
 6767TIP3    H144496   3.375   3.372  10.947 -0.4811  0.9767  2.7925
 6767TIP3    H244497   3.264   3.318  10.860  2.8593 -0.4942 -0.8387
 6768TIP3   OH244498   2.614   5.558  12.791  0.3355 -0.0702 -0.2790
 6768TIP3    H144499   2.705   5.529  12.786  0.6125  0.8544 -0.8912
 6768TIP3    H244500   2.607   5.603  12.875  0.2259 -0.8459  0.1288
 6769TIP3   OH244501   5.434   6.988  11.817 -0.2613  1.1078 -0.5460
 6769TIP3    H144502   5.363   6.955  11.872  0.3715  0.5829 -0.0220
 6769TIP3    H244503   5.513   6.949  11.854  0.1045 -0.2077 -2.5131
 6770TIP3   OH244504   7.252   7.679  11.070 -0.0673  0.6384 -0.2963
 6770TIP3    H144505   7.288   7.674  10.982  2.2515 -1.0268  0.6472
 6770TIP3    H244506   7.190   7.606  11.074  1.1960 -0.4616 -0.0395
 6771TIP3   OH244507   1.278   4.276  10.838 -0.7081  0.3974  0.1122
 6771TIP3    H144508   1.352   4.334  10.821 -0.5725  0.5344  1.0908
 6771TIP3    H244509   1.209   4.334  10.870 -0.9920  0.1782 -0.1011
 6772TIP3   OH244510   2.144   4.376  11.492 -0.7904 -0.6129  0.2840
 6772TIP3    H144511   2.141   4.466  11.527 -1.5696  0.3149 -2.0153
 6772TIP3    H244512   2.238   4.359  11.481 -0.5807 -0.5038  1.6602
 6773TIP3   OH244513   4.744   5.041  11.099  0.2929 -0.1343  0.3257
 6773TIP3    H144514   4.661   5.065  11.139  0.3124 -0.7955  0.7689
 6773TIP3    H244515   4.735   5.068  11.007  0.5479  2.0930  0.9207
 6774TIP3   OH244516   0.168   1.784  10.665  0.1533  0.3532 -0.6620
 6774TIP3    H144517   0.186   1.703  10.712 -2.4147 -0.0934 -0.3204
 6774TIP3    H244518   0.122   1.839  10.728 -0.6424  0.9423 -1.7291
 6775TIP3   OH244519   3.365   0.793  12.077 -0.0894  0.5248 -0.0162
 6775TIP3    H144520   3.317   0.739  12.014 -1.7930  2.6250 -0.6523
 6775TIP3    H244521   3.302   0.806  12.149  0.5278  1.1068  0.4278
 6776TIP3   OH244522   2.302   7.007  13.118  0.1083  0.7313  0.2557
 6776TIP3    H144523   2.269   6.940  13.178  2.0615 -2.8126 -2.2622
 6776TIP3    H244524   2.229   7.025  13.059  0.0120 -0.4822 -0.0218
 6777TIP3   OH244525   5.617   4.845  10.863  0.5292 -0.0142  0.1046
 6777TIP3    H144526   5.641   4.834  10.771  2.2698 -1.6528  0.6930
 6777TIP3    H244527   5.532   4.802  10.871 -1.6190  3.4597 -1.4311
 6778TIP3   OH244528   4.951   1.572  11.838  0.6035 -0.0524 -0.0923
 6778TIP3    H144529   4.937   1.498  11.898  0.2760 -0.9453 -1.2432
 6778TIP3    H244530   4.925   1.539  11.752 -0.1823  1.6014 -0.5422
 6779TIP3   OH244531   0.732   1.851  12.677 -0.0069 -0.0442 -0.1630
 6779TIP3    H144532   0.739   1.829  12.584  0.1538 -0.2875 -0.0914
 6779TIP3    H244533   0.819   1.883  12.701 -0.0447  0.0069 -0.0925
 6780TIP3   OH244534   7.163   4.500  12.059  0.4069 -0.1004  0.6647
 6780TIP3    H144535   7.150   4.405  12.054  3.0253 -0.7915  3.8934
 6780TIP3    H244536   7.255   4.512  12.038  0.7367  1.3696  2.6821
 6781TIP3   OH244537   5.040   6.351  12.836 -0.1398 -0.2773  0.5429
 6781TIP3    H144538   5.071   6.385  12.752 -0.1421  1.1321  1.0949
 6781TIP3    H244539   5.046   6.425  12.896 -2.8523 -0.4417  1.1285
 6782TIP3   OH244540   5.301   5.627  13.260 -0.0374 -0.1666  0.0615
 6782TIP3    H144541   5.233   5.559  13.256  0.6762 -0.8854 -0.3473
 6782TIP3    H244542   5.368   5.590  13.318 -0.8114  1.3394  2.0284
 6783TIP3   OH244543   4.065   7.312  10.987 -0.0317  0.0368  0.1377
 6783TIP3    H144544   4.038   7.221  10.984  0.8277 -0.2345 -3.1424
 6783TIP3    H244545   4.137   7.318  10.925 -0.6563  3.1048 -0.4673
 6784TIP3   OH244546   0.899   0.810  10.301  0.0699 -0.4289  0.7494
 6784TIP3    H144547   0.917   0.884  10.359  0.4570  0.9415 -1.0362
 6784TIP3    H244548   0.803   0.803  10.300  0.0489 -0.3152  1.3117
 6785TIP3   OH244549   4.900   1.060  13.161  0.1336  0.0599  0.2744
 6785TIP3    H144550   4.879   0.967  13.170 -0.2677  0.2038  0.8493
 6785TIP3    H244551   4.857   1.102  13.236 -0.8644  0.8989 -0.7324
 6786TIP3   OH244552   1.996   2.892  12.288  0.1534 -0.4315 -0.5665
 6786TIP3    H144553   1.945   2.896  12.208  0.8873  0.6656 -1.0046
 6786TIP3    H244554   2.021   2.983  12.306  0.5801 -0.7432  0.5169
 6787TIP3   OH244555   3.107   3.202  10.680 -0.2721 -0.9585 -0.8348
 6787TIP3    H144556   3.070   3.136  10.739 -1.9707  1.0458  0.4920
 6787TIP3    H244557   3.045   3.206  10.607 -0.8950  0.0169 -0.2773
 6788TIP3   OH244558   7.312   1.362  10.402  0.1864 -0.5328  0.5259
 6788TIP3    H144559   7.276   1.446  10.375  2.0626 -0.0050 -0.5581
 6788TIP3    H244560   7.407   1.374  10.398  0.5174 -2.6700  0.4308
 6789TIP3   OH244561   7.540   2.250  13.141  0.2275 -0.1140 -0.0606
 6789TIP3    H144562   7.453   2.277  13.113  0.4716 -0.0355 -0.7748
 6789TIP3    H244563   7.582   2.219  13.060  0.7085 -0.5540  0.3544
 6790TIP3   OH244564   5.153   6.236  13.111  0.0193 -0.2957 -0.6260
 6790TIP3    H144565   5.196   6.209  13.030  0.9617 -1.1920  0.1378
 6790TIP3    H244566   5.132   6.329  13.098 -0.5976 -0.6305 -2.1894
 6791TIP3   OH244567   6.012   6.101  11.586 -0.3472 -0.0784 -0.5071
 6791TIP3    H144568   5.934   6.074  11.634 -1.0326  1.3442 -0.7718
 6791TIP3    H244569   6.047   6.174  11.637  1.6932 -1.5955  0.4221
 6792TIP3   OH244570   1.653   2.494  12.706 -0.1955 -0.5321  0.3246
 6792TIP3    H144571   1.564   2.525  12.686  0.3231  0.7734 -0.0989
 6792TIP3    H244572   1.696   2.492  12.620  0.1970 -1.1365  0.5338
 6793TIP3   OH244573   7.211   7.650  11.785  0.2333 -0.1144  0.3304
 6793TIP3    H144574   7.193   7.696  11.703 -2.5054 -1.4881  0.0168
 6793TIP3    H244575   7.281   7.589  11.764 -0.1553 -0.1667 -0.8773
 6794TIP3   OH244576   1.029   1.493  10.536 -0.2252 -0.2963  0.3018
 6794TIP3    H144577   0.950   1.513  10.586 -1.0013  0.6471 -1.2243
 6794TIP3    H244578   1.051   1.575  10.492  0.6549 -0.9839 -0.5783
 6795TIP3   OH244579   5.725   2.091  10.556  0.1125 -0.9898  0.2111
 6795TIP3    H144580   5.760   2.026  10.495 -0.0714 -1.3788  0.5065
 6795TIP3    H244581   5.797   2.106  10.618  0.6012  0.0561 -0.5922
 6796TIP3   OH244582   2.648   0.635  11.279 -0.4384 -0.3183 -0.8206
 6796TIP3    H144583   2.642   0.658  11.371 -0.2409  0.0600 -0.8987
 6796TIP3    H244584   2.573   0.679  11.239 -0.6463 -0.6588 -0.8059
 6797TIP3   OH244585   6.300   2.180  11.877 -0.1272 -1.0609 -0.3204
 6797TIP3    H144586   6.318   2.271  11.899 -2.6232 -0.2414 -1.2569
 6797TIP3    H244587   6.344   2.167  11.793 -0.2950 -0.4955 -0.5010
 6798TIP3   OH244588   2.741   4.003  12.376 -0.0716 -0.0030  0.2202
 6798TIP3    H144589   2.700   3.920  12.352  1.0750 -0.6987  0.5854
 6798TIP3    H244590   2.718   4.063  12.305  1.0435 -1.2854 -1.2868
 6799TIP3   OH244591   0.255   6.811  11.360 -0.1870  0.5402 -0.4239
 6799TIP3    H144592   0.248   6.843  11.450  0.5935 -0.9391  0.1938
 6799TIP3    H244593   0.272   6.890  11.308 -1.1499  1.4813  0.6386
 6800TIP3   OH244594   2.958   1.455  11.452 -0.0998 -0.4650 -0.0016
 6800TIP3    H144595   3.011   1.488  11.525 -0.1637 -1.2661  0.4151
 6800TIP3    H244596   2.975   1.516  11.381  1.2447 -0.6121  0.1777
 6801TIP3   OH244597   5.810   7.267  11.690 -0.1269 -0.2965 -0.1596
 6801TIP3    H144598   5.868   7.298  11.759  1.9297 -0.8046 -1.5629
 6801TIP3    H244599   5.861   7.275  11.609 -2.0604 -0.6836 -1.5128
 6802TIP3   OH244600   1.974   5.113  12.226  0.4419 -0.2767  0.2368
 6802TIP3    H144601   2.067   5.106  12.202  0.9356 -1.9565  2.4046
 6802TIP3    H244602   1.974   5.136  12.319 -1.3536  0.6758  0.0556
 6803TIP3   OH244603   4.048   5.632  12.346 -0.0720 -0.2505  0.1161
 6803TIP3    H144604   4.037   5.649  12.252  0.5762 -1.2961 -0.1736
 6803TIP3    H244605   3.973   5.579  12.370  1.4208 -2.9056 -0.6470
 6804TIP3   OH244606   2.449   1.786  11.653  0.0871 -0.7509 -0.3403
 6804TIP3    H144607   2.462   1.812  11.562  1.9843  0.9052  0.3223
 6804TIP3    H244608   2.416   1.865  11.696 -2.2288 -1.9315  0.1757
 6805TIP3   OH244609   0.607   0.757  10.532  0.1600  0.4846 -0.2542
 6805TIP3    H144610   0.519   0.783  10.561 -0.6805 -0.5274 -1.7452
 6805TIP3    H244611   0.603   0.662  10.526  1.0869  0.4880 -1.1432
 6806TIP3   OH244612   4.755   6.124  10.411 -0.3805 -0.5532 -0.0905
 6806TIP3    H144613   4.709   6.187  10.465 -0.4384  0.8181 -1.6359
 6806TIP3    H244614   4.725   6.142  10.322  1.6537 -0.8993 -0.9163
 6807TIP3   OH244615   0.815   5.127  12.998  0.0841 -0.2860 -0.3484
 6807TIP3    H144616   0.734   5.076  12.985 -0.0034 -0.0073 -0.9660
 6807TIP3    H244617   0.880   5.082  12.944 -0.1388  0.5730 -1.3713
 6808TIP3   OH244618   3.509   1.361  10.580  0.1646 -0.0486 -0.3868
 6808TIP3    H144619   3.577   1.420  10.548 -0.2572  0.1171 -0.9994
 6808TIP3    H244620   3.514   1.285  10.522 -0.2065 -0.0098 -0.4747
 6809TIP3   OH244621   4.181   2.194  10.976 -0.5811 -0.7606 -0.2387
 6809TIP3    H144622   4.257   2.137  10.984  0.4149  0.6014  0.4963
 6809TIP3    H244623   4.109   2.143  11.012 -0.1875 -2.3246 -1.5345
 6810TIP3   OH244624   0.219   1.257  11.705  0.8839  0.3646 -0.1149
 6810TIP3    H144625   0.125   1.257  11.724  0.8752  0.1642 -0.1619
 6810TIP3    H244626   0.245   1.350  11.712  0.8241  0.3328  0.5805
 6811TIP3   OH244627   2.405   4.078  11.662 -0.0855  0.4700 -0.5562
 6811TIP3    H144628   2.391   4.148  11.599 -0.0334  1.4537  0.4909
 6811TIP3    H244629   2.409   4.122  11.747 -0.2823 -0.8224  0.1616
 6812TIP3   OH244630   1.797   2.357  11.758 -0.5386 -0.1474 -0.2980
 6812TIP3    H144631   1.739   2.341  11.832  0.6203 -0.8379  0.4875
 6812TIP3    H244632   1.828   2.271  11.733  1.0990  0.2922  0.1055
 6813TIP3   OH244633   1.222   6.938  11.307 -0.3264  0.1825  0.4496
 6813TIP3    H144634   1.164   6.953  11.381  0.1764  0.4621  0.7941
 6813TIP3    H244635   1.299   6.993  11.325 -0.6531  1.1179 -0.7989
 6814TIP3   OH244636   7.524   0.886  11.933  0.0405  0.4722  0.3164
 6814TIP3    H144637   7.619   0.891  11.925  0.2529 -0.7616  1.7469
 6814TIP3    H244638   7.508   0.835  12.012 -1.8248  2.3129  1.2222
 6815TIP3   OH244639   1.051   7.381  11.013  0.4133 -0.5357  0.3894
 6815TIP3    H144640   1.095   7.432  10.946 -0.2227 -1.1740 -0.5482
 6815TIP3    H244641   1.110   7.307  11.030 -0.6575 -1.9665 -1.6266
 6816TIP3   OH244642   0.525   7.630  11.563 -0.6067  0.0602  0.1134
 6816TIP3    H144643   0.586   7.671  11.502  1.1663 -0.8115  1.2194
 6816TIP3    H244644   0.480   7.564  11.511 -0.2937  0.4132 -0.6227
 6817TIP3   OH244645   0.979   6.766  12.056 -0.2496  0.2773  0.4381
 6817TIP3    H144646   1.059   6.714  12.067 -0.6476 -0.2730  0.7323
 6817TIP3    H244647   1.002   6.830  11.988  0.2833 -0.1833  0.1766
 6818TIP3   OH244648   1.991   0.989  11.136  0.0118  0.1520  0.4985
 6818TIP3    H144649   1.989   1.009  11.229 -0.6429 -0.6319  0.6660
 6818TIP3    H244650   1.905   1.017  11.103 -0.0274 -0.2020  0.2807
 6819TIP3   OH244651   3.906   6.405  13.112 -0.4982 -0.2111 -0.3126
 6819TIP3    H144652   3.821   6.384  13.074 -0.9647  0.9416  0.0322
 6819TIP3    H244653   3.892   6.488  13.157  1.3906  1.2479 -2.2023
 6820TIP3   OH244654   0.429   4.116  13.431 -0.9438  0.6746  0.1794
 6820TIP3    H144655   0.497   4.159  13.380  2.1006 -0.8841  2.5905
 6820TIP3    H244656   0.432   4.158  13.516 -1.8475 -0.5609  0.8671
 6821TIP3   OH244657   5.539   3.883  11.730  0.3821 -0.4686 -0.1989
 6821TIP3    H144658   5.475   3.949  11.703  3.8938  1.9825 -3.6512
 6821TIP3    H244659   5.583   3.922  11.805  0.3421 -0.3349 -0.2439
 6822TIP3   OH244660   0.584   4.925  10.575  0.3317  0.1207 -0.1982
 6822TIP3    H144661   0.583   5.021  10.576  1.7667  0.1591  1.5171
 6822TIP3    H244662   0.491   4.900  10.575 -0.1106  1.5456  2.0122
 6823TIP3   OH244663   7.073   2.460  10.535  0.4287  0.1107 -0.1146
 6823TIP3    H144664   7.045   2.497  10.618 -4.2947  0.0702 -1.3693
 6823TIP3    H244665   7.094   2.369  10.555  0.1085  0.3078  1.1756
 6824TIP3   OH244666   0.953   7.234  17.818  0.6076 -0.4177  0.7985
 6824TIP3    H144667   0.894   7.164  17.789  0.2552 -0.7134  2.1609
 6824TIP3    H244668   1.008   7.194  17.885  1.8276  0.0775  0.1160
 6825TIP3   OH244669   6.792   4.777  13.100 -0.3152 -0.5417  0.0913
 6825TIP3    H144670   6.776   4.765  13.193 -0.7165  0.7039  0.1959
 6825TIP3    H244671   6.850   4.854  13.095  0.8549 -1.4326 -0.6156
 6826TIP3   OH244672   0.861   4.858  12.574  0.2686  0.4934  0.0664
 6826TIP3    H144673   0.881   4.808  12.653 -1.3615  1.2059  0.9767
 6826TIP3    H244674   0.877   4.797  12.502  0.1952 -0.6978  1.0378
 6827TIP3   OH244675   5.808   5.075  11.378  0.1438 -0.3040 -0.8614
 6827TIP3    H144676   5.845   5.142  11.320 -2.0560  0.1716 -1.8260
 6827TIP3    H244677   5.883   5.043  11.429  1.3287  2.8058 -0.4110
 6828TIP3   OH244678   3.295   7.152  11.546 -0.1029  0.0065 -0.2682
 6828TIP3    H144679   3.335   7.216  11.605  0.8165  0.5892 -1.4760
 6828TIP3    H244680   3.369   7.103  11.512 -0.7684 -1.4554  0.3163
 6829TIP3   OH244681   2.018   0.260  10.764  0.2085 -0.4612  0.4642
 6829TIP3    H144682   1.944   0.282  10.821 -1.2821  0.3352 -1.6575
 6829TIP3    H244683   1.978   0.228  10.684  2.1973 -0.2713 -0.6683
 6830TIP3   OH244684   6.799   1.141  12.495 -0.2287 -0.4816 -0.3190
 6830TIP3    H144685   6.882   1.100  12.470  1.4900  0.7104  2.8262
 6830TIP3    H244686   6.806   1.231  12.465 -1.3823 -0.8532 -1.8586
 6831TIP3   OH244687   5.955   7.482  11.088  0.0156 -0.3232 -0.6399
 6831TIP3    H144688   6.016   7.475  11.161  0.2718  0.2723 -0.7934
 6831TIP3    H244689   5.921   7.393  11.077 -0.1145 -0.3971  0.2770
 6832TIP3   OH244690   4.427   2.239  10.782  0.1196  0.1923  0.5857
 6832TIP3    H144691   4.452   2.273  10.696 -0.1271 -0.0656  0.4120
 6832TIP3    H244692   4.393   2.315  10.829  1.2896  0.5718  0.8556
 6833TIP3   OH244693   1.719   2.056  11.954  0.1694 -0.0134 -0.0090
 6833TIP3    H144694   1.676   2.036  11.871  0.1666 -0.2002  0.0355
 6833TIP3    H244695   1.688   2.143  11.977 -0.7767 -0.4537  0.4009
 6834TIP3   OH244696   7.651   7.000  11.058 -0.3586  0.0900 -0.4495
 6834TIP3    H144697   7.656   7.085  11.014  1.1694  0.9071  1.1550
 6834TIP3    H244698   7.572   7.005  11.112  1.0200  1.6180  1.6194
 6835TIP3   OH244699   6.199   0.544  13.125  0.2494 -0.1348  0.2647
 6835TIP3    H144700   6.257   0.555  13.200  0.5081  0.4762 -0.0227
 6835TIP3    H244701   6.133   0.482  13.156 -0.3030  0.9536  1.3974
 6836TIP3   OH244702   1.682   4.817  11.362  0.3208 -0.0024 -0.0677
 6836TIP3    H144703   1.756   4.765  11.391 -0.8921 -1.4712  0.5151
 6836TIP3    H244704   1.680   4.807  11.267  0.3403 -0.7251  0.0024
 6837TIP3   OH244705   0.702   4.092  10.919 -0.0066  0.6180  0.1153
 6837TIP3    H144706   0.711   4.136  10.835  0.5896  0.0072 -0.1421
 6837TIP3    H244707   0.610   4.105  10.943 -0.3142  0.3432 -0.8838
 6838TIP3   OH244708   3.721   7.667  11.146 -0.4209 -0.8408  0.0825
 6838TIP3    H144709   3.750   7.715  11.224 -0.1781 -0.2755 -0.3479
 6838TIP3    H244710   3.626   7.662  11.156 -0.5150  0.2684 -0.1538
 6839TIP3   OH244711   2.344   7.369  12.076  0.4565  0.3256 -0.1279
 6839TIP3    H144712   2.327   7.440  12.138  1.8656  0.2734  0.3446
 6839TIP3    H244713   2.391   7.411  12.004  0.8030 -0.0309 -0.1116
 6840TIP3   OH244714   3.211   2.294  11.026 -0.5193  0.5459 -0.0612
 6840TIP3    H144715   3.246   2.324  10.941 -0.0380 -1.5331 -0.6617
 6840TIP3    H244716   3.287   2.256  11.070 -1.4250 -1.5672 -0.2141
 6841TIP3   OH244717   3.171   4.976  10.674  0.3046  0.2543 -0.0964
 6841TIP3    H144718   3.140   5.011  10.757  0.5501 -0.5727  0.3580
 6841TIP3    H244719   3.255   5.018  10.659 -0.2282  1.2162 -0.4786
 6842TIP3   OH244720   1.456   7.051  11.506 -0.3224 -0.2314  0.3918
 6842TIP3    H144721   1.489   7.084  11.589  0.5232  1.7711 -0.6462
 6842TIP3    H244722   1.531   7.008  11.465 -0.8671 -1.6576  0.8329
 6843TIP3   OH244723   5.034   2.060  11.574  0.5437 -0.3053 -0.1033
 6843TIP3    H144724   4.964   2.103  11.623 -1.5274 -2.6214 -0.8077
 6843TIP3    H244725   5.112   2.114  11.590 -1.0628  1.6024  1.8644
 6844TIP3   OH244726   2.462   1.650  12.915 -0.2585 -0.1673 -0.4848
 6844TIP3    H144727   2.496   1.734  12.945 -2.0652  0.7813 -0.9266
 6844TIP3    H244728   2.540   1.599  12.893  0.9334  0.7953  1.3013
 6845TIP3   OH244729   1.214   0.508  12.597  0.7203  0.0838 -0.1190
 6845TIP3    H144730   1.174   0.540  12.516 -0.3995 -0.7009  0.0984
 6845TIP3    H244731   1.221   0.586  12.653  0.1263  0.3594 -0.4201
 6846TIP3   OH244732   3.408   0.165  12.345 -0.2109 -0.2040  0.3145
 6846TIP3    H144733   3.447   0.079  12.332 -0.3406 -0.1684 -0.3158
 6846TIP3    H244734   3.433   0.190  12.435  1.6532  0.0554 -0.2469
 6847TIP3   OH244735   0.839   5.381  11.168 -0.5110 -0.2240  0.0071
 6847TIP3    H144736   0.865   5.295  11.134  1.1117  0.3503 -0.3086
 6847TIP3    H244737   0.743   5.378  11.169 -0.4965 -2.0106 -0.0277
 6848TIP3   OH244738   4.811   6.983  11.847  0.0705 -0.3908 -0.3020
 6848TIP3    H144739   4.788   6.953  11.935  1.4972  2.2027  1.0753
 6848TIP3    H244740   4.841   6.905  11.801  0.0712 -1.6750  1.7861
 6849TIP3   OH244741   1.881   3.614  12.473 -0.0220  0.0023 -0.3629
 6849TIP3    H144742   1.905   3.588  12.384 -3.5921  0.6805 -1.6996
 6849TIP3    H244743   1.913   3.704  12.482  0.9379 -0.2955 -0.6655
 6850TIP3   OH244744   2.552   1.179  11.310 -0.0840  0.1457  0.0601
 6850TIP3    H144745   2.542   1.119  11.384 -0.4175  0.4816  0.2940
 6850TIP3    H244746   2.631   1.149  11.264 -1.5905 -2.0350 -1.2843
 6851TIP3   OH244747   2.294   6.423  12.305 -0.0105 -0.1902 -0.4235
 6851TIP3    H144748   2.377   6.399  12.346 -0.9424  0.0688  1.7968
 6851TIP3    H244749   2.316   6.494  12.245  1.5618 -1.1457 -1.0432
 6852TIP3   OH244750   0.539   5.176  11.847 -0.3403 -0.1775 -0.2950
 6852TIP3    H144751   0.613   5.195  11.904 -0.3209 -1.2731  0.0792
 6852TIP3    H244752   0.578   5.155  11.762 -0.1666 -1.2853  0.0447
 6853TIP3   OH244753   5.701   4.274  12.015 -0.1598  0.3650  0.0696
 6853TIP3    H144754   5.656   4.358  12.020 -0.6656  0.1028 -0.0370
 6853TIP3    H244755   5.716   4.260  11.921  0.0697  0.4068  0.0979
 6854TIP3   OH244756   7.281   3.382  11.722  0.5302 -0.4433  0.3906
 6854TIP3    H144757   7.273   3.316  11.654  0.9994  0.0843 -0.1887
 6854TIP3    H244758   7.334   3.341  11.790 -1.4590 -1.6425  1.3096
 6855TIP3   OH244759   2.295   2.947  10.918  0.0659 -0.1015  0.3853
 6855TIP3    H144760   2.272   2.961  10.826 -0.3359  0.1953  0.5282
 6855TIP3    H244761   2.385   2.915  10.915  0.0655 -0.0738 -0.1093
 6856TIP3   OH244762   3.915   2.811  10.506 -0.0559 -0.5158  0.2047
 6856TIP3    H144763   3.873   2.834  10.423 -0.1410 -0.4106  0.2767
 6856TIP3    H244764   3.863   2.856  10.573 -1.3486 -2.3612  0.5095
 6857TIP3   OH244765   0.467   5.834  10.649 -0.2154  0.3552 -0.0353
 6857TIP3    H144766   0.543   5.830  10.708 -0.1854  1.3058  0.0136
 6857TIP3    H244767   0.447   5.928  10.643 -2.3399  0.0475  1.1630
 6858TIP3   OH244768   2.915   7.089  13.025  0.0418 -0.6402  0.4679
 6858TIP3    H144769   2.910   7.157  12.957  0.5150 -2.9298 -2.0387
 6858TIP3    H244770   2.988   7.116  13.080  0.7654  0.4847 -0.9501
 6859TIP3   OH244771   4.266   2.121  10.300 -0.1133 -0.1765 -0.6432
 6859TIP3    H144772   4.299   2.200  10.256  0.8053  0.3792  0.9570
 6859TIP3    H244773   4.345   2.078  10.333 -0.8301  0.7065  2.5364
 6860TIP3   OH244774   4.489   5.695  12.750  0.0446  0.6334 -0.0330
 6860TIP3    H144775   4.510   5.779  12.791  0.1763 -0.3023  1.9611
 6860TIP3    H244776   4.395   5.699  12.733  0.0597  1.2081 -0.0059
 6861TIP3   OH244777   1.664   7.627  10.672 -0.2255 -0.2193  0.9092
 6861TIP3    H144778   1.697   7.564  10.736  1.3356  0.1195  0.4897
 6861TIP3    H244779   1.588   7.583  10.632 -1.1200 -0.4938  2.8215
 6862TIP3   OH244780   2.051   5.039  13.149  0.3133 -0.2077 -0.0103
 6862TIP3    H144781   2.087   4.989  13.223 -1.1005 -0.6387  0.4071
 6862TIP3    H244782   2.031   4.973  13.083  0.5987  0.0698 -0.3756
 6863TIP3   OH244783   2.303   4.034  11.356  0.0356  0.2704  0.0853
 6863TIP3    H144784   2.364   3.979  11.406  0.2487 -0.4917 -0.9718
 6863TIP3    H244785   2.216   4.004  11.383  0.0475  1.8905  2.1859
 6864TIP3   OH244786   1.762   0.039  10.988 -0.2705 -0.0231  0.4875
 6864TIP3    H144787   1.698  -0.016  10.942  1.3928 -1.5875 -0.1127
 6864TIP3    H244788   1.846  -0.005  10.972  1.0278  2.2038  0.8254
 6865TIP3   OH244789   5.314   5.126  13.013  0.2786  0.2328 -0.0532
 6865TIP3    H144790   5.292   5.086  12.929 -0.3677  0.0704  0.1948
 6865TIP3    H244791   5.374   5.198  12.990 -0.6458  0.8053 -0.7451
 6866TIP3   OH244792   0.135   3.439  10.822 -0.0597 -0.2204 -0.5248
 6866TIP3    H144793   0.229   3.422  10.832 -0.1251  0.3119  1.6336
 6866TIP3    H244794   0.131   3.524  10.777  0.5983  0.6586  0.9733
 6867TIP3   OH244795   2.070   4.624  11.621  0.3416 -0.6287 -0.4061
 6867TIP3    H144796   2.080   4.719  11.620 -0.0628 -0.5804 -0.0321
 6867TIP3    H244797   2.003   4.607  11.687 -2.3313 -0.9141 -2.9499
 6868TIP3   OH244798   2.443   5.899  12.714 -0.1054 -0.1057 -0.5075
 6868TIP3    H144799   2.422   5.925  12.804  0.2874 -0.4475 -0.3142
 6868TIP3    H244800   2.505   5.965  12.684  2.5857 -1.8712  0.7197
 6869TIP3   OH244801   7.399   6.814  10.850 -0.0043 -0.0136 -0.0365
 6869TIP3    H144802   7.398   6.761  10.771 -0.5854  0.2879 -0.2381
 6869TIP3    H244803   7.470   6.777  10.903 -0.3507 -0.9340 -0.2066
 6870TIP3   OH244804   6.505   6.710  13.266  0.2312  0.0060  0.7674
 6870TIP3    H144805   6.548   6.782  13.220 -0.6555 -0.4715 -0.9340
 6870TIP3    H244806   6.466   6.750  13.344  0.8674  1.0955  0.5431
 6871TIP3   OH244807   5.872   3.158  11.539  0.2715  0.1615 -0.6754
 6871TIP3    H144808   5.811   3.085  11.542  0.2559  0.1784 -0.5860
 6871TIP3    H244809   5.904   3.158  11.449  0.5340 -0.1738 -0.5858
 6872TIP3   OH244810   1.132   5.196  10.909 -0.1054 -0.3325 -0.2254
 6872TIP3    H144811   1.048   5.226  10.875  0.4298  0.2345 -1.0751
 6872TIP3    H244812   1.179   5.165  10.832  0.6480 -0.1968  0.1760
 6873TIP3   OH244813   6.955   2.982  12.386 -0.0311 -0.2096 -0.8499
 6873TIP3    H144814   7.030   3.041  12.379  1.3844 -1.7414  0.6912
 6873TIP3    H244815   6.973   2.928  12.463 -1.9603 -1.7088 -1.3651
 6874TIP3   OH244816   6.704   6.075  11.169  0.2536 -0.1724 -0.6904
 6874TIP3    H144817   6.702   5.979  11.175 -1.2543 -0.4189 -3.5006
 6874TIP3    H244818   6.730   6.093  11.079 -0.9641  2.0155 -0.6739
 6875TIP3   OH244819   1.419   3.918  12.189  0.0996 -0.1401 -0.0985
 6875TIP3    H144820   1.405   3.836  12.141  1.7789  0.4763 -1.7755
 6875TIP3    H244821   1.378   3.985  12.135 -1.3869  0.1565  1.3350
 6876TIP3   OH244822   3.794   1.787  12.312  0.9945  0.2319  0.7798
 6876TIP3    H144823   3.735   1.835  12.370  0.4850  0.7846 -0.1819
 6876TIP3    H244824   3.766   1.696  12.320 -0.4447  0.5646 -0.1592
 6877TIP3   OH244825   2.257   3.233  12.772  0.5723 -0.6236 -0.4937
 6877TIP3    H144826   2.276   3.193  12.857  0.8342 -0.5211 -0.5032
 6877TIP3    H244827   2.202   3.309  12.793 -0.3782 -1.2816 -0.5187
 6878TIP3   OH244828   7.450   1.684  12.926  0.2752  0.1604  0.7629
 6878TIP3    H144829   7.515   1.739  12.970  0.3287  0.2578  0.5631
 6878TIP3    H244830   7.394   1.652  12.997 -0.9588  2.0252  0.6991
 6879TIP3   OH244831   4.186   3.542  11.153 -0.1487  0.0149 -0.0796
 6879TIP3    H144832   4.186   3.497  11.238 -0.5235  0.9698  0.4363
 6879TIP3    H244833   4.228   3.626  11.171  0.7501 -0.1947 -1.0885
 6880TIP3   OH244834   2.006   2.079  12.354  0.2099  0.1203 -0.2486
 6880TIP3    H144835   2.015   2.125  12.438 -0.6329 -0.5223  0.2104
 6880TIP3    H244836   2.093   2.045  12.336  0.3839  0.2135  0.4022
 6881TIP3   OH244837   3.037   2.392  10.344  0.0172  0.3352 -0.1475
 6881TIP3    H144838   3.019   2.336  10.269  0.3601 -0.4014  0.3161
 6881TIP3    H244839   2.956   2.442  10.356 -1.1517 -1.6951  0.8403
 6882TIP3   OH244840   5.521   6.662  11.742  0.2431  0.0141 -0.0094
 6882TIP3    H144841   5.511   6.660  11.837 -0.2540  1.1046 -0.0304
 6882TIP3    H244842   5.603   6.708  11.727 -0.3799  1.1135 -0.1328
 6883TIP3   OH244843   2.709   0.025  11.261  0.0757  0.5547 -0.4819
 6883TIP3    H144844   2.715   0.109  11.216 -1.8614  0.7331 -0.4949
 6883TIP3    H244845   2.656  -0.030  11.203  1.1409 -0.6335 -0.3790
 6884TIP3   OH244846   7.641   6.145  11.529 -0.0733  0.2715 -0.0409
 6884TIP3    H144847   7.635   6.154  11.624  0.8442  0.9146 -0.0406
 6884TIP3    H244848   7.551   6.158  11.498 -0.2627  0.7034  0.6794
 6885TIP3   OH244849   3.302   3.006  12.205  0.3646  0.2216 -0.2588
 6885TIP3    H144850   3.250   3.066  12.151 -1.4059  1.1113  2.2716
 6885TIP3    H244851   3.244   2.930  12.219  0.9775 -0.1958  0.0440
 6886TIP3   OH244852   5.847   6.955  12.208  0.4351 -0.2363 -0.4283
 6886TIP3    H144853   5.882   7.017  12.143  0.3792 -0.7430 -0.9459
 6886TIP3    H244854   5.894   6.977  12.289  1.7179 -0.6689 -1.0230
 6887TIP3   OH244855   5.762   2.867  11.635 -0.0251 -0.8303 -0.4080
 6887TIP3    H144856   5.691   2.908  11.685  0.8180  1.7972 -1.2025
 6887TIP3    H244857   5.834   2.860  11.697  0.3709  0.5497 -0.6809
 6888TIP3   OH244858   6.924   1.087  10.850 -0.2315  0.0273 -0.7552
 6888TIP3    H144859   6.976   1.090  10.931 -1.8457  2.2784  0.3203
 6888TIP3    H244860   6.950   1.005  10.807  1.3549 -0.7968  1.5871
 6889TIP3   OH244861   4.037   2.699  10.140 -0.7343  0.2048 -0.0568
 6889TIP3    H144862   3.945   2.723  10.150 -0.3590  1.3695  0.7853
 6889TIP3    H244863   4.062   2.663  10.225 -0.3325  0.1140 -0.2083
 6890TIP3   OH244864   5.476   1.699  13.473  0.3372 -0.4118  0.3097
 6890TIP3    H144865   5.534   1.768  13.441  1.4640 -0.4561  2.1232
 6890TIP3    H244866   5.450   1.727  13.561 -1.2191 -1.1179  0.1154
 6891TIP3   OH244867   3.559   6.668  11.212  0.2374  0.2586 -0.4922
 6891TIP3    H144868   3.631   6.606  11.225 -0.7240 -0.7375  0.3214
 6891TIP3    H244869   3.531   6.690  11.301 -0.7117  0.3221 -0.7983
 6892TIP3   OH244870   6.513   2.428  12.550 -0.0123 -0.6379 -0.4159
 6892TIP3    H144871   6.486   2.502  12.604 -1.4490 -1.5075  0.1021
 6892TIP3    H244872   6.602   2.407  12.579 -0.4524 -0.5527  1.0275
 6893TIP3   OH244873   3.270   6.572  12.033 -0.2293  0.7531 -0.1218
 6893TIP3    H144874   3.187   6.578  12.080 -0.6482 -1.5909 -0.4637
 6893TIP3    H244875   3.252   6.613  11.948 -0.8817  0.7368  0.0046
 6894TIP3   OH244876   2.413   2.176  10.666  0.6266  0.0329 -0.5062
 6894TIP3    H144877   2.403   2.144  10.755  2.0954  0.7109 -0.0724
 6894TIP3    H244878   2.477   2.116  10.626 -0.4448 -0.6133 -1.3045
 6895TIP3   OH244879   1.608   0.325  11.005 -0.2585 -0.8170  0.5061
 6895TIP3    H144880   1.584   0.300  10.916 -0.1478 -1.3060  0.6094
 6895TIP3    H244881   1.539   0.385  11.033  0.4251  0.4530 -0.4034
 6896TIP3   OH244882   1.237   7.423  13.393 -0.2027  0.2580  0.1925
 6896TIP3    H144883   1.163   7.449  13.447 -0.2053 -0.1070  0.3682
 6896TIP3    H244884   1.212   7.450  13.304 -0.2675  0.7075  0.3454
 6897TIP3   OH244885   5.770   1.241  10.265 -0.0944  0.1999  0.0288
 6897TIP3    H144886   5.843   1.276  10.317  0.7206  0.6364 -1.3428
 6897TIP3    H244887   5.700   1.306  10.276  0.2936  0.6204  0.0778
 6898TIP3   OH244888   1.058   6.101  12.068  0.4233 -0.6242 -0.7448
 6898TIP3    H144889   1.074   6.195  12.078 -0.9812 -0.4477  0.0792
 6898TIP3    H244890   1.003   6.095  11.990 -0.9545 -0.5715  0.1987
 6899TIP3   OH244891   1.486   5.384  10.732  0.2635 -0.4922 -0.0610
 6899TIP3    H144892   1.457   5.465  10.773 -0.3741 -0.7537  0.0255
 6899TIP3    H244893   1.427   5.371  10.659  1.0119 -0.3542 -0.7059
 6900TIP3   OH244894   1.044   5.626  11.879 -0.3083 -0.7988 -0.1908
 6900TIP3    H144895   1.134   5.650  11.859 -0.4766 -0.5899 -0.7115
 6900TIP3    H244896   1.003   5.613  11.794 -1.2892  0.9999 -0.0435
 6901TIP3   OH244897   4.908   6.499  10.615  0.0337  0.7379  0.4649
 6901TIP3    H144898   4.981   6.548  10.578 -0.6533  0.4025 -1.4961
 6901TIP3    H244899   4.850   6.566  10.652  0.4014  1.1643  0.2796
 6902TIP3   OH244900   1.243   0.819  12.875 -0.4219 -0.3215  0.4447
 6902TIP3    H144901   1.233   0.908  12.842  0.9229 -0.2221  0.2552
 6902TIP3    H244902   1.157   0.779  12.864 -1.0320  0.9361  0.4941
 6903TIP3   OH244903   5.702   1.338  12.110  0.0357 -0.0469  0.6245
 6903TIP3    H144904   5.646   1.260  12.111 -1.4422  0.9692  1.9242
 6903TIP3    H244905   5.791   1.304  12.102 -0.5820 -1.8517  0.9732
 6904TIP3   OH244906   1.991   1.366  11.629 -0.1336  0.2905 -0.3353
 6904TIP3    H144907   1.944   1.444  11.600 -0.7751 -0.6624 -1.9502
 6904TIP3    H244908   1.940   1.334  11.703 -1.3939 -0.0846 -1.3508
 6905TIP3   OH244909   7.340   2.941  10.664  0.3516  0.4625  0.3747
 6905TIP3    H144910   7.255   2.903  10.644  0.8694 -0.3685 -0.2875
 6905TIP3    H244911   7.319   3.023  10.710 -0.7862 -0.7730  2.2149
 6906TIP3   OH244912   0.043   7.163  11.884  0.0416  0.4969  0.5876
 6906TIP3    H144913   0.087   7.238  11.924  1.1135 -0.4139  1.1815
 6906TIP3    H244914   0.077   7.160  11.795  3.0860 -1.5136  1.6551
 6907TIP3   OH244915   3.194   4.788  12.873  0.2103  0.2004  0.0710
 6907TIP3    H144916   3.210   4.720  12.938 -1.1913 -0.2496 -0.0235
 6907TIP3    H244917   3.172   4.866  12.925 -0.7272 -0.1105  0.1507
 6908TIP3   OH244918   0.402   1.166  13.437 -0.0577  0.2744 -0.5992
 6908TIP3    H144919   0.385   1.135  13.348 -0.1478  1.7204 -1.1122
 6908TIP3    H244920   0.348   1.110  13.492 -0.4300 -0.2866 -1.5062
 6909TIP3   OH244921   1.465   3.010  11.860  0.1000  0.0123 -0.2051
 6909TIP3    H144922   1.510   2.927  11.874 -1.4723 -0.8867 -0.2365
 6909TIP3    H244923   1.506   3.046  11.781  1.1595 -0.4538  0.1092
 6910TIP3   OH244924   6.650   7.278  11.053  0.3647 -0.2486  0.0446
 6910TIP3    H144925   6.601   7.200  11.079 -0.4971 -0.2343 -1.3704
 6910TIP3    H244926   6.582   7.344  11.037  0.9606  0.2901 -0.3143
 6911TIP3   OH244927   5.097   4.652  12.155  0.3910  0.3844 -0.4528
 6911TIP3    H144928   5.055   4.725  12.201  0.2627 -0.4092  0.7214
 6911TIP3    H244929   5.187   4.652  12.188  0.1604 -0.5088  0.2177
 6912TIP3   OH244930   6.357   4.250  10.764  0.7712  0.0037  0.1128
 6912TIP3    H144931   6.309   4.208  10.835  1.0653  1.0045  0.9240
 6912TIP3    H244932   6.316   4.216  10.684 -0.9013  0.3784  0.7791
 6913TIP3   OH244933   6.801   0.071  11.319 -0.2771 -0.4263 -0.2782
 6913TIP3    H144934   6.742   0.029  11.381 -0.5980 -0.5801 -0.6847
 6913TIP3    H244935   6.846  -0.002  11.276 -0.6806 -0.3460 -0.8354
 6914TIP3   OH244936   6.685   3.132  11.803 -0.3688 -0.0509 -0.5308
 6914TIP3    H144937   6.747   3.060  11.811  0.3355  0.6347  0.4842
 6914TIP3    H244938   6.626   3.122  11.878 -0.5729  0.1460 -0.6617
 6915TIP3   OH244939   5.555   5.721  12.672 -0.1647  0.2178 -0.2476
 6915TIP3    H144940   5.573   5.726  12.766 -1.6226 -0.6710  0.0965
 6915TIP3    H244941   5.511   5.637  12.660 -1.1058  0.8640 -1.5389
 6916TIP3   OH244942   0.406   4.119  11.271 -0.4885 -0.1133  0.0128
 6916TIP3    H144943   0.481   4.065  11.298 -0.6725 -0.8359 -0.8600
 6916TIP3    H244944   0.400   4.187  11.337  0.8828 -0.1049  0.1574
 6917TIP3   OH244945   6.897   6.198  12.317 -0.1109  0.2253  0.2556
 6917TIP3    H144946   6.850   6.183  12.400 -1.0263  1.1466 -0.0774
 6917TIP3    H244947   6.828   6.204  12.252  0.6014 -0.3773 -0.5784
 6918TIP3   OH244948   6.779   3.643  12.285  0.4099 -0.3662  0.1402
 6918TIP3    H144949   6.704   3.635  12.344  0.9125  0.8099  0.9758
 6918TIP3    H244950   6.740   3.663  12.200 -0.2336  1.4297  0.8017
 6919TIP3   OH244951   4.230   5.757  12.766  0.2057 -0.1114  0.0051
 6919TIP3    H144952   4.220   5.849  12.792 -0.2516 -0.2141  0.2068
 6919TIP3    H244953   4.232   5.709  12.849 -1.6821 -0.4811 -0.1231
 6920TIP3   OH244954   3.254   0.018  11.634 -0.8861  0.3224 -0.8220
 6920TIP3    H144955   3.207  -0.046  11.580 -1.4370 -1.4313  1.5678
 6920TIP3    H244956   3.201   0.024  11.714  0.6713  1.6732  0.1552
 6921TIP3   OH244957   5.769   2.931  12.113 -0.0169 -0.4178 -0.0594
 6921TIP3    H144958   5.864   2.914  12.113  0.1721  0.1379  2.5895
 6921TIP3    H244959   5.730   2.846  12.132  0.2072 -0.1739  1.7468
 6922TIP3   OH244960   2.497   1.357  12.163  0.6878  0.0428  0.3985
 6922TIP3    H144961   2.505   1.448  12.191  0.2138  0.1783  0.1103
 6922TIP3    H244962   2.584   1.320  12.176  0.4211  0.0136  2.3199
 6923TIP3   OH244963   7.222   5.960  13.218  0.2804  0.0168  0.2662
 6923TIP3    H144964   7.216   5.864  13.224 -0.6186  0.1285  1.6391
 6923TIP3    H244965   7.206   5.990  13.307 -1.5203  1.5378 -0.4882
 6924TIP3   OH244966   5.045   0.539  13.062 -0.0162 -0.0496  0.1960
 6924TIP3    H144967   5.103   0.615  13.050 -0.1499 -0.0230 -0.3302
 6924TIP3    H244968   4.957   0.573  13.048 -0.0511 -0.3699 -0.4022
 6925TIP3   OH244969   5.364   6.834  11.234 -0.1020  0.0279 -0.0692
 6925TIP3    H144970   5.454   6.838  11.266 -0.5886  0.9126  1.2795
 6925TIP3    H244971   5.320   6.773  11.293 -0.1155 -1.3954 -1.4982
 6926TIP3   OH244972   3.258   1.494  12.039 -0.1870  0.2324  0.3140
 6926TIP3    H144973   3.260   1.588  12.060 -0.1668 -0.3952  3.7569
 6926TIP3    H244974   3.178   1.462  12.080  0.6995 -1.5308  0.7596
 6927TIP3   OH244975   7.666   2.969  12.743 -0.3818 -0.0373 -0.1318
 6927TIP3    H144976   7.697   2.881  12.725 -0.0288 -0.0548  0.5191
 6927TIP3    H244977   7.689   3.020  12.666 -0.4309 -0.4746 -0.4362
 6928TIP3   OH244978   1.082   3.736  12.024  0.5093 -0.2449  0.0332
 6928TIP3    H144979   1.106   3.797  11.955 -0.0750  0.1096  0.1386
 6928TIP3    H244980   1.061   3.654  11.979 -0.2080  0.0867 -0.2412
 6929TIP3   OH244981   7.464   0.376  12.764  0.3440 -0.4472 -0.0007
 6929TIP3    H144982   7.393   0.312  12.776 -0.6940  0.8438  1.2255
 6929TIP3    H244983   7.496   0.392  12.853 -0.0265  1.3536 -0.1636
 6930TIP3   OH244984   7.197   5.681  13.284 -0.1037  0.5689 -0.2783
 6930TIP3    H144985   7.113   5.636  13.274 -0.4407  0.5085  2.2979
 6930TIP3    H244986   7.260   5.611  13.299  0.1614  0.7104 -0.7105
 6931TIP3   OH244987   6.328   7.072  12.745 -0.6699 -0.4930  0.8011
 6931TIP3    H144988   6.356   7.127  12.672 -0.2322 -2.4542 -0.6034
 6931TIP3    H244989   6.409   7.052  12.792 -0.5721 -1.1717  0.3678
 6932TIP3   OH244990   6.575   4.615  11.422 -0.8563  0.2500  0.1454
 6932TIP3    H144991   6.644   4.560  11.384 -0.7704  0.3335  0.1812
 6932TIP3    H244992   6.494   4.572  11.396 -0.7763 -0.2692  0.7508
 6933TIP3   OH244993   7.538   0.232  11.445 -0.2950  0.2177 -0.0802
 6933TIP3    H144994   7.623   0.190  11.433 -0.8057 -1.0649  0.6465
 6933TIP3    H244995   7.481   0.163  11.478 -1.0510  1.5977  1.6740
 6934TIP3   OH244996   6.445   1.508  12.934 -0.1470  0.2535  0.1824
 6934TIP3    H144997   6.352   1.532  12.939 -0.1441  0.3887 -0.3431
 6934TIP3    H244998   6.448   1.417  12.965 -0.9611 -0.9290 -2.8430
 6935TIP3   OH244999   2.517   4.088  10.942  0.7719  0.3350 -0.0641
 6935TIP3    H145000   2.471   4.144  10.880  0.9864  0.2745 -0.2750
 6935TIP3    H245001   2.468   4.098  11.024 -0.7298 -1.1284 -0.7291
 6936TIP3   OH245002   4.576   1.437  12.212 -0.4591  0.0834  0.1518
 6936TIP3    H145003   4.484   1.410  12.201 -0.2810 -0.7158  0.5583
 6936TIP3    H245004   4.626   1.356  12.203  0.1326  0.3517  0.8880
 6937TIP3   OH245005   6.375   1.286  12.313 -0.0505  0.5140 -0.5876
 6937TIP3    H145006   6.375   1.280  12.409  5.2547  0.2677 -0.3415
 6937TIP3    H245007   6.290   1.250  12.287 -1.4475 -0.0526  3.9536
 6938TIP3   OH245008   2.526   1.396  10.536 -0.2611  0.6235 -0.0219
 6938TIP3    H145009   2.454   1.430  10.588 -1.9655 -0.2651 -1.6822
 6938TIP3    H245010   2.519   1.440  10.452 -0.2422 -1.0365 -0.9506
 6939TIP3   OH245011   3.349   1.023  12.840  0.7303  0.1480 -0.0463
 6939TIP3    H145012   3.322   1.026  12.932  0.4460 -0.8705 -0.0828
 6939TIP3    H245013   3.339   0.931  12.815  2.0172  0.1815 -0.7436
 6940TIP3   OH245014   7.414   5.009  10.982  0.0248  0.0457 -0.1337
 6940TIP3    H145015   7.505   5.027  10.957 -0.0676  1.7193  0.5787
 6940TIP3    H245016   7.420   4.943  11.051  0.7313  0.4475  0.1981
 6941TIP3   OH245017   2.311   1.360  11.733 -0.2674 -0.1206 -0.8822
 6941TIP3    H145018   2.287   1.394  11.819  3.3915 -2.4267  1.3187
 6941TIP3    H245019   2.241   1.299  11.710 -1.6943  1.1190  0.0163
 6942TIP3   OH245020   2.456   2.360  10.469 -0.0049  0.2675 -0.0157
 6942TIP3    H145021   2.375   2.346  10.419 -0.0307  0.4702 -0.0334
 6942TIP3    H245022   2.453   2.296  10.539 -0.0164  0.0445 -0.2192
 6943TIP3   OH245023   3.940   5.001  11.026 -0.2080 -0.3216 -0.1248
 6943TIP3    H145024   3.860   5.001  11.079 -0.2121 -2.3504 -0.0275
 6943TIP3    H245025   4.000   4.945  11.075  0.8199  0.1452 -0.8273
 6944TIP3   OH245026   6.464   1.060  11.133 -0.3159 -0.0288 -0.3621
 6944TIP3    H145027   6.372   1.085  11.127  0.1351  1.6207 -0.9183
 6944TIP3    H245028   6.483   1.020  11.049 -0.4217 -0.0358 -0.3835
 6945TIP3   OH245029   4.441   2.755  10.729 -0.2748 -0.4399 -0.3385
 6945TIP3    H145030   4.413   2.840  10.763  0.8553 -0.3582  0.4666
 6945TIP3    H245031   4.451   2.768  10.635  0.4921  0.5110 -0.1407
 6946TIP3   OH245032   5.323   4.599  12.710  0.1358  0.4900  0.1207
 6946TIP3    H145033   5.389   4.628  12.772  0.8621 -0.6150 -0.1087
 6946TIP3    H245034   5.248   4.574  12.764  1.4361 -2.3339  0.7969
 6947TIP3   OH245035   5.736   3.005  12.410 -0.3733  0.0574 -0.0667
 6947TIP3    H145036   5.763   2.918  12.439  2.2074  0.1357 -1.8929
 6947TIP3    H245037   5.739   3.000  12.314  1.3663  2.4917 -0.2374
 6948TIP3   OH245038   4.315   6.760  12.271  0.5127 -0.4345 -0.4633
 6948TIP3    H145039   4.369   6.681  12.279  1.9825  0.7009  2.0526
 6948TIP3    H245040   4.320   6.783  12.179  0.2370 -3.1160 -1.2227
 6949TIP3   OH245041   4.643   7.191  11.725  0.0738 -0.3262  0.1170
 6949TIP3    H145042   4.674   7.243  11.651  0.3514  0.3997  0.7208
 6949TIP3    H245043   4.722   7.144  11.755 -0.0319 -0.5962 -0.0231
 6950TIP3   OH245044   0.994   6.338  11.527 -0.0131 -0.5189 -0.4720
 6950TIP3    H145045   1.014   6.309  11.438 -1.1749 -2.8423 -0.0570
 6950TIP3    H245046   0.929   6.407  11.516  0.5010 -0.1594 -1.4149
 6951TIP3   OH245047   6.323   5.359  12.135 -0.3250  0.2812 -0.0404
 6951TIP3    H145048   6.257   5.339  12.068 -1.9298  1.7623  1.0258
 6951TIP3    H245049   6.333   5.454  12.131  2.2665  0.0517 -0.5816
 6952TIP3   OH245050   0.375   7.660  12.021 -0.2623 -0.4363  0.4535
 6952TIP3    H145051   0.373   7.738  12.076 -0.7890 -0.5460  0.5880
 6952TIP3    H245052   0.451   7.674  11.963 -1.5026  1.0969 -0.8884
 6953TIP3   OH245053   2.582   6.532  13.203 -0.1978  0.4274  0.0768
 6953TIP3    H145054   2.624   6.522  13.117 -0.9203  3.2358 -0.7037
 6953TIP3    H245055   2.648   6.504  13.266  0.8887 -0.2770 -1.3177
 6954TIP3   OH245056   4.664   6.529  10.773 -0.0399  0.3259  0.5145
 6954TIP3    H145057   4.589   6.589  10.778  0.1517  0.5248  1.1148
 6954TIP3    H245058   4.677   6.500  10.863  0.4488  0.0988  0.3715
 6955TIP3   OH245059   0.656   2.259  10.391  0.5009 -0.2355  0.4063
 6955TIP3    H145060   0.679   2.187  10.332 -0.6593 -1.7396  1.6981
 6955TIP3    H245061   0.576   2.229  10.435  0.8523  1.1918  2.1232
 6956TIP3   OH245062   6.931   0.644  11.314  0.1621  0.0767  0.3658
 6956TIP3    H145063   6.946   0.553  11.289  1.4771 -0.1137  1.7011
 6956TIP3    H245064   6.874   0.639  11.390 -1.4877  0.5140 -0.7800
 6957TIP3   OH245065   0.874   5.864  12.736  0.1525 -0.4440 -0.0980
 6957TIP3    H145066   0.941   5.931  12.725 -0.9908  0.8067  0.2921
 6957TIP3    H245067   0.820   5.896  12.809 -1.1198 -1.1933 -0.6804
 6958TIP3   OH245068   7.190   1.346  11.489 -0.4424  1.1228 -0.2018
 6958TIP3    H145069   7.183   1.340  11.584 -1.8685  0.0990 -0.3348
 6958TIP3    H245070   7.267   1.295  11.466 -1.0895 -0.1214  0.3003
 6959TIP3   OH245071   6.675   0.364  11.852  0.5282  0.0888 -0.9280
 6959TIP3    H145072   6.661   0.459  11.846 -0.7179 -0.0807 -0.8073
 6959TIP3    H245073   6.649   0.331  11.767 -0.4745 -0.3114 -0.4751
 6960TIP3   OH245074   3.922   2.107  10.975 -0.4520 -0.0914 -0.1210
 6960TIP3    H145075   3.829   2.089  10.962 -0.3604 -0.0905 -0.7936
 6960TIP3    H245076   3.939   2.185  10.924 -0.8442  2.0698  2.7766
 6961TIP3   OH245077   2.966   0.092  13.156 -0.2003 -0.4977 -0.1891
 6961TIP3    H145078   2.931   0.047  13.079 -0.8658 -0.2747 -0.0182
 6961TIP3    H245079   2.976   0.183  13.128 -1.2494 -0.2406  0.2454
 6962TIP3   OH245080   4.898   5.032  12.451  0.3998 -1.0145 -0.6195
 6962TIP3    H145081   4.824   5.045  12.511  0.2561  1.5748 -1.2669
 6962TIP3    H245082   4.965   5.093  12.482  1.3750 -1.6232 -1.4817
 6963TIP3   OH245083   6.037   0.679  11.638  0.4614 -0.9373 -0.4575
 6963TIP3    H145084   6.073   0.699  11.551  1.7785  1.4053  0.5553
 6963TIP3    H245085   6.100   0.715  11.699 -0.7945 -1.9210  1.5041
 6964TIP3   OH245086   4.426   1.429  10.883  0.1086  0.2713  0.2925
 6964TIP3    H145087   4.478   1.352  10.862 -0.5075 -0.2720  0.7074
 6964TIP3    H245088   4.340   1.410  10.847 -0.2311  0.4681  0.9899
 6965TIP3   OH245089   3.249   5.755  12.441 -0.0628 -0.3643 -0.4414
 6965TIP3    H145090   3.318   5.708  12.488 -0.4939 -0.0868  0.4977
 6965TIP3    H245091   3.279   5.845  12.437  0.2891 -0.5079 -1.3331
 6966TIP3   OH245092   3.854   4.657  11.021  0.1234 -0.1875 -0.0958
 6966TIP3    H145093   3.812   4.700  10.946 -1.5875 -0.0651  0.8758
 6966TIP3    H245094   3.831   4.564  11.011 -2.5340  0.1639  1.6562
 6967TIP3   OH245095   1.993   0.952  11.446 -0.0829  0.0228  0.4349
 6967TIP3    H145096   1.898   0.959  11.446 -0.2651 -1.3556 -1.8211
 6967TIP3    H245097   2.012   0.883  11.509 -0.4681  0.9668  1.6152
 6968TIP3   OH245098   1.702   2.166  12.462 -0.2434 -0.0113  0.5645
 6968TIP3    H145099   1.783   2.213  12.440 -0.4254  0.1903  0.3176
 6968TIP3    H245100   1.694   2.175  12.557  0.6935 -1.1109  0.7812
 6969TIP3   OH245101   6.379   1.972  10.958  0.0856  0.4628 -0.2057
 6969TIP3    H145102   6.403   1.897  11.013  0.7950  2.1608  1.9593
 6969TIP3    H245103   6.386   1.940  10.868  2.5912 -1.4231  0.5522
 6970TIP3   OH245104   6.785   5.534  10.954  0.1664  0.0347  0.1636
 6970TIP3    H145105   6.697   5.502  10.933  0.8588 -2.1633  0.3145
 6970TIP3    H245106   6.829   5.540  10.869  0.7456 -1.8392  0.2723
 6971TIP3   OH245107   3.557   4.327  12.964  0.4804  0.1079 -0.0658
 6971TIP3    H145108   3.510   4.370  12.893 -1.0788  0.0174  0.8807
 6971TIP3    H245109   3.543   4.383  13.041  1.3896 -0.2547  0.3855
 6972TIP3   OH245110   1.598   0.861  11.312 -0.3332 -0.1912 -0.5305
 6972TIP3    H145111   1.612   0.943  11.360 -1.1164 -0.2408 -0.2106
 6972TIP3    H245112   1.674   0.807  11.334 -0.0932  0.2365 -0.3005
 6973TIP3   OH245113   3.166   3.616  10.855 -0.2768 -0.2473 -0.3311
 6973TIP3    H145114   3.250   3.643  10.892 -0.7402  1.9710 -0.7792
 6973TIP3    H245115   3.156   3.668  10.775 -1.0298 -2.1840 -1.5927
 6974TIP3   OH245116   2.525   3.181  10.869  0.1396  0.1118  0.4201
 6974TIP3    H145117   2.604   3.231  10.887  0.6720  0.2395 -1.9811
 6974TIP3    H245118   2.556   3.091  10.853 -0.3899 -0.1828  0.9917
 6975TIP3   OH245119   5.689   4.425  12.705  0.0911  0.1725  0.2029
 6975TIP3    H145120   5.785   4.419  12.699  0.0263 -1.1573  0.1971
 6975TIP3    H245121   5.658   4.404  12.617 -0.2205  0.6326  0.1973
 6976TIP3   OH245122   2.607   1.486  11.072  0.9981 -0.4024  0.2598
 6976TIP3    H145123   2.595   1.515  11.163 -2.5198  0.6804 -0.3950
 6976TIP3    H245124   2.591   1.565  11.020  1.1241 -1.3950 -1.3437
 6977TIP3   OH245125   4.081   3.022  12.765 -0.2198 -0.3397  0.4613
 6977TIP3    H145126   4.110   2.959  12.831  1.1543  0.6045  0.8286
 6977TIP3    H245127   4.161   3.045  12.718 -0.6075  1.3068  0.5251
 6978TIP3   OH245128   3.790   3.812  11.313  0.0732 -0.2139  0.2972
 6978TIP3    H145129   3.765   3.856  11.232 -1.0492 -1.7782 -0.2549
 6978TIP3    H245130   3.822   3.726  11.284  1.0385 -0.2533  1.4186
 6979TIP3   OH245131   0.983   3.809  12.867 -0.5621 -0.2765 -0.1769
 6979TIP3    H145132   1.031   3.750  12.808  0.3868  0.7398 -0.4508
 6979TIP3    H245133   0.983   3.893  12.822 -2.7674 -0.2623 -0.2460
 6980TIP3   OH245134   6.820   6.916  11.505 -0.2224 -0.1108  0.0454
 6980TIP3    H145135   6.912   6.892  11.496  0.3202  1.3005  1.3195
 6980TIP3    H245136   6.821   7.008  11.530 -2.1116  0.7384 -2.5572
 6981TIP3   OH245137   2.683   5.899  13.426 -0.0046  0.1680 -0.0980
 6981TIP3    H145138   2.709   5.834  13.361  0.4773  1.0669 -0.8299
 6981TIP3    H245139   2.601   5.866  13.462  0.4203 -1.0282 -0.1741
 6982TIP3   OH245140   6.919   5.617  12.279  0.4208 -0.0155  0.0186
 6982TIP3    H145141   6.919   5.534  12.232  1.6987 -0.6637  1.0790
 6982TIP3    H245142   7.007   5.623  12.317 -0.4122  0.6335  1.9899
 6983TIP3   OH245143   0.036   2.604  10.972  0.1020  0.4361  0.1361
 6983TIP3    H145144   0.075   2.691  10.977 -1.0501  0.9871 -0.1748
 6983TIP3    H245145  -0.036   2.607  11.035 -0.8093  0.1817 -0.8669
 6984TIP3   OH245146   4.473   1.417  11.353  0.0110 -0.0869 -0.5227
 6984TIP3    H145147   4.476   1.475  11.277  0.4553 -1.6593 -1.7522
 6984TIP3    H245148   4.436   1.471  11.422  2.6385  2.4592 -0.8759
 6985TIP3   OH245149   5.476   7.078  11.403 -0.0939 -0.1571 -0.0770
 6985TIP3    H145150   5.445   6.997  11.443  0.6418  0.3132  1.4900
 6985TIP3    H245151   5.511   7.129  11.475  1.6404  0.5752 -1.3625
 6986TIP3   OH245152   2.411   2.136  10.955  0.1369  0.2399  0.1533
 6986TIP3    H145153   2.323   2.163  10.978  0.1064 -1.2853  2.0637
 6986TIP3    H245154   2.468   2.180  11.019  0.6946  0.6176 -0.5867
 6987TIP3   OH245155   0.900   7.627  11.555 -0.5298  0.1932  0.4069
 6987TIP3    H145156   0.991   7.600  11.566 -1.0594 -1.0150  2.2230
 6987TIP3    H245157   0.860   7.614  11.641 -2.6452 -0.2222 -0.5735
 6988TIP3   OH245158   3.136   2.597  10.678  0.1856  0.5217  0.0804
 6988TIP3    H145159   3.063   2.568  10.622  0.2756  0.4717 -0.0130
 6988TIP3    H245160   3.214   2.576  10.627  0.2264  2.4053 -0.7178
 6989TIP3   OH245161   1.485   7.343  13.083  0.1836 -0.5867 -0.0406
 6989TIP3    H145162   1.540   7.401  13.136  0.2839  0.4854 -1.2771
 6989TIP3    H245163   1.398   7.350  13.122 -0.3206  2.1395 -1.4180
 6990TIP3   OH245164   5.107   2.268  10.813  0.6343 -0.0910  0.4471
 6990TIP3    H145165   5.129   2.208  10.741  0.6074 -0.0273  0.3850
 6990TIP3    H245166   5.182   2.264  10.871  0.7110 -0.0484  0.3520
 6991TIP3   OH245167   3.626   1.286  11.163  0.0586 -0.4901  0.1217
 6991TIP3    H145168   3.628   1.194  11.136  0.7167  0.2192 -2.5887
 6991TIP3    H245169   3.708   1.298  11.212 -0.1875 -1.4128  0.7695
 6992TIP3   OH245170   5.392   5.561  13.008 -0.5324 -0.2690 -0.0143
 6992TIP3    H145171   5.407   5.468  12.993  0.1097  0.1094 -1.9703
 6992TIP3    H245172   5.364   5.566  13.100 -0.4922 -2.3564  0.1619
 6993TIP3   OH245173   6.740   2.262  10.590  0.2835 -0.2854  0.1056
 6993TIP3    H145174   6.666   2.299  10.637  0.6065  0.1867  0.2538
 6993TIP3    H245175   6.778   2.198  10.651  0.3459 -0.1030  0.2596
 6994TIP3   OH245176   5.147   0.236  11.500  0.1472 -0.1520  0.3311
 6994TIP3    H145177   5.233   0.245  11.542  0.1654  1.2129  0.0529
 6994TIP3    H245178   5.151   0.152  11.456  1.3062 -0.1741  0.4389
 6995TIP3   OH245179   7.491   0.542  12.559 -0.1589 -0.2773 -0.3924
 6995TIP3    H145180   7.526   0.622  12.599 -0.0437  0.1739 -1.3632
 6995TIP3    H245181   7.495   0.477  12.629  1.4244  0.1009 -0.0807
 6996TIP3   OH245182   7.055   0.393  12.997 -0.0030 -0.4772 -0.4253
 6996TIP3    H145183   7.012   0.385  12.912  0.5396  0.5280 -0.8083
 6996TIP3    H245184   7.004   0.459  13.044  0.7368  0.2656 -0.6483
 6997TIP3   OH245185   3.292   1.766  10.918 -0.2955  0.1834  0.3124
 6997TIP3    H145186   3.277   1.671  10.924 -2.6501  0.5789  2.2406
 6997TIP3    H245187   3.207   1.801  10.890  0.4595  1.7849 -0.0845
 6998TIP3   OH245188   3.771   6.839  12.638 -0.3947  0.4409 -0.5582
 6998TIP3    H145189   3.827   6.891  12.696  1.4452  0.0534 -1.8798
 6998TIP3    H245190   3.684   6.846  12.676  0.6583  0.3992  2.1032
 6999TIP3   OH245191   6.398   5.342  12.406  0.5802  0.3533  0.3944
 6999TIP3    H145192   6.349   5.409  12.453  0.0905 -0.3432  0.8969
 6999TIP3    H245193   6.343   5.320  12.331 -0.2616 -0.9633  1.3632
 7000TIP3   OH245194   2.490   4.612  12.016  0.0013 -0.2163  0.3495
 7000TIP3    H145195   2.447   4.650  11.939  0.3172  2.7048  1.4684
 7000TIP3    H245196   2.580   4.594  11.987 -0.5437 -1.5754 -0.6020
 7001TIP3   OH245197   2.788   6.231  12.510  0.1004  0.1418  0.7716
 7001TIP3    H145198   2.849   6.287  12.461 -1.0885  1.8572  1.1564
 7001TIP3    H245199   2.780   6.152  12.457  1.3407  0.5836 -0.1352
 7002TIP3   OH245200   0.661   3.718  11.346  0.0760  0.4928  0.6410
 7002TIP3    H145201   0.733   3.780  11.345 -0.2607  0.9040  1.4813
 7002TIP3    H245202   0.677   3.663  11.423 -0.6406  0.7552  0.9875
 7003TIP3   OH245203   6.220   2.170  12.330  0.0152 -0.0131  0.5570
 7003TIP3    H145204   6.206   2.090  12.380 -0.2587 -0.3436 -0.0505
 7003TIP3    H245205   6.243   2.141  12.242  0.3407  0.5699  0.4379
 7004TIP3   OH245206   1.955   1.963  12.816  0.5562 -0.4213  0.1273
 7004TIP3    H145207   1.936   1.913  12.737  0.5020  0.1967 -0.2490
 7004TIP3    H245208   1.871   2.001  12.841  0.6759 -0.1870  0.1813
 7005TIP3   OH245209   5.665   7.588  11.774 -0.0207  0.4716 -0.4872
 7005TIP3    H145210   5.669   7.509  11.720 -0.5872  0.4797 -0.5521
 7005TIP3    H245211   5.632   7.558  11.858  0.4525  0.5276 -0.2775
 7006TIP3   OH245212   3.997   1.059   4.924  0.2951 -0.0099  0.5333
 7006TIP3    H145213   4.054   1.134   4.906  0.3426 -0.2746 -0.4504
 7006TIP3    H245214   3.924   1.096   4.973  0.8619  0.4882  1.0303
 7007TIP3   OH245215   6.702   3.473  11.533  0.0745 -0.3471  0.3991
 7007TIP3    H145216   6.646   3.545  11.506 -0.4475 -0.8242  0.1926
 7007TIP3    H245217   6.791   3.511  11.535 -0.5238  1.3520  3.8898
 7008TIP3   OH245218   1.419   4.501  12.539 -0.3856 -0.0978 -0.4984
 7008TIP3    H145219   1.461   4.473  12.620 -0.9491 -0.5374 -0.3569
 7008TIP3    H245220   1.343   4.444  12.529 -0.8283  0.5351 -0.8718
 7009TIP3   OH245221   4.759   1.372  10.748 -0.1387 -0.5423 -0.1839
 7009TIP3    H145222   4.819   1.429  10.796 -1.8027  0.2710  1.0003
 7009TIP3    H245223   4.713   1.322  10.816 -1.2400 -0.7087 -1.0205
 7010TIP3   OH245224   2.271   7.104  12.397 -0.3301 -0.5493  0.2222
 7010TIP3    H145225   2.194   7.160  12.392  1.0546  1.4610  0.0019
 7010TIP3    H245226   2.285   7.090  12.490 -0.7831 -0.6383  0.2764
 7011TIP3   OH245227   3.817   3.126  10.407 -0.0450  0.0312  0.2603
 7011TIP3    H145228   3.797   3.128  10.501  1.3943  0.8122  0.5755
 7011TIP3    H245229   3.755   3.188  10.369 -0.7089 -0.3659  0.6638
 7012TIP3   OH245230   1.698   2.027  10.472 -0.2775  0.3433  0.0528
 7012TIP3    H145231   1.716   1.934  10.466  0.2879  0.4539 -0.0279
 7012TIP3    H245232   1.665   2.040  10.561 -2.1343 -0.2141 -0.5064
 7013TIP3   OH245233   4.730   3.513  12.220  0.1848  0.4798  0.6067
 7013TIP3    H145234   4.756   3.457  12.293  0.3692  1.2696  1.1679
 7013TIP3    H245235   4.791   3.587  12.225 -0.6451  1.1889  0.4685
 7014TIP3   OH245236   7.455   2.560  13.188  0.7045 -0.5857  0.3352
 7014TIP3    H145237   7.490   2.472  13.176  2.0516  0.0066 -0.4160
 7014TIP3    H245238   7.532   2.617  13.181 -0.3466  0.7796 -1.0215
 7015TIP3   OH245239   2.691   0.450  11.949 -0.3112 -0.2763  0.0391
 7015TIP3    H145240   2.684   0.429  11.856 -2.3267 -2.1024  0.5240
 7015TIP3    H245241   2.603   0.435  11.984  0.2031  1.0670  2.1287
 7016TIP3   OH245242   7.453   3.511  11.457 -0.2064  0.1626  0.0377
 7016TIP3    H145243   7.383   3.560  11.415  0.1924  0.6406 -0.0855
 7016TIP3    H245244   7.409   3.443  11.507 -0.6741 -2.1777 -3.2045
 7017TIP3   OH245245   0.998   4.664  12.379 -0.1147  0.2805  0.0647
 7017TIP3    H145246   1.072   4.719  12.405  0.7678 -0.5210 -0.6394
 7017TIP3    H245247   0.971   4.698  12.294  1.0895 -0.9311 -0.8557
 7018TIP3   OH245248   3.664   0.637  11.217  0.3202  0.2015  0.3524
 7018TIP3    H145249   3.637   0.551  11.249  0.4331  0.1039  0.1873
 7018TIP3    H245250   3.621   0.646  11.132  1.4600 -0.3086 -0.2979
 7019TIP3   OH245251   6.387   2.685  11.542  0.6835  0.2915 -1.4567
 7019TIP3    H145252   6.410   2.592  11.547  0.1773  0.2411  1.7445
 7019TIP3    H245253   6.468   2.728  11.511  3.1578 -0.6560  2.8779
 7020TIP3   OH245254   6.888   2.225  11.202  0.2521 -0.3887  0.2602
 7020TIP3    H145255   6.933   2.262  11.278  1.3828 -0.1475 -0.4943
 7020TIP3    H245256   6.928   2.139  11.190 -0.6077 -0.8380  0.5036
 7021TIP3   OH245257   2.090   1.843  10.898 -0.4710  0.2728 -0.1351
 7021TIP3    H145258   2.125   1.782  10.963  0.9118 -0.0327 -1.1371
 7021TIP3    H245259   2.080   1.926  10.946  0.2184 -0.0335  0.5543
 7022TIP3   OH245260   3.895   0.806  11.627 -0.3423 -0.1280  0.6195
 7022TIP3    H145261   3.822   0.856  11.664 -1.3104  0.3859 -1.8027
 7022TIP3    H245262   3.871   0.792  11.536  1.3774 -2.3128  0.4109
 7023TIP3   OH245263   3.060   2.905  11.994 -0.5013  0.0823 -0.4691
 7023TIP3    H145264   3.040   2.981  11.940 -2.6984 -0.3186 -0.2804
 7023TIP3    H245265   3.151   2.883  11.971 -0.6786  1.1859 -2.4215
 7024TIP3   OH245266   0.957   5.957  11.168  0.1155  0.2233 -0.1145
 7024TIP3    H145267   0.907   6.022  11.218 -2.0015  0.2301 -2.0889
 7024TIP3    H245268   1.004   6.009  11.103 -0.5088 -0.0789 -0.8218
 7025TIP3   OH245269   2.709   7.483  12.039 -0.0390 -0.2468  0.6487
 7025TIP3    H145270   2.626   7.520  12.011 -0.0872 -1.0970 -0.4274
 7025TIP3    H245271   2.715   7.400  11.991  0.6468 -1.0037  1.9927
 7026TIP3   OH245272   1.223   0.654  11.264 -0.8414  0.6068  0.0850
 7026TIP3    H145273   1.164   0.675  11.336 -0.7852  0.0237  0.3043
 7026TIP3    H245274   1.242   0.561  11.275 -1.0522  0.4405 -0.8383
 7027TIP3   OH245275   4.947   3.067  12.161  0.2353 -0.3566 -0.9107
 7027TIP3    H145276   4.946   2.992  12.221 -0.2902  0.1358 -0.2834
 7027TIP3    H245277   4.854   3.085  12.144  0.1880  1.7187  0.9998
 7028TIP3   OH245278   3.463   3.793  11.631  0.1845 -0.0653 -0.0541
 7028TIP3    H145279   3.395   3.793  11.697  1.5654  0.5012  1.4318
 7028TIP3    H245280   3.460   3.880  11.592 -0.7949 -0.4820 -0.9558
 7029TIP3   OH245281   5.245   2.979  10.792  0.1312  0.1023 -0.5054
 7029TIP3    H145282   5.335   2.977  10.759  0.0152 -0.6080 -0.7901
 7029TIP3    H245283   5.238   3.063  10.838  0.7100  0.4906 -1.1176
 7030TIP3   OH245284   1.347   3.390  11.662 -0.2569  0.1400  0.3516
 7030TIP3    H145285   1.324   3.476  11.629  1.3125  0.3279 -0.3470
 7030TIP3    H245286   1.293   3.379  11.741  0.0374  2.0486  0.8664
 7031TIP3   OH245287   3.348   4.064  12.326 -0.7324 -0.8064  0.3790
 7031TIP3    H145288   3.438   4.097  12.330 -0.3910 -1.6655 -0.0453
 7031TIP3    H245289   3.339   4.010  12.404 -0.7191 -1.1152  0.1669
 7032TIP3   OH245290   3.151   6.552  10.305  0.2953 -0.3097 -0.2703
 7032TIP3    H145291   3.143   6.621  10.239 -1.7881  0.4372  0.7004
 7032TIP3    H245292   3.223   6.582  10.361 -1.2290  1.6638  0.7381
 7033TIP3   OH245293   0.325   0.719  10.905 -0.2366  0.1180 -0.3697
 7033TIP3    H145294   0.360   0.631  10.921 -2.0993 -0.2543  2.3491
 7033TIP3    H245295   0.401   0.777  10.919  0.4608 -0.9300  0.3738
 7034TIP3   OH245296   7.070   1.301  10.316  0.2081 -0.2336  0.4995
 7034TIP3    H145297   7.102   1.383  10.278 -0.1417 -1.0606 -1.7478
 7034TIP3    H245298   7.148   1.259  10.353  1.1586 -0.6092 -1.7770
 7035TIP3   OH245299   4.301   4.538  11.732  0.0611 -0.0144  0.2241
 7035TIP3    H145300   4.301   4.453  11.687  1.2067  0.4114 -0.6217
 7035TIP3    H245301   4.361   4.526  11.805 -1.0147 -0.3951  1.0744
 7036TIP3   OH245302   3.303   3.349  13.551 -0.2508  0.1375  0.2975
 7036TIP3    H145303   3.293   3.255  13.537 -0.5854  0.3611 -1.2146
 7036TIP3    H245304   3.395   3.361  13.573 -0.3451 -0.6029  1.1218
 7037TIP3   OH245305   1.446   7.671  12.862  0.2763  0.4918 -0.0180
 7037TIP3    H145306   1.508   7.657  12.790 -0.7081  1.9429 -1.1896
 7037TIP3    H245307   1.364   7.632  12.831  0.5020 -1.3042  1.4732
 7038TIP3   OH245308   1.592   0.164  18.850  0.0944 -0.1387 -0.1420
 7038TIP3    H145309   1.625   0.088  18.898 -1.1712  0.6131  2.0973
 7038TIP3    H245310   1.499   0.168  18.873 -0.8303 -0.1551 -3.3905
 7039TIP3   OH245311   1.361   1.999  10.867 -0.4272 -0.1080 -0.5419
 7039TIP3    H145312   1.363   2.080  10.816 -0.2258  0.7611  0.7985
 7039TIP3    H245313   1.328   2.026  10.953 -0.8148 -1.5415 -0.2223
 7040TIP3   OH245314   1.277   5.051  11.862  0.2176 -1.0721  0.1766
 7040TIP3    H145315   1.358   5.001  11.848  0.7329  0.0621 -1.1045
 7040TIP3    H245316   1.296   5.138  11.826 -1.5597 -0.7689 -0.1201
 7041TIP3   OH245317   2.281   5.703  11.398  0.2357  0.3466 -0.1170
 7041TIP3    H145318   2.193   5.732  11.423  0.1095 -0.1235 -0.0103
 7041TIP3    H245319   2.290   5.730  11.307 -0.4569 -0.6264 -0.4801
 7042TIP3   OH245320   6.061   4.825  11.026 -0.0957  0.0455 -0.6657
 7042TIP3    H145321   5.970   4.847  11.010 -0.4025 -0.7687 -0.1015
 7042TIP3    H245322   6.062   4.784  11.112  0.7930 -0.0046 -0.6857
 7043TIP3   OH245323   1.891   6.584  12.240 -0.1476 -0.5433 -0.1536
 7043TIP3    H145324   1.827   6.542  12.182 -0.4883  0.6755 -0.6943
 7043TIP3    H245325   1.940   6.511  12.279 -1.7054 -1.4849  0.1057
 7044TIP3   OH245326   1.516   1.231  11.059  0.0885 -0.3039 -0.1706
 7044TIP3    H145327   1.503   1.177  10.980 -0.7676  0.8010 -0.8096
 7044TIP3    H245328   1.439   1.287  11.063  1.8847  2.3653 -0.7462
 7045TIP3   OH245329   6.798   6.181  10.900  0.7445  0.5730 -0.5024
 7045TIP3    H145330   6.872   6.218  10.851  0.9777  1.5875  0.5656
 7045TIP3    H245331   6.721   6.223  10.861  0.8322  0.4586 -0.8010
 7046TIP3   OH245332   1.435   0.296  12.809 -0.0053  0.6894  0.1519
 7046TIP3    H145333   1.390   0.219  12.845  0.3573  0.6325  0.5031
 7046TIP3    H245334   1.526   0.286  12.839 -0.3921  2.3831  2.1041
 7047TIP3   OH245335   4.268   0.237  12.524 -0.1726 -0.4355 -0.1490
 7047TIP3    H145336   4.272   0.304  12.455  0.9187  0.4660  0.7491
 7047TIP3    H245337   4.259   0.154  12.476 -4.1717  0.4001 -1.2652
 7048TIP3   OH245338   7.062   2.021  11.228  0.4309 -0.6268 -0.1923
 7048TIP3    H145339   7.105   2.031  11.143 -1.5568 -0.5426 -1.2522
 7048TIP3    H245340   7.128   2.050  11.292  0.8172  2.9275 -1.9293
 7049TIP3   OH245341   2.849   6.815  12.746  0.3819 -0.2904 -0.1588
 7049TIP3    H145342   2.858   6.788  12.837 -0.2550  0.6103  0.1824
 7049TIP3    H245343   2.938   6.810  12.711  1.0227  1.3324  1.0948
 7050TIP3   OH245344   5.180   2.920  11.576  0.4827  0.3756 -0.0547
 7050TIP3    H145345   5.154   3.004  11.538  0.1695 -1.0034 -3.1791
 7050TIP3    H245346   5.238   2.881  11.511 -0.6318 -2.5107  0.5209
 7051TIP3   OH245347   3.596   5.126  11.115  0.3103 -1.1097  0.1505
 7051TIP3    H145348   3.606   5.106  11.022  1.8797 -0.1944  0.0826
 7051TIP3    H245349   3.627   5.048  11.160 -0.4497 -1.5552 -0.0725
 7052TIP3   OH245350   3.727   3.567  11.876 -0.0971 -0.0322 -0.2014
 7052TIP3    H145351   3.755   3.613  11.797 -0.1326 -0.1424 -0.2786
 7052TIP3    H245352   3.807   3.530  11.912  0.0090  0.5017  0.1310
 7053TIP3   OH245353   1.685   3.290  10.785  0.2030 -0.2570 -0.2556
 7053TIP3    H145354   1.643   3.214  10.744  0.0715 -0.5673  0.4471
 7053TIP3    H245355   1.619   3.359  10.781  0.5519  0.0306 -1.4945
 7054TIP3   OH245356   5.375   4.389  12.169  0.2371 -0.1967  0.0023
 7054TIP3    H145357   5.286   4.354  12.173  0.4222 -0.6708  0.0299
 7054TIP3    H245358   5.387   4.433  12.253 -0.0545  0.0799 -0.0967
 7055TIP3   OH245359   1.451   0.772  12.618  0.1083 -0.0352 -0.4673
 7055TIP3    H145360   1.377   0.819  12.580  0.5208  0.7340 -0.3195
 7055TIP3    H245361   1.526   0.830  12.607  0.0959  0.6297  2.2980
 7056TIP3   OH245362   7.166   4.297  12.342  0.2051 -0.0097  0.0142
 7056TIP3    H145363   7.169   4.226  12.407 -1.5857  0.1690  0.3661
 7056TIP3    H245364   7.226   4.269  12.273  0.3948 -1.3408  0.6772
 7057TIP3   OH245365   1.437   1.434  13.171  0.3228  0.4881  0.1614
 7057TIP3    H145366   1.352   1.446  13.214  0.8829  0.4406  1.2926
 7057TIP3    H245367   1.478   1.362  13.218  0.8119  0.1922 -0.6923
 7058TIP3   OH245368   2.386   6.831  12.926 -0.1531  0.0295  0.1162
 7058TIP3    H145369   2.433   6.904  12.967  0.7339  0.6110 -1.8388
 7058TIP3    H245370   2.294   6.856  12.932 -0.0628  0.1134  1.6487
 7059TIP3   OH245371   0.805   4.735  10.569  0.1120  0.1899  0.3855
 7059TIP3    H145372   0.752   4.810  10.597 -0.8352 -0.2953 -0.0987
 7059TIP3    H245373   0.756   4.695  10.498  0.0266 -1.5814  1.3876
 7060TIP3   OH245374   3.792   3.248  13.155 -0.3656  0.0622  0.0504
 7060TIP3    H145375   3.799   3.161  13.117 -0.9013 -0.0966  0.3055
 7060TIP3    H245376   3.871   3.294  13.125 -1.9998  0.8767 -3.6014
 7061TIP3   OH245377   2.515   0.196  11.542  0.4991 -0.1454  0.2442
 7061TIP3    H145378   2.544   0.105  11.556 -1.7341 -0.7561  1.2545
 7061TIP3    H245379   2.432   0.187  11.496 -0.1199  1.3734  1.0322
 7062TIP3   OH245380   5.674   0.414  10.824  0.1360 -0.5806  0.0134
 7062TIP3    H145381   5.757   0.371  10.802  0.6082  0.7434 -0.8981
 7062TIP3    H245382   5.661   0.478  10.755 -1.0264  0.0993  0.8301
 7063TIP3   OH245383   3.704   3.451  10.717  0.1230  0.4345 -0.4284
 7063TIP3    H145384   3.685   3.533  10.672  0.5791 -0.6429 -2.7371
 7063TIP3    H245385   3.797   3.456  10.739 -0.3122  1.3685  1.3901
 7064TIP3   OH245386   7.590   3.588  12.089  0.0401  0.0592  0.0759
 7064TIP3    H145387   7.562   3.497  12.105  2.5986 -0.4039  2.7251
 7064TIP3    H245388   7.623   3.587  12.000 -1.7782 -1.0604 -0.6582
 7065TIP3   OH245389   0.217   4.008  10.951  0.1231  0.2255  0.0322
 7065TIP3    H145390   0.285   4.060  10.907  0.6504  0.0764  0.6664
 7065TIP3    H245391   0.262   3.929  10.979 -0.2903  0.1722  0.5544
 7066TIP3   OH245392   4.942   3.427  10.424 -0.4156  0.4668  0.3761
 7066TIP3    H145393   4.978   3.434  10.513 -0.6404  0.1957  0.4873
 7066TIP3    H245394   4.849   3.407  10.437 -0.4320  0.3507  0.0769
 7067TIP3   OH245395   3.016   0.037  12.400 -0.2132 -0.0209  0.3469
 7067TIP3    H145396   3.086  -0.028  12.406 -0.8507 -0.6848  0.7602
 7067TIP3    H245397   3.049   0.102  12.338  0.3696 -0.8321 -0.2166
 7068TIP3   OH245398   6.003   1.388  12.205  0.2396 -0.9456  0.3913
 7068TIP3    H145399   6.059   1.466  12.214 -1.8702  0.5363  1.6795
 7068TIP3    H245400   5.998   1.353  12.294 -1.1799 -0.8041  0.3809
 7069TIP3   OH245401   3.463   6.893  10.497 -0.3231  0.2181  0.3929
 7069TIP3    H145402   3.488   6.851  10.579 -2.0314 -2.7843 -0.4591
 7069TIP3    H245403   3.545   6.909  10.452  0.4966 -0.7254  1.4967
 7070TIP3   OH245404   3.653   0.385  11.609  0.1599  0.5523  0.3720
 7070TIP3    H145405   3.620   0.475  11.604  0.4696  0.5924 -1.5323
 7070TIP3    H245406   3.626   0.345  11.527 -0.1556 -1.1970  1.2808
 7071TIP3   OH245407   3.956   1.885  12.109 -0.2805  0.2988  0.3763
 7071TIP3    H145408   3.906   1.847  12.181  0.0818  1.1235  1.0851
 7071TIP3    H245409   3.895   1.887  12.036 -0.5538 -0.8521  0.5596
 7072TIP3   OH245410   2.907   0.144  12.655 -0.0379 -0.2335 -0.7740
 7072TIP3    H145411   2.824   0.175  12.620  0.7349  0.5705 -1.9954
 7072TIP3    H245412   2.963   0.133  12.578  0.6951 -1.7033 -0.0751
 7073TIP3   OH245413   3.568   7.066  11.495 -0.7312 -0.4274  0.1042
 7073TIP3    H145414   3.568   7.056  11.400 -2.7698 -1.5867  0.1860
 7073TIP3    H245415   3.648   7.115  11.513  0.2934 -1.1356 -2.0967
 7074TIP3   OH245416   3.295   2.850  11.015  0.5830  0.6071  0.1530
 7074TIP3    H145417   3.277   2.922  11.075  3.1106  0.5096  1.1483
 7074TIP3    H245418   3.355   2.887  10.950  1.7722 -0.5100  0.5758
 7075TIP3   OH245419   4.545   1.576  10.536 -0.1869  0.0406 -0.1805
 7075TIP3    H145420   4.588   1.497  10.504 -3.2000 -1.0731 -2.0040
 7075TIP3    H245421   4.468   1.544  10.583 -2.2328  1.7616 -2.0859
 7076TIP3   OH245422   4.256   1.153  13.177 -0.2491  0.2430 -0.2718
 7076TIP3    H145423   4.190   1.210  13.138  0.9818  1.1030 -1.1459
 7076TIP3    H245424   4.333   1.208  13.189  0.0238 -0.4693  1.7199
 7077TIP3   OH245425   3.677   6.217  10.968 -0.3276 -0.0910  0.4366
 7077TIP3    H145426   3.732   6.295  10.955  0.1293 -0.5150 -0.2822
 7077TIP3    H245427   3.637   6.201  10.882 -0.2787 -0.7501  0.5282
 7078TIP3   OH245428   6.189   1.045  13.164  0.5507  0.4095  0.5909
 7078TIP3    H145429   6.170   0.957  13.134  2.2433 -0.5777  2.1827
 7078TIP3    H245430   6.285   1.049  13.171  0.4654  1.9572  1.6738
 7079TIP3   OH245431   0.444   5.488  12.936  0.2565  0.3212 -0.0011
 7079TIP3    H145432   0.363   5.494  12.987 -0.4904  0.5017 -1.1787
 7079TIP3    H245433   0.417   5.453  12.851  1.3365  0.8544 -0.5914
 7080TIP3   OH245434   6.585   4.194  11.693 -0.3288  0.5039  0.4221
 7080TIP3    H145435   6.625   4.260  11.749 -0.0366  0.4977  0.2232
 7080TIP3    H245436   6.611   4.111  11.732 -0.5537  0.5052  0.5730
 7081TIP3   OH245437   3.264   1.046  13.105  0.2647  0.0846  0.2956
 7081TIP3    H145438   3.270   1.111  13.175 -0.8333 -0.0920  0.5802
 7081TIP3    H245439   3.341   0.991  13.117  0.4596  0.4806  0.9312
 7082TIP3   OH245440   5.349   1.116  11.139  0.5174 -0.4967 -0.2936
 7082TIP3    H145441   5.357   1.073  11.054  3.2602  1.5241 -1.2076
 7082TIP3    H245442   5.256   1.137  11.147 -0.2161 -2.8682 -1.6230
 7083TIP3   OH245443   0.583   0.592  12.324  0.0493  0.6829 -0.1815
 7083TIP3    H145444   0.604   0.623  12.412  1.7419  1.3138 -0.7609
 7083TIP3    H245445   0.638   0.514  12.313 -1.6438 -0.5942  0.0136
 7084TIP3   OH245446   3.784   2.880  10.290  0.1009 -0.5665  0.0554
 7084TIP3    H145447   3.689   2.887  10.303  0.3525 -0.1189  1.8758
 7084TIP3    H245448   3.817   2.968  10.308  1.0237 -1.0818  0.9542
 7085TIP3   OH245449   1.063   3.532  13.354 -0.2680 -0.2289 -0.4308
 7085TIP3    H145450   1.133   3.523  13.418 -1.4770 -1.4468  0.8006
 7085TIP3    H245451   0.988   3.487  13.394 -1.9506  1.5319 -1.4028
 7086TIP3   OH245452   0.842   7.272  11.992  0.1997  0.6727  0.8452
 7086TIP3    H145453   0.898   7.269  12.069 -0.5715 -0.9198  1.3725
 7086TIP3    H245454   0.873   7.201  11.936  0.1823  1.2593  0.0629
 7087TIP3   OH245455   2.042   2.356  11.933 -0.6076  0.1819  0.1557
 7087TIP3    H145456   1.980   2.284  11.949 -0.5087 -0.1278 -0.8008
 7087TIP3    H245457   1.997   2.413  11.871  0.7189 -0.9703 -1.9632
 7088TIP3   OH245458   2.623   3.741  12.660  0.1412 -0.2177  0.3514
 7088TIP3    H145459   2.573   3.714  12.737 -1.1122  1.8808  0.3603
 7088TIP3    H245460   2.714   3.735  12.688 -0.2231 -0.9269  1.4804
 7089TIP3   OH245461   6.505   4.809  11.240 -0.2921  0.6011 -0.4926
 7089TIP3    H145462   6.531   4.749  11.310  0.8367  2.4459  0.7368
 7089TIP3    H245463   6.546   4.773  11.161  1.7259  0.5865  0.4987
 7090TIP3   OH245464   5.040   5.975  11.289 -0.5571 -0.1155 -0.1279
 7090TIP3    H145465   5.013   6.018  11.208 -1.1711 -0.9826 -0.3976
 7090TIP3    H245466   5.134   5.964  11.280 -0.5832  0.0177 -0.6103
 7091TIP3   OH245467   7.116   6.244  11.041 -0.1993 -0.1346 -0.6696
 7091TIP3    H145468   7.211   6.252  11.037 -0.2044  1.0977  0.8264
 7091TIP3    H245469   7.083   6.319  10.992 -0.3415  1.0202  1.0965
 7092TIP3   OH245470   2.610   5.432  11.302  0.2309 -0.7345 -0.6676
 7092TIP3    H145471   2.537   5.432  11.365  0.3859 -0.3215 -0.4868
 7092TIP3    H245472   2.571   5.462  11.220  0.7122  2.1860  0.0534
 7093TIP3   OH245473   2.581   1.252  12.723 -0.3265  0.4759 -0.6728
 7093TIP3    H145474   2.494   1.282  12.748  0.7054  1.8406  1.7293
 7093TIP3    H245475   2.631   1.254  12.805  2.5172  1.8184 -2.2569
 7094TIP3   OH245476   3.528   3.538  11.676 -0.3967  0.0348 -0.2851
 7094TIP3    H145477   3.525   3.629  11.644 -1.9533 -0.3836 -1.4117
 7094TIP3    H245478   3.572   3.545  11.761 -1.8177  2.0729  0.3662
 7095TIP3   OH245479   6.644   6.309  12.202  0.4180 -0.2444 -0.8692
 7095TIP3    H145480   6.551   6.334  12.201 -0.1667 -1.7544  2.4718
 7095TIP3    H245481   6.672   6.318  12.111 -3.2761 -0.6566 -2.2283
 7096TIP3   OH245482   7.334   1.956  12.813 -0.1704  0.2196 -0.6167
 7096TIP3    H145483   7.332   1.875  12.863  2.0659  0.2817 -0.3173
 7096TIP3    H245484   7.374   1.932  12.729  2.7109  1.3376  0.3215
 7097TIP3   OH245485   0.081   6.364  11.416  0.2266 -0.2675 -0.2732
 7097TIP3    H145486   0.071   6.362  11.320  0.8774 -1.1900 -0.3294
 7097TIP3    H245487   0.033   6.286  11.446  0.5321 -0.3111  0.1021
 7098TIP3   OH245488   5.318   4.439  11.899  0.2878 -0.3931  0.0959
 7098TIP3    H145489   5.231   4.478  11.907  1.5762  3.0788 -1.0314
 7098TIP3    H245490   5.342   4.417  11.989 -1.1737  0.0057  0.6138
 7099TIP3   OH245491   5.516   4.925  12.773  0.2460  0.6727  0.3862
 7099TIP3    H145492   5.535   4.873  12.695 -3.0222  0.4769 -0.4142
 7099TIP3    H245493   5.570   4.885  12.841  0.7441 -1.2759 -1.0420
 7100TIP3   OH245494   6.088   4.445  10.659 -0.3216  0.8432  0.0877
 7100TIP3    H145495   6.120   4.438  10.749  0.2361  0.4209 -0.1376
 7100TIP3    H245496   6.162   4.480  10.609  0.0255 -0.7049 -0.5455
 7101TIP3   OH245497   4.117   3.088  11.952 -0.2014  0.2946 -0.0890
 7101TIP3    H145498   4.032   3.057  11.982 -0.0403 -0.6084 -0.5334
 7101TIP3    H245499   4.096   3.161  11.894 -0.6460  0.3697  0.1616
 7102TIP3   OH245500   2.510   2.935  13.006  0.1294  0.1366 -0.3064
 7102TIP3    H145501   2.530   3.028  12.999  0.3263  0.2744  1.5585
 7102TIP3    H245502   2.415   2.931  13.009 -0.1468 -0.1183 -4.2747
 7103TIP3   OH245503   0.281   2.892  10.413  0.2252  0.0688  0.2110
 7103TIP3    H145504   0.269   2.800  10.388  1.5284 -0.1707  0.3741
 7103TIP3    H245505   0.295   2.937  10.329  1.1533 -0.1584  0.2314
 7104TIP3   OH245506   5.388   5.481  11.880 -0.3350  0.5388 -0.2498
 7104TIP3    H145507   5.321   5.500  11.946  0.2473  1.1786  0.1605
 7104TIP3    H245508   5.349   5.411  11.827 -0.8034 -0.0005  0.7736
 7105TIP3   OH245509   1.424   0.590  12.240  0.2631 -0.1581  0.4040
 7105TIP3    H145510   1.375   0.512  12.214 -0.2001  0.4920 -0.7548
 7105TIP3    H245511   1.375   0.663  12.202  0.7806  0.6964  1.3218
 7106TIP3   OH245512   6.054   5.564  11.666  0.4357 -0.0050  0.0118
 7106TIP3    H145513   6.136   5.591  11.625  2.1552 -0.0299  3.1374
 7106TIP3    H245514   6.057   5.468  11.667 -0.5708 -0.0918 -1.4724
 7107TIP3   OH245515   7.646   2.417  11.493  0.2924 -0.6500 -0.5824
 7107TIP3    H145516   7.555   2.432  11.519  0.3904  0.9978 -1.0764
 7107TIP3    H245517   7.683   2.366  11.564 -0.1700  1.4047  1.2422
 7108TIP3   OH245518   7.639   1.897  13.085  0.2291  0.6795  0.2498
 7108TIP3    H145519   7.627   1.982  13.043  0.5913  1.3081  1.3888
 7108TIP3    H245520   7.620   1.913  13.177  0.6194 -0.4119  0.5325
 7109TIP3   OH245521   1.706   1.290  11.950 -0.7117 -0.3450 -1.1346
 7109TIP3    H145522   1.768   1.241  12.004  0.4042  0.1239 -1.9614
 7109TIP3    H245523   1.673   1.359  12.007 -1.3292 -1.2605 -0.3531
 7110TIP3   OH245524   7.667   7.096  12.474  0.0812 -0.3935 -0.2245
 7110TIP3    H145525   7.577   7.072  12.455 -0.6692  0.5996  1.9048
 7110TIP3    H245526   7.719   7.022  12.441 -1.5669 -1.4403 -0.5481
 7111TIP3   OH245527   3.704   3.278  12.082  0.0595 -0.7175  0.2567
 7111TIP3    H145528   3.627   3.328  12.111 -0.0636  0.0596 -1.3495
 7111TIP3    H245529   3.778   3.322  12.123 -0.0360  0.9220 -1.2329
 7112TIP3   OH245530   5.928   7.574  10.825 -0.1646  0.1109  0.1389
 7112TIP3    H145531   5.838   7.605  10.820 -0.5551 -1.0164  0.0504
 7112TIP3    H245532   5.932   7.525  10.907  0.4008  0.2535  0.2021
 7113TIP3   OH245533   6.176   5.112  11.077  0.4754  0.5994  0.0085
 7113TIP3    H145534   6.206   5.060  11.002  1.0815  0.3577  0.4180
 7113TIP3    H245535   6.213   5.199  11.061 -0.2255  0.8178 -0.4817
 7114TIP3   OH245536   5.754   2.719  11.191 -0.2279  0.1962 -0.1793
 7114TIP3    H145537   5.795   2.704  11.277  1.7211  0.8574 -0.9352
 7114TIP3    H245538   5.730   2.631  11.161  0.3397 -0.1889  0.4451
 7115TIP3   OH245539   2.765   3.349  11.920 -0.2990  0.1744  0.4266
 7115TIP3    H145540   2.796   3.258  11.915 -0.0420  0.1743  1.7115
 7115TIP3    H245541   2.695   3.346  11.985  0.5401  1.1239  1.3911
 7116TIP3   OH245542   6.417   4.519  11.937 -0.3622 -0.2113 -0.2484
 7116TIP3    H145543   6.343   4.492  11.992 -0.3544  0.3987  0.0753
 7116TIP3    H245544   6.378   4.536  11.851 -0.2045 -2.2343 -0.7768
 7117TIP3   OH245545   4.535   1.643  11.182  0.3802  0.3336  0.2145
 7117TIP3    H145546   4.492   1.709  11.237 -1.9006 -0.5066 -0.4414
 7117TIP3    H245547   4.531   1.679  11.094 -1.7892 -1.0056 -0.3117
 7118TIP3   OH245548   7.625   3.344  11.237  0.0632 -0.4649 -0.4738
 7118TIP3    H145549   7.637   3.426  11.189  0.9805 -1.1829 -1.5373
 7118TIP3    H245550   7.530   3.333  11.244 -0.0850 -0.0469 -1.6379
 7119TIP3   OH245551   5.982   2.172  10.293  0.5961 -0.2386 -0.2827
 7119TIP3    H145552   5.925   2.096  10.304 -0.2470  0.2068 -1.3988
 7119TIP3    H245553   5.923   2.247  10.294  1.2551  0.2958 -0.6702
 7120TIP3   OH245554   3.010   0.627  11.516  0.0443  0.6036  0.1530
 7120TIP3    H145555   3.037   0.666  11.433  1.6217 -0.4845  0.1187
 7120TIP3    H245556   3.070   0.554  11.530 -1.3153 -0.3600  1.3797
 7121TIP3   OH245557   3.954   1.914  13.086  0.5456  0.3892  0.5644
 7121TIP3    H145558   3.860   1.918  13.107  0.5318 -0.8996  0.8260
 7121TIP3    H245559   3.961   1.956  13.001 -0.3760 -0.0709  0.2455
 7122TIP3   OH245560   6.097   7.164  12.825  0.1073 -0.0053  0.2484
 7122TIP3    H145561   6.184   7.141  12.792  0.5374  1.9615 -0.1440
 7122TIP3    H245562   6.080   7.250  12.786 -0.9792  0.7265  2.2261
 7123TIP3   OH245563   4.054   3.391  10.722  0.6643 -0.0307 -0.1533
 7123TIP3    H145564   4.030   3.442  10.644  1.0145 -0.8129 -0.7859
 7123TIP3    H245565   4.146   3.414  10.739  0.4903  0.3960  0.2443
 7124TIP3   OH245566   0.262   1.745  11.571  0.0120 -0.1259 -0.3288
 7124TIP3    H145567   0.202   1.812  11.538  0.3582 -0.4313 -1.6384
 7124TIP3    H245568   0.285   1.775  11.659  0.7396  1.8888 -1.1304
 7125TIP3   OH245569   1.839   5.463  12.051  0.1518  0.3295 -0.0515
 7125TIP3    H145570   1.833   5.374  12.085 -0.2348  0.1878 -0.4787
 7125TIP3    H245571   1.767   5.469  11.988 -1.0676  1.5559  1.3521
 7126TIP3   OH245572   2.799   5.881  10.504 -0.2060 -0.0506 -1.1822
 7126TIP3    H145573   2.751   5.823  10.445 -0.5333  0.0231 -0.9902
 7126TIP3    H245574   2.739   5.896  10.577  0.9965 -1.9135  0.2801
 7127TIP3   OH245575   1.224   0.462  10.860  0.5236  0.3490 -0.0519
 7127TIP3    H145576   1.296   0.509  10.902  0.2457  0.6188  0.1306
 7127TIP3    H245577   1.163   0.442  10.932  0.0304  0.8430 -0.3267
 7128TIP3   OH245578   4.486   2.708  10.449  0.2114  0.2427 -0.5931
 7128TIP3    H145579   4.426   2.747  10.385 -1.7620 -0.9866  0.3960
 7128TIP3    H245580   4.487   2.615  10.426  2.9704  0.4142 -1.4685
 7129TIP3   OH245581   0.619   6.412  11.968  0.4768 -0.3572 -0.7355
 7129TIP3    H145582   0.698   6.457  11.997 -0.0645 -0.4354  1.0177
 7129TIP3    H245583   0.626   6.324  12.005 -0.0835 -0.5947 -1.1811
 7130TIP3   OH245584   3.752   7.252  12.401 -0.1952 -0.1744  0.2360
 7130TIP3    H145585   3.764   7.281  12.311  0.2507  1.0614  0.6654
 7130TIP3    H245586   3.793   7.165  12.404  2.4488  0.9586 -0.0939
 7131TIP3   OH245587   5.752   0.288  11.812 -0.5500  0.7116 -0.2547
 7131TIP3    H145588   5.722   0.246  11.893 -1.5208 -2.0835 -1.8949
 7131TIP3    H245589   5.846   0.301  11.826 -0.7114  0.4205  1.3566
 7132TIP3   OH245590   2.562   0.667  11.528 -0.4201  0.1041  0.3839
 7132TIP3    H145591   2.581   0.603  11.597  0.0079  0.1664  0.3285
 7132TIP3    H245592   2.475   0.701  11.550 -0.4092 -0.0848  0.7322
 7133TIP3   OH245593   0.254   2.387  12.392 -0.6022 -0.0989 -0.2256
 7133TIP3    H145594   0.215   2.351  12.473 -0.7030  0.9078  0.1856
 7133TIP3    H245595   0.327   2.329  12.374 -0.6959 -0.4620  0.4835
 7134TIP3   OH245596   4.358   6.909  13.194  0.1167 -0.1692  0.4782
 7134TIP3    H145597   4.305   6.837  13.229 -0.6355  0.2119  0.1477
 7134TIP3    H245598   4.444   6.871  13.179 -0.0717 -0.8142  0.9923
 7135TIP3   OH245599   3.719   4.627  12.631 -0.2470  0.0005  0.1170
 7135TIP3    H145600   3.747   4.711  12.668 -1.5466  0.6649 -0.3493
 7135TIP3    H245601   3.752   4.628  12.541 -1.2791  0.5563 -0.2685
 7136TIP3   OH245602   2.547   7.501  10.400 -0.4475 -0.3473 -0.3013
 7136TIP3    H145603   2.462   7.464  10.422 -0.2402 -0.1222  0.9575
 7136TIP3    H245604   2.606   7.426  10.394 -0.4309 -0.3817  0.2968
 7137TIP3   OH245605   1.232   0.004  11.279  0.0619 -0.3952  0.2486
 7137TIP3    H145606   1.163  -0.054  11.246  1.3424 -1.3466 -0.8463
 7137TIP3    H245607   1.287  -0.053  11.333  0.1847  0.2976  0.8772
 7138TIP3   OH245608   5.453   3.112  12.963  0.6215 -0.2669 -0.1185
 7138TIP3    H145609   5.491   3.181  12.909 -0.2808 -0.8621 -1.5817
 7138TIP3    H245610   5.529   3.067  13.001  1.2215  1.3584  0.6920
 7139TIP3   OH245611   4.733   4.099  12.436  0.3549  0.1266  0.0883
 7139TIP3    H145612   4.742   4.007  12.461  1.0145  0.4698  1.1982
 7139TIP3    H245613   4.708   4.144  12.517  0.8556  1.0415 -0.2467
 7140TIP3   OH245614   7.575   7.047  11.656  0.2038  0.0415  0.2269
 7140TIP3    H145615   7.547   7.123  11.706  0.3692  0.4770 -0.3356
 7140TIP3    H245616   7.495   6.996  11.643 -0.2974  1.0927 -1.0546
 7141TIP3   OH245617   2.367   7.107  11.496  0.2430  0.0255 -0.2900
 7141TIP3    H145618   2.358   7.159  11.576 -3.4937 -0.2631 -0.3775
 7141TIP3    H245619   2.389   7.019  11.526  1.2025  0.4097  0.1900
 7142TIP3   OH245620   5.456   6.694  10.852  0.7997  0.2951  0.0877
 7142TIP3    H145621   5.427   6.611  10.891 -0.2937  0.8484  0.4878
 7142TIP3    H245622   5.383   6.721  10.796  0.9271  1.2492  0.3669
 7143TIP3   OH245623   3.617   1.947  12.457  0.1634 -0.6666  0.6898
 7143TIP3    H145624   3.679   2.019  12.471 -0.6381  0.1744  0.0396
 7143TIP3    H245625   3.573   1.937  12.541 -1.2512  1.1204  0.2452
 7144TIP3   OH245626   5.808   4.533  10.740 -0.2881  0.3662  0.9534
 7144TIP3    H145627   5.789   4.456  10.792  0.6531 -1.2822 -0.9910
 7144TIP3    H245628   5.881   4.507  10.683  0.8969  3.0791  1.0285
 7145TIP3   OH245629   2.662   6.494  11.531  0.0953 -0.0422  0.3125
 7145TIP3    H145630   2.722   6.567  11.520  0.9846 -0.4988  1.8924
 7145TIP3    H245631   2.635   6.472  11.442  1.6977  0.6565 -0.3854
 7146TIP3   OH245632   1.473   2.152  11.547  0.0788  0.0571 -0.1893
 7146TIP3    H145633   1.453   2.133  11.455 -0.7110 -2.2287  0.3961
 7146TIP3    H245634   1.443   2.242  11.560  0.6110  0.5951 -2.2466
 7147TIP3   OH245635   6.215   7.282  12.114  0.3384 -0.0011  0.5558
 7147TIP3    H145636   6.210   7.340  12.190 -1.7621  0.0696  0.4059
 7147TIP3    H245637   6.206   7.341  12.039 -3.7140 -0.5586  0.4326
 7148TIP3   OH245638   6.417   3.357  10.506 -0.5461  0.1510  0.1779
 7148TIP3    H145639   6.508   3.350  10.479 -0.5575  0.6593 -0.0137
 7148TIP3    H245640   6.384   3.267  10.506 -0.0652 -0.0247  0.1814
 7149TIP3   OH245641   0.513   1.642  11.487  0.2090  0.6093  0.3412
 7149TIP3    H145642   0.438   1.701  11.491  0.8396  1.9096 -3.3041
 7149TIP3    H245643   0.554   1.650  11.573 -1.7420  2.6986  1.1874
 7150TIP3   OH245644   2.706   3.466  12.269 -0.1544  0.1573  0.1038
 7150TIP3    H145645   2.630   3.409  12.285 -0.6666  0.6956 -0.3464
 7150TIP3    H245646   2.766   3.411  12.218 -0.4558 -0.1218  0.0414
 7151TIP3   OH245647   1.486   5.205  12.066 -0.2505 -0.2367 -0.1644
 7151TIP3    H145648   1.578   5.210  12.089 -0.3705  0.5370  0.1582
 7151TIP3    H245649   1.471   5.112  12.048  0.2121 -0.6237  1.3288
 7152TIP3   OH245650   4.583   0.082  11.074 -0.3801  0.3345 -0.7523
 7152TIP3    H145651   4.490   0.101  11.089 -0.1143  0.7488  0.5317
 7152TIP3    H245652   4.622   0.167  11.057 -0.1387  0.2400 -0.6693
 7153TIP3   OH245653   2.460   2.864  10.602 -0.1291  0.0539  0.1319
 7153TIP3    H145654   2.431   2.788  10.652 -0.0272  0.8155  1.4052
 7153TIP3    H245655   2.380   2.913  10.584 -0.1473 -0.1423 -0.3275
 7154TIP3   OH245656   0.524   3.159  12.048 -0.3105  0.2676  0.1838
 7154TIP3    H145657   0.484   3.084  12.003 -1.8757 -0.7604  3.0847
 7154TIP3    H245658   0.617   3.137  12.051 -0.7822 -1.8358  1.3207
 7155TIP3   OH245659   0.975   2.342  11.198 -0.0234  0.2917 -0.3871
 7155TIP3    H145660   0.960   2.434  11.219 -1.6243  0.1488 -0.7375
 7155TIP3    H245661   0.993   2.342  11.104 -3.2715  0.0266 -1.1323
 7156TIP3   OH245662   6.475   7.198  12.152 -0.2493  0.5743  0.0035
 7156TIP3    H145663   6.383   7.214  12.129 -0.2945  1.4597  0.7215
 7156TIP3    H245664   6.474   7.114  12.198 -0.5913  0.2326 -0.6229
 7157TIP3   OH245665   6.409   1.699  11.134 -0.3648  0.3793  0.5029
 7157TIP3    H145666   6.356   1.656  11.202 -1.1119 -0.2456 -0.4539
 7157TIP3    H245667   6.438   1.628  11.078 -0.9017  1.0188 -0.6124
 7158TIP3   OH245668   0.497   0.664  12.815 -0.4847 -0.5886  0.1895
 7158TIP3    H145669   0.552   0.679  12.892 -0.0109 -2.0929  0.1725
 7158TIP3    H245670   0.439   0.593  12.840 -1.5298  0.0824 -0.2671
 7159TIP3   OH245671   1.854   2.549  11.434  0.1987  0.0541  0.1836
 7159TIP3    H145672   1.857   2.641  11.458 -0.7813 -0.1113  1.0059
 7159TIP3    H245673   1.929   2.510  11.480  0.2901  0.3449  0.2844
 7160TIP3   OH245674   1.926   6.248  12.037 -0.9548  0.8387 -0.1712
 7160TIP3    H145675   2.021   6.261  12.048 -1.0901  0.8680  1.2069
 7160TIP3    H245676   1.896   6.327  11.994 -0.7883  2.3414  2.2595
 7161TIP3   OH245677   5.542   7.173  11.645 -0.7423 -0.5451 -0.2468
 7161TIP3    H145678   5.629   7.202  11.672  0.1390 -0.7740 -2.5622
 7161TIP3    H245679   5.510   7.120  11.717  0.4074  0.7233  1.2654
 7162TIP3   OH245680   6.650   7.422  11.322 -0.2835 -0.3355 -0.2199
 7162TIP3    H145681   6.729   7.433  11.270  1.6873 -2.6322  1.9904
 7162TIP3    H245682   6.579   7.413  11.258  1.3760  0.6619 -2.3057
 7163TIP3   OH245683   4.607   5.092  11.452  0.5029  0.1765 -0.6069
 7163TIP3    H145684   4.674   5.025  11.440 -0.2829 -0.6557 -0.4927
 7163TIP3    H245685   4.595   5.097  11.547 -0.9692 -1.1193 -0.6863
 7164TIP3   OH245686   2.753   4.554  12.246  0.9305  0.4331  0.2407
 7164TIP3    H145687   2.835   4.535  12.291  0.0631 -0.1679  1.6619
 7164TIP3    H245688   2.685   4.523  12.306 -0.4328  3.0701  0.2430
 7165TIP3   OH245689   1.401   1.302  11.525 -0.1914  0.0003 -0.1010
 7165TIP3    H145690   1.329   1.239  11.536 -0.3562 -0.0153 -1.1776
 7165TIP3    H245691   1.443   1.276  11.443  0.4290  0.6276  0.0103
 7166TIP3   OH245692   5.595   6.936  10.823 -0.1052  0.2092 -0.1171
 7166TIP3    H145693   5.581   6.842  10.836 -2.2334  0.6562  1.4937
 7166TIP3    H245694   5.519   6.965  10.772  0.1879  1.1449 -0.0466
 7167TIP3   OH245695   1.600   2.553  11.299  0.4690 -0.1922  0.1507
 7167TIP3    H145696   1.685   2.575  11.337  0.2245  1.7035 -0.3313
 7167TIP3    H245697   1.617   2.475  11.246  1.9551  0.3000 -0.1314
 7168TIP3   OH245698   5.942   1.186  11.053 -0.0596 -0.5290 -0.4047
 7168TIP3    H145699   6.033   1.176  11.080 -0.3220  0.7454  1.0810
 7168TIP3    H245700   5.947   1.219  10.963  1.0247  1.3390  0.2780
 7169TIP3   OH245701   0.541   0.934  10.962 -0.4200  0.0139  0.1856
 7169TIP3    H145702   0.570   0.865  11.022 -0.4830  0.1362  0.3564
 7169TIP3    H245703   0.468   0.976  11.008 -0.7311 -0.1587 -0.1508
 7170TIP3   OH245704   3.674   5.832  13.055  0.0783 -0.2204  0.3755
 7170TIP3    H145705   3.706   5.870  13.137  1.4313 -0.7423  0.1099
 7170TIP3    H245706   3.609   5.767  13.084  0.0269  0.1008  0.9979
 7171TIP3   OH245707   2.900   3.412  13.250 -0.8499 -0.2924  0.5147
 7171TIP3    H145708   2.989   3.433  13.220 -1.5166  1.2258 -0.5329
 7171TIP3    H245709   2.906   3.414  13.346  0.7754 -2.7844  0.5642
 7172TIP3   OH245710   2.923   7.506  10.676 -0.1581 -0.0108  0.2700
 7172TIP3    H145711   2.948   7.563  10.603  1.0611 -0.8162  0.0195
 7172TIP3    H245712   2.847   7.550  10.716 -1.1511  0.2189 -1.7367
 7173TIP3   OH245713   2.247   5.406  11.166 -0.5111  0.3254 -0.2289
 7173TIP3    H145714   2.280   5.402  11.256 -2.1007 -0.3019  0.3566
 7173TIP3    H245715   2.170   5.463  11.171 -0.2734  0.7674 -1.3140
 7174TIP3   OH245716   6.334   4.717  12.236 -0.1319 -0.3795  0.8044
 7174TIP3    H145717   6.297   4.632  12.260  0.1468 -0.7001  0.1249
 7174TIP3    H245718   6.267   4.758  12.180  0.7018 -1.1786 -0.8588
 7175TIP3   OH245719   6.312   7.646  11.502  0.5446  0.6005 -0.1671
 7175TIP3    H145720   6.394   7.603  11.525 -0.3700  0.0572  2.3818
 7175TIP3    H245721   6.326   7.738  11.527  0.4055  0.5149  0.2346
 7176TIP3   OH245722   1.249   2.205  11.731 -0.4033  0.8068  0.3397
 7176TIP3    H145723   1.212   2.146  11.665  1.0660  0.6847 -0.4178
 7176TIP3    H245724   1.173   2.247  11.771 -1.3896 -0.1529 -0.4692
 7177TIP3   OH245725   0.710   7.415  11.653  0.2550 -0.5713 -0.1149
 7177TIP3    H145726   0.676   7.486  11.708 -0.1853 -1.2919  0.5616
 7177TIP3    H245727   0.682   7.438  11.565  0.2401  0.1722  0.0737
 7178TIP3   OH245728   1.263   5.031  11.465  0.1259  0.1071  0.3590
 7178TIP3    H145729   1.261   5.123  11.489  1.6803  0.5233 -0.9401
 7178TIP3    H245730   1.324   5.026  11.391 -1.4226 -1.6650 -0.9142
 7179TIP3   OH245731   1.679   7.497  11.624 -0.1864  0.0131  0.3863
 7179TIP3    H145732   1.615   7.516  11.693 -0.6248 -0.5951  0.1584
 7179TIP3    H245733   1.636   7.525  11.543 -0.1215 -0.2932  0.2433
 7180TIP3   OH245734   0.577   3.553  12.310 -0.5446 -0.2276  0.2706
 7180TIP3    H145735   0.663   3.513  12.299 -0.7074 -0.0251 -2.4273
 7180TIP3    H245736   0.516   3.479  12.306 -0.5866 -0.2509  1.0820
 7181TIP3   OH245737   2.394   6.637  10.754  0.7433 -0.2747 -0.2108
 7181TIP3    H145738   2.359   6.571  10.815  0.7136  0.0812  0.1570
 7181TIP3    H245739   2.482   6.606  10.735  0.3577 -1.0007 -0.8822
 7182TIP3   OH245740   1.536   5.105  12.719  0.2544 -0.0755 -0.2423
 7182TIP3    H145741   1.597   5.061  12.660  1.9377  0.2331  1.1597
 7182TIP3    H245742   1.534   5.049  12.797  0.5841  1.0924  0.6368
 7183TIP3   OH245743   2.736   4.157  13.002 -0.0862 -0.1785  0.3094
 7183TIP3    H145744   2.763   4.238  13.045 -0.5152  0.6257 -0.8650
 7183TIP3    H245745   2.665   4.123  13.056 -1.6827  1.6325 -0.5169
 7184TIP3   OH245746   7.285   2.175  11.616 -0.2271  0.1100 -0.6857
 7184TIP3    H145747   7.323   2.128  11.690 -0.0882  0.8874 -0.2485
 7184TIP3    H245748   7.191   2.167  11.629 -0.2572  2.2297  0.9308
 7185TIP3   OH245749   0.458   5.889  12.571  0.1115  0.1313  0.2856
 7185TIP3    H145750   0.471   5.888  12.666  0.2819  0.6182  0.2716
 7185TIP3    H245751   0.383   5.947  12.558  0.1952  0.2029  0.1139
 7186TIP3   OH245752   4.626   1.691  10.778  0.3334 -0.3174  0.4858
 7186TIP3    H145753   4.550   1.746  10.798  0.9307  0.2203  1.2949
 7186TIP3    H245754   4.602   1.648  10.695 -0.7396  0.0445  0.5870
 7187TIP3   OH245755   5.061   7.007  12.088  0.1717  0.0033  0.7721
 7187TIP3    H145756   5.090   6.938  12.028 -1.7456  1.3881 -1.9287
 7187TIP3    H245757   4.973   6.981  12.115  0.2745  0.3587  1.4933
 7188TIP3   OH245758   2.524   2.109  11.414 -0.5039  0.6017  0.3684
 7188TIP3    H145759   2.536   2.160  11.333 -0.2481 -0.3067 -0.1754
 7188TIP3    H245760   2.476   2.169  11.472  0.0642  1.5800 -0.1321
 7189TIP3   OH245761   4.741   7.659  11.864  0.2475 -0.2983 -0.0178
 7189TIP3    H145762   4.684   7.647  11.788 -0.8990 -0.0554  0.7814
 7189TIP3    H245763   4.786   7.575  11.873 -0.4106 -0.6949 -0.3338
 7190TIP3   OH245764   3.565   7.480  11.405  0.0774 -0.3863  0.1953
 7190TIP3    H145765   3.548   7.514  11.493  1.0376 -0.2630  0.3457
 7190TIP3    H245766   3.485   7.499  11.356  0.2332  1.2305  0.5352
 7191TIP3   OH245767   6.822   0.585  12.379 -0.5742  0.3826  0.0481
 7191TIP3    H145768   6.786   0.666  12.415 -0.0870  0.8614 -0.5101
 7191TIP3    H245769   6.774   0.515  12.423 -0.3151  0.9501  1.2721
 7192TIP3   OH245770   0.678   1.583  10.374  0.9388  0.0877 -0.1703
 7192TIP3    H145771   0.688   1.539  10.290  2.7206 -1.6290  0.8679
 7192TIP3    H245772   0.755   1.639  10.381  1.9427 -1.3858  1.1758
 7193TIP3   OH245773   2.742   1.728  13.128  0.0741 -0.7384  0.2495
 7193TIP3    H145774   2.703   1.663  13.069 -3.3263 -0.0423  1.4502
 7193TIP3    H245775   2.700   1.810  13.104  0.9224  0.1464  1.6517
 7194TIP3   OH245776   2.966   0.877  10.817  0.0767  0.2659  0.2412
 7194TIP3    H145777   2.884   0.891  10.865 -0.3795  0.5209 -0.5744
 7194TIP3    H245778   2.993   0.965  10.790  0.9079  0.2375  0.9445
 7195TIP3   OH245779   1.737   0.426  12.607 -0.1633 -0.0747 -0.1858
 7195TIP3    H145780   1.741   0.495  12.541 -2.1544 -0.1102 -0.3995
 7195TIP3    H245781   1.649   0.390  12.600  0.9463 -3.0873 -0.4864
 7196TIP3   OH245782   4.252   5.107  11.804 -0.1713  0.3420  0.3164
 7196TIP3    H145783   4.256   5.052  11.726  0.0975 -2.2068  2.0329
 7196TIP3    H245784   4.337   5.151  11.806  0.6113 -1.1178  0.2141
 7197TIP3   OH245785   4.032   2.996  11.640  0.2494  0.4022 -0.1463
 7197TIP3    H145786   3.971   2.953  11.700  0.6337 -1.5201 -1.0602
 7197TIP3    H245787   4.025   3.089  11.661 -2.5120  0.1831  0.1959
 7198TIP3   OH245788   3.239   6.661  11.779  0.2303  0.1208 -0.2394
 7198TIP3    H145789   3.238   6.754  11.755  1.3234 -0.1990 -1.6877
 7198TIP3    H245790   3.160   6.625  11.738 -0.2000  0.3977  0.3314
 7199TIP3   OH245791   0.777   2.794  12.028  0.4962 -0.2806 -0.3949
 7199TIP3    H145792   0.814   2.844  11.955 -1.3806  3.0222  0.7305
 7199TIP3    H245793   0.689   2.771  11.998  0.6775 -1.3408 -0.1535
 7200TIP3   OH245794   2.743   5.126  12.382  0.5991 -0.5510  0.4463
 7200TIP3    H145795   2.788   5.147  12.300 -1.0681  2.0996  0.1058
 7200TIP3    H245796   2.805   5.149  12.450  1.0872 -0.4159 -0.0353
 7201TIP3   OH245797   5.601   1.055  12.196  0.2739 -0.2127 -0.3261
 7201TIP3    H145798   5.686   1.033  12.160  0.6521 -0.1863  0.5329
 7201TIP3    H245799   5.564   0.971  12.224  0.3470 -0.1359  0.0049
 7202TIP3   OH245800   6.941   1.088  13.100  0.7413  0.3944 -0.2692
 7202TIP3    H145801   6.963   1.100  13.193  0.0645 -1.1295  0.1152
 7202TIP3    H245802   6.849   1.115  13.094  0.5412 -0.2763 -0.3134
 7203TIP3   OH245803   4.397   2.346  10.165 -0.1024 -0.5328 -0.5422
 7203TIP3    H145804   4.333   2.386  10.106  0.7394  0.2665 -0.9413
 7203TIP3    H245805   4.481   2.384  10.139  0.7355 -2.4882 -0.8700
 7204TIP3   OH245806   2.015   7.001  10.842 -0.1055 -0.1481 -0.0851
 7204TIP3    H145807   1.933   6.951  10.843 -1.1018  1.4052  0.2631
 7204TIP3    H245808   2.076   6.946  10.794 -1.1704 -1.6400  0.1935
 7205TIP3   OH245809   6.505   7.232  12.620  0.3990 -0.1293 -0.6463
 7205TIP3    H145810   6.559   7.281  12.557  1.7855 -0.1537  0.4756
 7205TIP3    H245811   6.508   7.285  12.700 -0.7440 -0.4625 -0.3641
 7206TIP3   OH245812   1.160   2.184  12.536 -0.3866  0.3207 -0.0025
 7206TIP3    H145813   1.169   2.163  12.629 -0.1495  0.0941 -0.0743
 7206TIP3    H245814   1.209   2.266  12.526  1.4653 -0.7670 -0.3365
 7207TIP3   OH245815   4.792   2.748  11.738  0.5526 -0.0519 -0.0728
 7207TIP3    H145816   4.768   2.841  11.732  1.0291  0.1925  1.3093
 7207TIP3    H245817   4.722   2.708  11.789 -0.1083 -0.6602 -1.4196
 7208TIP3   OH245818   4.793   3.859  10.316  0.6475 -0.2066 -0.4293
 7208TIP3    H145819   4.796   3.899  10.403  1.7322  0.2207 -0.6512
 7208TIP3    H245820   4.806   3.932  10.255 -0.3676 -0.4605 -0.9748
 7209TIP3   OH245821   6.508   3.033  12.381 -0.0533  0.5314  0.2384
 7209TIP3    H145822   6.449   3.107  12.391  0.5484  0.9822  0.5268
 7209TIP3    H245823   6.593   3.065  12.413  0.8286  0.5045 -1.8578
 7210TIP3   OH245824   5.978   2.724  12.485 -0.4886  0.0746 -0.4801
 7210TIP3    H145825   6.025   2.707  12.403 -2.6471 -1.4434 -1.4936
 7210TIP3    H245826   6.028   2.677  12.551  1.0001  0.8920 -0.9774
 7211TIP3   OH245827   3.884   5.226  12.795 -0.1667  0.0136  0.1513
 7211TIP3    H145828   3.914   5.163  12.861  1.2961 -1.4546 -1.7869
 7211TIP3    H245829   3.961   5.278  12.775  0.0216 -0.8952 -1.7613
 7212TIP3   OH245830   2.366   1.887  12.786  0.6423 -0.0500  0.2710
 7212TIP3    H145831   2.353   1.798  12.818  0.7457  0.1551  0.9011
 7212TIP3    H245832   2.404   1.934  12.861 -0.3686  0.7810  0.2869
 7213TIP3   OH245833   3.460   6.191  11.370 -0.3864 -0.3074  0.4031
 7213TIP3    H145834   3.532   6.249  11.344  0.2814 -0.5936  1.5646
 7213TIP3    H245835   3.391   6.251  11.397  0.7393  0.0341  2.8114
 7214TIP3   OH245836   0.845   4.331  11.484 -0.3514 -0.1708 -0.2618
 7214TIP3    H145837   0.776   4.287  11.534 -0.4483  0.1118 -0.1467
 7214TIP3    H245838   0.866   4.408  11.535 -0.1139 -0.1322 -0.4185
 7215TIP3   OH245839   2.065   1.784  13.209  0.1647  0.6146 -0.2565
 7215TIP3    H145840   1.989   1.736  13.176  1.2979 -0.6587 -1.1554
 7215TIP3    H245841   2.087   1.845  13.139 -0.0969  1.0716  0.0554
 7216TIP3   OH245842   6.035   6.978  11.689  0.3210  0.2497 -0.4627
 7216TIP3    H145843   6.056   6.981  11.782  0.2948 -0.6713 -0.4142
 7216TIP3    H245844   5.949   7.021  11.682  0.7087  1.0776 -0.1935
 7217TIP3   OH245845   2.874   2.717  11.806  0.3989  0.0440 -0.5295
 7217TIP3    H145846   2.935   2.762  11.864 -0.6348  0.5612  0.1870
 7217TIP3    H245847   2.813   2.673  11.864 -0.1590 -0.1221 -1.2230
 7218TIP3   OH245848   5.885   2.467  10.303 -1.0612 -0.2539 -0.0344
 7218TIP3    H145849   5.852   2.449  10.391  0.3897  0.4139  0.6764
 7218TIP3    H245850   5.896   2.562  10.301  0.0126 -0.3789 -0.5158
 7219TIP3   OH245851   2.337   3.890  12.873  0.3340  0.3008  0.5447
 7219TIP3    H145852   2.304   3.939  12.949 -1.6636  0.8281 -0.5780
 7219TIP3    H245853   2.350   3.801  12.905  0.0199  0.6276  1.6303
 7220TIP3   OH245854   1.220   7.342  12.874  0.3443 -0.3626 -0.6544
 7220TIP3    H145855   1.274   7.273  12.914  0.1197 -0.1699 -0.0012
 7220TIP3    H245856   1.137   7.299  12.853  0.7513 -0.6699 -1.6986
 7221TIP3   OH245857   4.481   6.534  12.289  0.2336 -0.0253  0.3088
 7221TIP3    H145858   4.398   6.485  12.292 -0.6057  1.2165 -1.1019
 7221TIP3    H245859   4.508   6.540  12.380  0.0009 -2.4565  0.6083
 7222TIP3   OH245860   7.343   6.228  12.356 -0.3785 -0.0567 -0.5326
 7222TIP3    H145861   7.377   6.234  12.267 -3.1120 -1.8381 -1.8353
 7222TIP3    H245862   7.321   6.135  12.367  0.0365  0.0867  2.0966
 7223TIP3   OH245863   2.625   3.475  10.358  0.1676  0.3134  0.0587
 7223TIP3    H145864   2.547   3.421  10.348  1.3260 -1.0296 -3.2874
 7223TIP3    H245865   2.670   3.440  10.435 -1.9224  0.4104  1.3836
 7224TIP3   OH245866   5.746   3.014  11.301  0.5003 -0.3604 -0.1545
 7224TIP3    H145867   5.677   2.980  11.358 -0.4316 -1.1805 -1.6863
 7224TIP3    H245868   5.718   3.103  11.280  1.9249  0.7442  2.2697
 7225TIP3   OH245869   2.008   6.371  12.357  0.2102  0.3568  0.0606
 7225TIP3    H145870   1.988   6.281  12.382 -1.4003 -0.2583 -2.9965
 7225TIP3    H245871   2.102   6.371  12.339  0.2459 -0.7011  0.2088
 7226TIP3   OH245872   1.429   7.518  10.570  0.3198  0.0702  0.1070
 7226TIP3    H145873   1.397   7.604  10.594 -0.5730 -0.9263  2.8390
 7226TIP3    H245874   1.352   7.461  10.576  1.1917 -1.1827 -0.1567
 7227TIP3   OH245875   2.421   5.661  12.577 -0.1453  0.6244  0.2375
 7227TIP3    H145876   2.387   5.747  12.603  0.4742  0.7314  0.7312
 7227TIP3    H245877   2.476   5.634  12.650  0.2726  0.1465 -0.2435
 7228TIP3   OH245878   5.384   7.103  11.124  0.2706  0.8944 -0.2820
 7228TIP3    H145879   5.392   7.128  11.216 -0.9058 -2.3961  0.8874
 7228TIP3    H245880   5.421   7.014  11.120  0.0027  0.8030 -2.9389
 7229TIP3   OH245881   3.981   1.513  11.131  0.6669 -0.8611 -0.4975
 7229TIP3    H145882   3.907   1.523  11.191 -0.6226 -3.9768 -1.3816
 7229TIP3    H245883   3.992   1.600  11.092 -1.4361  0.0869  0.8572
 7230TIP3   OH245884   1.666   2.818  11.896 -0.2657  0.0965  0.1826
 7230TIP3    H145885   1.702   2.758  11.960  0.8285  0.7553  0.1964
 7230TIP3    H245886   1.659   2.766  11.816 -2.8091 -1.1051  1.0637
 7231TIP3   OH245887   5.391   3.388  10.176  0.1040 -0.3335  0.4635
 7231TIP3    H145888   5.411   3.354  10.264  0.1947  0.4064  0.7333
 7231TIP3    H245889   5.309   3.436  10.187 -1.2304 -2.3010 -0.3820
 7232TIP3   OH245890   5.973   0.297  12.777  0.1761 -0.0905  0.3232
 7232TIP3    H145891   5.988   0.344  12.695 -1.7469  0.1169  0.0425
 7232TIP3    H245892   5.929   0.216  12.750 -0.8060  0.1541  1.1662
 7233TIP3   OH245893   1.876   2.729  10.788  0.0336 -0.4608 -0.0743
 7233TIP3    H145894   1.946   2.715  10.853  0.1865 -0.7247 -0.2929
 7233TIP3    H245895   1.890   2.819  10.758 -0.8227  0.1283  1.1845
 7234TIP3   OH245896   4.592   1.843  12.798 -0.5781  0.3148  0.2943
 7234TIP3    H145897   4.657   1.871  12.862 -0.8821  0.1938  0.6584
 7234TIP3    H245898   4.577   1.750  12.818  0.0386  0.0203 -0.5679
 7235TIP3   OH245899   6.080   2.608  11.419  0.1590 -0.9299  0.5462
 7235TIP3    H145900   6.077   2.701  11.397 -0.7719 -1.2088 -0.6153
 7235TIP3    H245901   6.134   2.569  11.351  0.6032 -1.2360  1.0672
 7236TIP3   OH245902   6.755   0.575  10.738  0.0188 -0.3089  0.4657
 7236TIP3    H145903   6.755   0.480  10.724  0.3170 -0.4654  1.4098
 7236TIP3    H245904   6.671   0.592  10.781  0.0865 -0.1927  0.5516
 7237TIP3   OH245905   5.228   5.331  13.168  0.3598  0.0209 -0.1753
 7237TIP3    H145906   5.245   5.263  13.103 -1.5675 -1.0095  0.3317
 7237TIP3    H245907   5.137   5.316  13.195  0.4232  1.7820  1.1642
 7238TIP3   OH245908   2.310   5.610  10.886  0.4196  0.0943  0.5537
 7238TIP3    H145909   2.219   5.606  10.916  0.7046 -1.5377  1.2862
 7238TIP3    H245910   2.322   5.532  10.832  1.7622 -0.4938  1.6305
 7239TIP3   OH245911   2.703   6.039  12.040 -0.5757 -0.1793 -0.6665
 7239TIP3    H145912   2.651   6.079  12.110  1.3279 -0.0076  0.7068
 7239TIP3    H245913   2.759   5.975  12.084  0.3943 -0.3597 -2.0839
 7240TIP3   OH245914   3.914   0.379  11.672  0.2959  0.1910  0.0983
 7240TIP3    H145915   3.974   0.387  11.598  1.5462  0.7915  1.1339
 7240TIP3    H245916   3.827   0.373  11.632  0.9478  0.2577 -1.4082
 7241TIP3   OH245917   7.407   5.036  12.866 -0.0401 -0.4041  0.3717
 7241TIP3    H145918   7.491   5.011  12.904 -0.1453  1.3118  1.8911
 7241TIP3    H245919   7.343   5.018  12.935 -0.7918 -0.7455 -0.3931
 7242TIP3   OH245920   3.798   0.124  11.404 -0.0829  0.0392  0.3573
 7242TIP3    H145921   3.887   0.153  11.384 -0.4605  1.1007  0.1520
 7242TIP3    H245922   3.806   0.073  11.484  0.5211  1.2554  1.0896
 7243TIP3   OH245923   2.885   3.712  12.860  0.0923  0.2466 -0.1293
 7243TIP3    H145924   2.962   3.666  12.828 -0.5505 -1.1966  0.2986
 7243TIP3    H245925   2.869   3.676  12.947 -2.6316 -1.5973 -1.2320
 7244TIP3   OH245926   6.203   7.523  11.762  0.5080 -0.6352 -0.0974
 7244TIP3    H145927   6.195   7.613  11.792 -0.8706 -0.9022  0.4120
 7244TIP3    H245928   6.262   7.528  11.687  0.5891  0.6581  0.0292
 7245TIP3   OH245929   3.509   7.379  12.171  0.0602 -0.2190 -0.4631
 7245TIP3    H145930   3.502   7.283  12.170  1.3322 -0.3213 -0.5162
 7245TIP3    H245931   3.603   7.397  12.169 -0.1769  1.0529 -1.3789
 7246TIP3   OH245932   7.231   2.745  12.389 -0.1040  0.1306  0.2627
 7246TIP3    H145933   7.289   2.798  12.443  0.0458  0.2371  0.0001
 7246TIP3    H245934   7.290   2.694  12.334 -0.2101 -1.4467  1.5588
 7247TIP3   OH245935   3.217   5.620  10.708  0.0139  0.0147  0.8143
 7247TIP3    H145936   3.222   5.616  10.803 -0.8944 -0.3458  0.8563
 7247TIP3    H245937   3.198   5.531  10.680 -0.0086  0.1687  0.3171
 7248TIP3   OH245938   1.629   5.344  11.133  0.6075  0.2631 -0.1068
 7248TIP3    H145939   1.542   5.346  11.093  0.0625  1.2924  1.0335
 7248TIP3    H245940   1.663   5.257  11.114 -1.0640 -0.4951  0.2141
 7249TIP3   OH245941   5.581   5.762  12.958  0.5878  0.2115  0.0968
 7249TIP3    H145942   5.527   5.684  12.968 -1.5789  1.6231  0.1062
 7249TIP3    H245943   5.544   5.825  13.021  1.8441  1.4589 -0.3615
 7250TIP3   OH245944   1.435   5.071  11.228  0.3310 -0.6907  0.2191
 7250TIP3    H145945   1.472   5.145  11.276 -2.4158  0.3357  0.9408
 7250TIP3    H245946   1.409   5.108  11.144 -0.3978 -0.9998  0.2996
 7251TIP3   OH245947   4.957   7.044  13.285  0.4550 -0.1623 -0.0635
 7251TIP3    H145948   4.923   7.010  13.202  0.2435  1.0830 -0.5035
 7251TIP3    H245949   5.049   7.066  13.267  0.5433 -0.3386  0.1658
 7252TIP3   OH245950   0.824   7.240  11.065  0.4820 -0.8927 -0.0021
 7252TIP3    H145951   0.898   7.288  11.028 -0.2907  1.3059  1.1412
 7252TIP3    H245952   0.748   7.270  11.013 -0.0847 -0.4572  1.0427
 7253TIP3   OH245953   3.439   5.381  11.000  0.5647  0.1440 -0.1157
 7253TIP3    H145954   3.420   5.432  11.079 -0.2623 -0.1164 -0.1439
 7253TIP3    H245955   3.488   5.306  11.032  2.1074  1.0998 -0.1118
 7254TIP3   OH245956   0.360   4.501  11.011 -0.3726 -0.1351 -0.1648
 7254TIP3    H145957   0.312   4.520  11.091 -1.1466 -0.2518 -0.6001
 7254TIP3    H245958   0.298   4.455  10.955  0.7481 -1.8286 -0.0853
 7255TIP3   OH245959   3.946   0.810  11.114  0.5265 -0.3442 -0.3823
 7255TIP3    H145960   3.919   0.771  11.031 -2.4580 -0.4192  0.4899
 7255TIP3    H245961   3.927   0.903  11.104  2.9708  0.1669 -0.7487
 7256TIP3   OH245962   2.307   5.388  11.942  0.4503  0.3982  0.0306
 7256TIP3    H145963   2.360   5.402  12.021  0.3992 -0.1370  0.1617
 7256TIP3    H245964   2.225   5.433  11.960 -0.6396 -1.9724  1.4298
 7257TIP3   OH245965   5.651   2.063  10.914  0.3005 -0.4257 -0.3088
 7257TIP3    H145966   5.656   2.000  10.842 -0.3242 -0.9666  0.1090
 7257TIP3    H245967   5.700   2.022  10.985  2.0128  0.6695 -0.8046
 7258TIP3   OH245968   1.996   2.410  12.202  0.0474  0.4955  0.6035
 7258TIP3    H145969   2.041   2.460  12.134  0.2080  0.1214  0.4333
 7258TIP3    H245970   1.984   2.323  12.164 -0.2943  0.4222  0.8712
 7259TIP3   OH245971   0.036   5.113  13.152 -0.0946  0.7569 -0.5481
 7259TIP3    H145972  -0.057   5.115  13.174 -0.2794  1.2444 -1.3518
 7259TIP3    H245973   0.068   5.200  13.175  0.3887  0.2951  0.6193
 7260TIP3   OH245974   7.279   2.133  13.100 -0.1188 -0.4100 -0.5640
 7260TIP3    H145975   7.315   2.096  13.019 -0.3706  1.4952 -1.6317
 7260TIP3    H245976   7.203   2.183  13.071  0.0959  0.7576  0.7634
 7261TIP3   OH245977   1.566   4.341  11.460  0.0873  0.9228  0.1901
 7261TIP3    H145978   1.583   4.331  11.367 -1.3119  1.8895 -0.1952
 7261TIP3    H245979   1.644   4.305  11.503  0.8329  0.6545 -1.3404
 7262TIP3   OH245980   5.711   6.182  10.712 -0.9567 -0.5948  0.1365
 7262TIP3    H145981   5.777   6.115  10.696  1.6201  1.8242 -0.0464
 7262TIP3    H245982   5.730   6.214  10.800 -0.5706  1.4428 -0.6346
 7263TIP3   OH245983   6.580   6.879  11.724  0.4123 -0.2233  0.0565
 7263TIP3    H145984   6.603   6.901  11.815 -0.0980  0.4337  0.0412
 7263TIP3    H245985   6.625   6.945  11.672  1.8999 -1.4671 -0.3043
 7264TIP3   OH245986   4.334   0.279  10.960 -0.6590 -0.1307 -0.2271
 7264TIP3    H145987   4.294   0.363  10.982 -0.9489 -0.3909  0.2469
 7264TIP3    H245988   4.303   0.219  11.027 -0.9414 -0.7573 -0.9013
 7265TIP3   OH245989   0.009   7.281  17.225  0.5225  0.1199 -0.3968
 7265TIP3    H145990   0.071   7.351  17.243 -0.5562  1.2798 -1.0801
 7265TIP3    H245991  -0.072   7.325  17.198 -0.6112 -1.3464  0.4372
 7266TIP3   OH245992   6.585   2.308  10.864 -0.0415 -0.0972 -0.0726
 7266TIP3    H145993   6.527   2.376  10.831  1.8432  1.8650  0.3867
 7266TIP3    H245994   6.613   2.340  10.950  0.5977 -1.6712  0.3397
 7267TIP3   OH245995   7.575   0.182  10.710 -0.0175  0.0654  0.2933
 7267TIP3    H145996   7.537   0.267  10.729  1.7349  0.4020  2.7298
 7267TIP3    H245997   7.601   0.186  10.618  0.0694  2.1825  0.3780
 7268TIP3   OH245998   6.044   0.872  11.225 -0.5360  0.8581 -0.2286
 7268TIP3    H145999   6.012   0.868  11.316 -2.6752 -1.3325 -0.9734
 7268TIP3    H246000   5.974   0.833  11.173  2.8457 -3.3470 -2.1983
 7269TIP3   OH246001   0.933   0.735  11.284 -0.2625 -0.2953 -0.2950
 7269TIP3    H146002   0.983   0.674  11.231  0.4372 -1.5320  1.6714
 7269TIP3    H246003   0.855   0.686  11.311 -2.3231  1.3599 -2.7132
 7270TIP3   OH246004   5.304   3.445  11.865  0.1503 -0.1600  0.2282
 7270TIP3    H146005   5.379   3.498  11.892 -0.9484  0.3482  2.4637
 7270TIP3    H246006   5.228   3.486  11.906 -1.3074 -1.0496 -1.4207
 7271TIP3   OH246007   7.162   6.461  12.859 -0.7964  0.0286 -0.5856
 7271TIP3    H146008   7.218   6.454  12.936 -0.6930 -0.6299 -0.7195
 7271TIP3    H246009   7.177   6.550  12.827 -1.2735  0.5038  0.4768
 7272TIP3   OH246010   0.068   3.755  12.244 -0.3418 -0.5525  0.5676
 7272TIP3    H146011   0.019   3.691  12.192  0.5384 -0.2612 -0.6821
 7272TIP3    H246012   0.119   3.803  12.179  1.3289 -0.6165  1.7936
 7273TIP3   OH246013   6.570   4.199  12.774 -0.8945  0.2960 -0.5273
 7273TIP3    H146014   6.635   4.236  12.834 -1.7883  0.1664  0.5683
 7273TIP3    H246015   6.582   4.246  12.692  1.6599 -0.8169 -0.9003
 7274TIP3   OH246016   6.339   2.075  12.621 -0.0874 -0.4430  0.3433
 7274TIP3    H146017   6.265   2.039  12.572  0.4992  0.2330 -1.0925
 7274TIP3    H246018   6.299   2.135  12.684 -0.9144 -1.9367  1.3156
 7275TIP3   OH246019   3.001   2.287  13.169 -0.1600  0.1060 -0.1811
 7275TIP3    H146020   2.978   2.367  13.122  0.8493  0.8632  0.5617
 7275TIP3    H246021   2.936   2.223  13.141 -1.1287  1.2477 -0.6164
 7276TIP3   OH246022   1.012   2.710  12.169  0.3369  0.2964  0.0808
 7276TIP3    H146023   0.932   2.744  12.128 -1.2696 -1.1005  1.8864
 7276TIP3    H246024   0.989   2.701  12.262  2.1499 -1.4028  0.4222
 7277TIP3   OH246025   7.343   0.062  10.830  0.1048  0.4930 -0.1989
 7277TIP3    H146026   7.296   0.137  10.794 -1.2511 -1.8593 -3.9312
 7277TIP3    H246027   7.426   0.061  10.783 -0.8046 -1.4475 -1.9325
 7278TIP3   OH246028   7.375   2.228  12.796 -0.2657  0.0731  0.2575
 7278TIP3    H146029   7.369   2.133  12.802  1.3984 -0.1425 -0.7569
 7278TIP3    H246030   7.381   2.246  12.702  0.1824  1.0959  0.4674
 7279TIP3   OH246031   5.749   0.462  13.016 -0.3253 -0.1890 -0.4828
 7279TIP3    H146032   5.838   0.497  13.012  0.0907 -1.3128 -2.1768
 7279TIP3    H246033   5.753   0.396  13.086 -0.1692  0.5906  0.2612
 7280TIP3   OH246034   2.345   3.161  11.541 -0.3374  0.0663 -0.0272
 7280TIP3    H146035   2.374   3.141  11.453  0.5753 -1.3594  0.5556
 7280TIP3    H246036   2.254   3.131  11.544  0.1395 -1.4526 -0.0188
 7281TIP3   OH246037   6.079   3.670  11.212  0.1445  0.5122  0.0894
 7281TIP3    H146038   6.017   3.742  11.227 -0.8951  0.1526 -2.1163
 7281TIP3    H246039   6.026   3.591  11.220  0.8163  0.0849  0.3710
 7282TIP3   OH246040   6.463   6.693  11.018  0.8358 -0.2658 -0.2877
 7282TIP3    H146041   6.462   6.631  11.090 -1.6300  0.3615  0.3067
 7282TIP3    H246042   6.440   6.641  10.941  0.1434 -0.3489 -0.0293
 7283TIP3   OH246043   1.252   7.013  12.957  0.0327  0.4038 -0.1684
 7283TIP3    H146044   1.224   6.978  13.041  1.8292 -0.9223 -0.0559
 7283TIP3    H246045   1.194   6.971  12.893 -0.2054  0.0464  0.2823
 7284TIP3   OH246046   2.310   3.627  11.425 -0.2586  0.2352 -0.0052
 7284TIP3    H146047   2.224   3.663  11.446  0.2379  1.5718 -0.1233
 7284TIP3    H246048   2.344   3.598  11.510 -0.6958 -0.0078  0.0911
 7285TIP3   OH246049   5.048   5.505  13.357 -0.4000  0.4755 -0.2354
 7285TIP3    H146050   4.994   5.542  13.426  1.6196  2.4957  0.3787
 7285TIP3    H246051   5.006   5.422  13.335 -1.8932  0.4411  2.4134
 7286TIP3   OH246052   5.056   3.193  11.611  0.1704 -0.6321  0.1989
 7286TIP3    H146053   4.988   3.232  11.665  0.1436 -1.2023  0.5812
 7286TIP3    H246054   5.137   3.237  11.639  0.1064 -0.6728  0.4410
 7287TIP3   OH246055   3.267   6.499  12.460  0.0956  0.3069  0.2729
 7287TIP3    H146056   3.242   6.586  12.428  0.9335  0.5783  0.3306
 7287TIP3    H246057   3.354   6.512  12.499 -0.2980 -0.3081  1.3873
 7288TIP3   OH246058   6.370   2.067  10.455  0.2337  0.3645  0.2206
 7288TIP3    H146059   6.434   2.108  10.396  2.8319 -0.5542  2.1871
 7288TIP3    H246060   6.385   1.973  10.444 -2.0968  0.0104 -0.5095
 7289TIP3   OH246061   2.238   0.044  12.414  0.4313  0.1690 -0.6622
 7289TIP3    H146062   2.294   0.112  12.451 -1.7015  1.8503 -0.3232
 7289TIP3    H246063   2.177   0.022  12.484  0.9134 -2.0334 -0.8299
 7290TIP3   OH246064   3.314   5.323  11.662 -0.3484  0.4163 -0.2768
 7290TIP3    H146065   3.278   5.235  11.661  1.8295 -0.5790  1.2306
 7290TIP3    H246066   3.281   5.364  11.582 -1.9840 -1.4885 -0.6429
 7291TIP3   OH246067   6.750   0.369  12.802 -0.6562  0.6496 -0.0280
 7291TIP3    H146068   6.748   0.369  12.898 -2.8932 -0.0200 -0.0209
 7291TIP3    H246069   6.661   0.343  12.776  0.5451 -1.6681 -2.2571
 7292TIP3   OH246070   3.220   5.221  12.974  0.7598 -0.2729  0.3981
 7292TIP3    H146071   3.169   5.289  13.018 -1.7341 -2.1722  0.6881
 7292TIP3    H246072   3.257   5.264  12.897 -0.0551  1.5830  0.9910
 7293TIP3   OH246073   4.149   1.253  10.998 -0.1532 -0.2394 -0.0723
 7293TIP3    H146074   4.147   1.299  10.914 -1.6164 -2.1519 -1.1816
 7293TIP3    H246075   4.122   1.318  11.062 -1.0518  0.7440 -1.4061
 7294TIP3   OH246076   2.772   6.007  12.365  0.1029  0.5979 -0.6584
 7294TIP3    H146077   2.720   5.932  12.396 -0.9901  1.0064 -1.4369
 7294TIP3    H246078   2.860   5.971  12.354 -0.7893 -1.1427 -2.9248
 7295TIP3   OH246079   0.299   7.635  11.722 -0.1398  0.6241 -0.2209
 7295TIP3    H146080   0.376   7.641  11.666 -0.5898  0.9087 -0.8179
 7295TIP3    H246081   0.307   7.710  11.782 -1.5044  2.5733 -2.2884
 7296TIP3   OH246082   5.465   7.526  13.091 -0.5947  0.0836 -0.1349
 7296TIP3    H146083   5.482   7.586  13.164 -0.5335 -0.5423  0.3720
 7296TIP3    H246084   5.388   7.477  13.118 -0.1067 -0.7025 -0.1235
 7297TIP3   OH246085   0.333   3.532  12.040  0.4714 -0.2276  0.5979
 7297TIP3    H146086   0.414   3.524  11.990  2.2123  0.8932  3.0350
 7297TIP3    H246087   0.304   3.622  12.025  2.0796  0.7670  2.9774
 7298TIP3   OH246088   1.950   4.307  12.302  0.3360  0.7500 -0.1115
 7298TIP3    H146089   1.866   4.303  12.347  0.5352  0.3545  0.2359
 7298TIP3    H246090   1.941   4.377  12.238 -0.9293 -0.5320 -1.4219
 7299TIP3   OH246091   6.310   6.696  12.525  0.9666  0.4933 -0.5572
 7299TIP3    H146092   6.344   6.726  12.609  0.1262 -2.5577  1.0013
 7299TIP3    H246093   6.219   6.724  12.524  0.3532 -1.2868  0.6201
 7300TIP3   OH246094   0.801   6.574  12.087  0.1652  0.1132 -0.1798
 7300TIP3    H146095   0.786   6.578  12.182 -0.2279  0.4487 -0.2548
 7300TIP3    H246096   0.864   6.644  12.070  0.1139  0.1581 -0.1865
 7301TIP3   OH246097   0.502   1.171  11.520  0.6045 -0.3938  0.3613
 7301TIP3    H146098   0.471   1.217  11.598  1.1227 -0.1913  0.4489
 7301TIP3    H246099   0.479   1.080  11.536  0.6075 -0.3378  0.7017
 7302TIP3   OH246100   4.280   5.156  10.604 -0.0873 -0.2509  0.3134
 7302TIP3    H146101   4.283   5.113  10.689 -0.4699  0.7483  0.8486
 7302TIP3    H246102   4.306   5.088  10.542 -3.7555 -2.3012  0.7036
 7303TIP3   OH246103   2.910   1.642  10.496 -0.5136 -0.0717  0.1588
 7303TIP3    H146104   2.915   1.604  10.408 -1.1821  1.0218 -0.3799
 7303TIP3    H246105   2.975   1.712  10.496 -1.7819  1.1546 -0.1286
 7304TIP3   OH246106   2.050   1.783  12.164 -0.3578 -0.0134  0.3283
 7304TIP3    H146107   1.975   1.825  12.207  1.0304  0.1037  2.8134
 7304TIP3    H246108   2.022   1.693  12.150 -1.5053  0.4116 -0.2786
 7305TIP3   OH246109   4.682   6.363  11.355 -0.7850  0.0307  0.3043
 7305TIP3    H146110   4.775   6.345  11.345 -1.2954 -2.2702 -1.1459
 7305TIP3    H246111   4.674   6.458  11.342  1.3242  0.3014  0.5987
 7306TIP3   OH246112   0.122   4.726  10.514 -0.0938  0.1288  0.3399
 7306TIP3    H146113   0.078   4.762  10.590  1.5869 -1.1194  1.9890
 7306TIP3    H246114   0.203   4.777  10.506  1.4506 -1.9367  1.6343
 7307TIP3   OH246115   3.120   0.794  11.306 -0.0105 -0.3614  0.6902
 7307TIP3    H146116   3.190   0.766  11.246 -0.2564  0.0340  0.2154
 7307TIP3    H246117   3.148   0.879  11.338 -0.8855  0.4165 -0.5280
 7308TIP3   OH246118   0.276   2.288  10.758  0.5173  0.3914 -0.3230
 7308TIP3    H146119   0.212   2.240  10.705  1.0928  1.3545 -1.9760
 7308TIP3    H246120   0.237   2.292  10.845 -1.4296  0.5070 -1.1479
 7309TIP3   OH246121   5.226   6.900  12.955 -0.2467 -0.5755 -0.9010
 7309TIP3    H146122   5.319   6.896  12.978  0.2586 -1.4795 -2.8914
 7309TIP3    H246123   5.200   6.991  12.975  0.8793 -0.4821  0.2528
 7310TIP3   OH246124   5.772   6.487  10.808 -0.5221  0.5648 -0.0580
 7310TIP3    H146125   5.745   6.501  10.899 -1.6732  0.3035 -0.3493
 7310TIP3    H246126   5.704   6.530  10.756  0.0324  0.5519 -0.8111
 7311TIP3   OH246127   7.573   5.856  11.415 -0.3145  0.5253  0.0092
 7311TIP3    H146128   7.650   5.822  11.369 -0.5819 -0.9472  0.5967
 7311TIP3    H246129   7.598   5.944  11.443  0.9400  0.2893 -0.3221
 7312TIP3   OH246130   4.574   4.904  12.295 -0.2640  0.4875  0.1902
 7312TIP3    H146131   4.543   4.842  12.360  3.6232 -1.9294  0.0400
 7312TIP3    H246132   4.566   4.858  12.211  2.1209  0.3043 -0.0026
 7313TIP3   OH246133   2.405   5.414  13.028 -0.4603  0.0699  0.5316
 7313TIP3    H146134   2.495   5.417  13.059 -0.6739 -2.2599  1.5536
 7313TIP3    H246135   2.353   5.445  13.102 -0.5933  0.2512  0.3663
 7314TIP3   OH246136   5.603   7.005  12.382 -0.1620 -0.1525  0.1006
 7314TIP3    H146137   5.668   6.976  12.318  0.9956 -0.9832  1.5921
 7314TIP3    H246138   5.604   7.101  12.375  2.2378 -0.0407  0.9644
 7315TIP3   OH246139   2.676   5.213  12.857  0.3597 -0.0904  0.4224
 7315TIP3    H146140   2.626   5.136  12.883  0.1719 -0.1410 -0.0689
 7315TIP3    H246141   2.661   5.276  12.928 -2.0720  0.6288 -0.6060
 7316TIP3   OH246142   3.677   1.027  11.057 -0.0072 -0.0910  0.0109
 7316TIP3    H146143   3.769   1.037  11.036 -0.1731  0.6322 -0.4002
 7316TIP3    H246144   3.637   0.997  10.975 -0.1462 -0.3436  0.1697
 7317TIP3   OH246145   4.715   3.226  12.124  0.3604 -0.2875  0.0524
 7317TIP3    H146146   4.695   3.309  12.169  1.5383  0.8829 -1.4651
 7317TIP3    H246147   4.705   3.247  12.031  2.3043 -1.3921 -0.4450
 7318TIP3   OH246148   3.641   4.316  11.662  0.3207  0.4929  0.3980
 7318TIP3    H146149   3.555   4.294  11.698  0.0624 -1.2614 -1.1058
 7318TIP3    H246150   3.625   4.330  11.569  1.5491  0.8702  0.2302
 7319TIP3   OH246151   2.227   2.219  12.775  0.9198  0.5352 -0.8136
 7319TIP3    H146152   2.248   2.169  12.696 -1.2227  1.1229 -1.8478
 7319TIP3    H246153   2.251   2.162  12.847  0.1251 -1.3066 -1.9332
 7320TIP3   OH246154   3.997   4.485  11.337  0.1110 -0.0298 -0.2399
 7320TIP3    H146155   3.984   4.563  11.391 -0.4458  0.1348 -0.6084
 7320TIP3    H246156   3.946   4.417  11.379  0.1435 -0.0521 -0.2358
 7321TIP3   OH246157   5.249   4.984  11.642 -0.2360  0.2272 -0.7288
 7321TIP3    H146158   5.340   5.012  11.642 -0.4873  1.2429  0.9289
 7321TIP3    H246159   5.251   4.895  11.677  0.4613 -1.5909 -4.8959
 7322TIP3   OH246160   3.663   3.887  12.527  0.1500 -0.2230 -0.5315
 7322TIP3    H146161   3.748   3.851  12.553  0.4411  0.4971 -0.4600
 7322TIP3    H246162   3.602   3.815  12.540  0.7269 -0.7020 -0.4315
 7323TIP3   OH246163   3.770   4.224  11.996  0.0519  0.6787  0.3284
 7323TIP3    H146164   3.686   4.189  11.967 -0.6992  2.6130  0.0280
 7323TIP3    H246165   3.827   4.214  11.919  0.3337 -1.1473  0.7061
 7324TIP3   OH246166   4.228   1.817  11.140  0.3977 -0.8368 -0.2424
 7324TIP3    H146167   4.277   1.767  11.074  0.5169 -1.2300  0.1330
 7324TIP3    H246168   4.294   1.873  11.181  0.3313 -0.6199 -0.4309
 7325TIP3   OH246169   2.258   0.060  11.923 -0.2070 -0.2983  0.2404
 7325TIP3    H146170   2.249   0.134  11.863 -0.5213  1.4064  2.2286
 7325TIP3    H246171   2.169   0.029  11.936 -0.0951 -0.9260 -0.4529
 7326TIP3   OH246172   5.099   3.123  10.513  0.2028  0.4309 -0.1597
 7326TIP3    H146173   5.028   3.186  10.516 -0.6444 -0.4995 -0.2665
 7326TIP3    H246174   5.172   3.167  10.557  0.5862  2.6451 -2.7391
 7327TIP3   OH246175   2.632   1.845  10.930 -0.0040  0.0392  0.9408
 7327TIP3    H146176   2.548   1.890  10.943  0.1114  0.1493  1.3056
 7327TIP3    H246177   2.610   1.772  10.871 -0.3948 -0.0465  1.1881
 7328TIP3   OH246178   2.849   0.585  12.128  0.3333 -0.0714  0.5980
 7328TIP3    H146179   2.776   0.644  12.108  1.5809  0.9327 -1.3177
 7328TIP3    H246180   2.836   0.509  12.071  2.6180  1.7390 -2.6619
 7329TIP3   OH246181   1.681   6.935  11.360  0.0287 -0.0882  0.0261
 7329TIP3    H146182   1.727   6.999  11.414 -1.0975 -0.8482  2.0104
 7329TIP3    H246183   1.706   6.850  11.397 -0.2124 -0.6793 -1.1248
 7330TIP3   OH246184   0.306   4.932  11.713 -0.3623  0.0546 -0.0860
 7330TIP3    H146185   0.265   4.856  11.673  1.5586 -1.3514  0.4605
 7330TIP3    H246186   0.289   4.921  11.807  3.1530 -1.9643  0.4923
 7331TIP3   OH246187   7.118   5.865  11.726 -0.0462 -0.4682 -0.4110
 7331TIP3    H146188   7.201   5.820  11.737 -0.0337 -0.6514 -1.2370
 7331TIP3    H246189   7.136   5.935  11.664 -0.4701 -0.4031 -0.4662
 7332TIP3   OH246190   6.100   5.308  12.307  0.5339 -0.2069 -0.2917
 7332TIP3    H146191   6.021   5.267  12.273  0.2105  0.0687  0.1165
 7332TIP3    H246192   6.159   5.313  12.231  0.0157 -0.0563 -0.6897
 7333TIP3   OH246193   4.923   3.258  11.310 -0.6729 -0.0578  0.1422
 7333TIP3    H146194   4.859   3.261  11.381 -0.2145 -0.6296  0.5984
 7333TIP3    H246195   5.005   3.283  11.351 -0.7120  1.3212 -0.5872
 7334TIP3   OH246196   6.155   0.801  13.071 -0.2716  0.6864  0.6720
 7334TIP3    H146197   6.145   0.711  13.101  0.8361  0.5234  0.5785
 7334TIP3    H246198   6.135   0.798  12.978 -1.1064  0.7040  0.8479
 7335TIP3   OH246199   6.403   3.569  12.219  0.0624  0.3760  0.6321
 7335TIP3    H146200   6.427   3.641  12.161  2.0408  0.8089  1.8924
 7335TIP3    H246201   6.381   3.497  12.159 -0.2736  1.4818 -0.6386
 7336TIP3   OH246202   1.071   1.967  11.632 -0.2794  0.4095  0.1895
 7336TIP3    H146203   1.151   1.919  11.610  0.9043  2.3719 -0.0362
 7336TIP3    H246204   1.076   1.979  11.727 -0.7344 -0.1787  0.2896
 7337TIP3   OH246205   3.544   7.051  11.775 -0.1231  0.7270  0.3882
 7337TIP3    H146206   3.601   7.125  11.796  0.2158  0.2305  1.2581
 7337TIP3    H246207   3.569   7.027  11.686  1.0237  0.5376  0.7401
 7338TIP3   OH246208   2.369   3.488  11.028  0.0699  0.2978 -0.4575
 7338TIP3    H146209   2.464   3.475  11.024 -0.1045 -1.9977  0.7703
 7338TIP3    H246210   2.333   3.399  11.025 -1.9464  0.9940  0.8025
 7339TIP3   OH246211   7.419   3.432  12.598 -0.2449  0.3825 -0.1643
 7339TIP3    H146212   7.489   3.431  12.533  0.0838  0.6224  0.1866
 7339TIP3    H246213   7.411   3.341  12.627 -1.9819 -0.2069 -2.2228
 7340TIP3   OH246214   6.845   6.484  12.721  0.0072  0.0545  0.7215
 7340TIP3    H146215   6.836   6.471  12.627  1.1650 -0.7069  0.6954
 7340TIP3    H246216   6.765   6.448  12.758 -0.5713  0.5850  0.0190
 7341TIP3   OH246217   3.547   3.219  10.290  0.0755 -0.0217  0.3897
 7341TIP3    H146218   3.504   3.280  10.350 -0.9857 -1.4356  1.1277
 7341TIP3    H246219   3.526   3.252  10.203 -1.0720  0.3105  0.7676
 7342TIP3   OH246220   4.458   0.260  12.296 -0.0780 -0.5510  0.0081
 7342TIP3    H146221   4.458   0.340  12.244  0.8867 -1.9341 -2.2708
 7342TIP3    H246222   4.401   0.200  12.249  1.7545 -2.2520 -0.1901
 7343TIP3   OH246223   5.046   7.261  12.498 -0.3879 -0.2858  0.1180
 7343TIP3    H146224   5.028   7.225  12.411 -0.6772 -1.9394  0.8364
 7343TIP3    H246225   4.961   7.293  12.528 -0.3136  0.1666 -0.1366
 7344TIP3   OH246226   7.364   2.766  12.886 -0.3700  0.8311  0.3371
 7344TIP3    H146227   7.385   2.678  12.854 -3.0334 -0.2450  1.2713
 7344TIP3    H246228   7.441   2.791  12.938  1.5625  0.2249 -2.0366
 7345TIP3   OH246229   2.317   0.955  11.451  0.0453  0.3365 -0.2289
 7345TIP3    H146230   2.400   1.001  11.467  0.3502 -0.6882  1.3645
 7345TIP3    H246231   2.310   0.893  11.524 -1.8893  0.0596 -0.6075
 7346TIP3   OH246232   3.002   3.423  10.965 -0.2564  0.3439  0.0895
 7346TIP3    H146233   3.024   3.514  10.945 -1.8347  0.7039 -0.1700
 7346TIP3    H246234   3.059   3.372  10.907  1.5286  1.0887  1.1092
 7347TIP3   OH246235   1.504   4.860  11.789 -0.0673 -0.0510  0.0009
 7347TIP3    H146236   1.465   4.863  11.702  3.1729 -2.8044 -1.8306
 7347TIP3    H246237   1.566   4.933  11.790  1.1028 -1.0048 -0.7505
 7348TIP3   OH246238   5.044   1.022  12.928  0.4960 -0.3224 -0.0806
 7348TIP3    H146239   5.034   1.028  13.023  0.6935 -2.2090  0.1014
 7348TIP3    H246240   4.964   0.976  12.899  0.5718 -0.0159 -0.7888
 7349TIP3   OH246241   3.880   1.693  10.777  0.2606 -0.0138 -0.1310
 7349TIP3    H146242   3.911   1.730  10.860  1.5409  1.6354 -1.3015
 7349TIP3    H246243   3.888   1.598  10.789  1.6042  0.2337  1.1967
 7350TIP3   OH246244   1.771   5.554  13.304 -0.9485 -0.3551  0.4547
 7350TIP3    H146245   1.856   5.536  13.345 -1.0696 -2.2092 -0.0204
 7350TIP3    H246246   1.717   5.590  13.375  0.4018  1.5726  0.5890
 7351TIP3   OH246247   0.870   1.438  13.353 -0.0454 -0.6916  0.5000
 7351TIP3    H146248   0.919   1.358  13.370 -0.1057 -0.7334  0.4789
 7351TIP3    H246249   0.808   1.444  13.426  1.0937  0.2388  1.4372
 7352TIP3   OH246250   5.824   1.399  11.636  0.0302  0.4739 -0.2035
 7352TIP3    H146251   5.851   1.307  11.634  0.2580  0.5414 -0.2721
 7352TIP3    H246252   5.728   1.396  11.634  0.0410  0.2431 -0.4101
 7353TIP3   OH246253   6.085   6.704  11.561 -0.3206 -0.2500  0.3808
 7353TIP3    H146254   6.160   6.675  11.509 -0.2581  0.4830  0.0587
 7353TIP3    H246255   6.119   6.776  11.615 -1.7223  3.2366 -2.9230
 7354TIP3   OH246256   6.239   5.632  12.183  0.3192  0.5673 -0.1525
 7354TIP3    H146257   6.196   5.698  12.236  0.4199 -0.6988  1.5846
 7354TIP3    H246258   6.188   5.630  12.101 -0.1573  2.1890  0.0721
 7355TIP3   OH246259   7.574   1.629  11.111 -0.2356  0.4873 -0.0520
 7355TIP3    H146260   7.483   1.648  11.091  0.2991  3.0108 -0.4928
 7355TIP3    H246261   7.573   1.596  11.201 -1.6604 -0.7921 -0.4974
 7356TIP3   OH246262   2.617   4.083  11.502 -0.0250  0.1374 -0.3537
 7356TIP3    H146263   2.694   4.102  11.555 -0.1303  1.0187 -0.5026
 7356TIP3    H246264   2.545   4.076  11.565  0.0528  0.0017 -0.2792
 7357TIP3   OH246265   4.504   6.068  12.410  0.7587  0.4687 -0.2031
 7357TIP3    H146266   4.502   6.095  12.318  1.6516 -0.0367 -0.3865
 7357TIP3    H246267   4.527   6.148  12.457  1.0702  0.5575 -0.4999
 7358TIP3   OH246268   0.071   2.809  10.729  0.2688 -0.0518 -0.6651
 7358TIP3    H146269   0.067   2.830  10.822  2.9276  0.2915 -0.5604
 7358TIP3    H246270   0.117   2.883  10.689 -2.3614  0.7032 -2.6408
 7359TIP3   OH246271   2.184   7.147  12.002  0.0358  0.3722  0.0450
 7359TIP3    H146272   2.224   7.228  12.034  0.5844 -0.2517  1.0062
 7359TIP3    H246273   2.134   7.114  12.076  0.4671 -0.5739 -0.0706
 7360TIP3   OH246274   5.751   4.537  11.543 -0.5784  0.1515  0.2496
 7360TIP3    H146275   5.805   4.529  11.622  0.5954 -1.7434 -0.6864
 7360TIP3    H246276   5.733   4.447  11.517 -0.7413  0.7328 -1.7979
 7361TIP3   OH246277   5.076   2.310  10.455 -0.0528  0.0757  0.1117
 7361TIP3    H146278   5.024   2.364  10.396  0.1317  1.0982  0.8453
 7361TIP3    H246279   5.045   2.334  10.543  0.1592 -0.8871  0.4634
 7362TIP3   OH246280   3.105   1.053  10.624 -0.3529 -0.4430  0.0717
 7362TIP3    H146281   3.183   1.009  10.657 -1.3270 -1.3107  1.3107
 7362TIP3    H246282   3.134   1.142  10.605  0.9980 -0.8261  0.2296
 7363TIP3   OH246283   7.109   0.894  12.596  0.2900  0.7335 -0.4437
 7363TIP3    H146284   7.169   0.821  12.582  1.3502  1.4035  0.4561
 7363TIP3    H246285   7.062   0.872  12.676  0.5720  0.9960 -0.2017
 7364TIP3   OH246286   5.911   4.422  11.119  0.2644  0.2532  0.2037
 7364TIP3    H146287   5.899   4.480  11.194  1.2535  1.9156 -0.8408
 7364TIP3    H246288   5.985   4.461  11.071 -0.0543 -0.9986 -1.3863
 7365TIP3   OH246289   6.712   6.024  11.578 -0.1135 -0.0654  0.1959
 7365TIP3    H146290   6.722   5.962  11.505  1.4457  1.4028 -0.9262
 7365TIP3    H246291   6.620   6.018  11.602 -0.5484 -1.0299 -1.5117
 7366TIP3   OH246292   3.076   3.823  11.422  0.2218 -0.1332 -0.4263
 7366TIP3    H146293   3.135   3.897  11.434  0.6651 -0.3451 -1.1981
 7366TIP3    H246294   3.127   3.747  11.449 -0.1520 -0.1902  0.1420
 7367TIP3   OH246295   0.114   0.878  11.917 -0.0332  0.0017 -0.4604
 7367TIP3    H146296   0.176   0.950  11.905  1.5271 -0.6804  2.4470
 7367TIP3    H246297   0.159   0.801  11.881 -0.1039 -0.1177 -0.2972
 7368TIP3   OH246298   4.050   2.534  11.881  0.5688 -0.5864 -0.2388
 7368TIP3    H146299   4.062   2.591  11.957  0.0198 -1.4402  0.5054
 7368TIP3    H246300   4.079   2.587  11.807  0.7363  0.4040  0.5125
 7369TIP3   OH246301   2.114   1.146  10.934  0.0321  0.1511 -0.3247
 7369TIP3    H146302   2.132   1.237  10.957 -2.3379  0.7808 -0.7517
 7369TIP3    H246303   2.075   1.108  11.013 -3.0116  0.7894 -1.3948
 7370TIP3   OH246304   0.030   0.568  10.633  0.0077  0.8717 -0.0861
 7370TIP3    H146305   0.076   0.647  10.603 -0.2600  1.4948  1.0819
 7370TIP3    H246306   0.052   0.562  10.727 -1.0105  0.2815  0.1228
 7371TIP3   OH246307   5.169   5.709  12.696 -0.0114 -0.5242  0.3242
 7371TIP3    H146308   5.225   5.735  12.623 -2.5204  0.0958 -1.5268
 7371TIP3    H246309   5.166   5.786  12.753  2.2399 -1.1278  1.3238
 7372TIP3   OH246310   7.628   7.668  11.801  0.4233 -0.2696  0.8490
 7372TIP3    H146311   7.722   7.672  11.816  0.3013 -0.0400  1.5661
 7372TIP3    H246312   7.599   7.759  11.808  0.1729 -0.3167  0.4595
 7373TIP3   OH246313   2.878   0.573  11.161  0.5610 -0.3164  0.2752
 7373TIP3    H146314   2.838   0.546  11.078  0.6591 -0.7331  0.3624
 7373TIP3    H246315   2.803   0.595  11.217  0.3850 -1.9779  0.7459
 7374TIP3   OH246316   5.415   1.317  11.991 -0.2063 -0.4910  0.3196
 7374TIP3    H146317   5.354   1.262  12.039 -0.2466  1.1668  2.3119
 7374TIP3    H246318   5.371   1.402  11.984  0.5569 -0.1738 -1.1100
 7375TIP3   OH246319   5.141   0.728  12.167 -0.2085  0.2240  0.5136
 7375TIP3    H146320   5.184   0.731  12.253 -0.7451  0.4780  0.7834
 7375TIP3    H246321   5.130   0.820  12.143 -1.0389  0.1828  0.6858
 7376TIP3   OH246322   3.011   0.179  11.356  0.0625 -0.6526  0.0542
 7376TIP3    H146323   2.981   0.179  11.446 -2.5138  0.3572 -0.7134
 7376TIP3    H246324   3.094   0.226  11.358 -0.3331  0.0372  1.7763
 7377TIP3   OH246325   3.868   3.788  12.949 -0.6417 -0.1575  0.1101
 7377TIP3    H146326   3.927   3.863  12.942  0.1335 -0.7664  0.0721
 7377TIP3    H246327   3.780   3.826  12.944 -0.2461  0.6193 -1.1369
 7378TIP3   OH246328   6.867   1.112  10.322  0.2684 -0.1426  0.1222
 7378TIP3    H146329   6.797   1.129  10.259 -0.5720  0.8390  1.2778
 7378TIP3    H246330   6.941   1.164  10.289  0.0778 -0.2301 -0.4595
 7379TIP3   OH246331   5.351   7.437  11.147 -0.1964  0.1669  0.3993
 7379TIP3    H146332   5.334   7.410  11.237 -0.8551  0.6734  0.4413
 7379TIP3    H246333   5.271   7.483  11.121 -0.6458 -1.3076 -0.9798
 7380TIP3   OH246334   5.257   5.395  10.787 -0.3649  0.1733  0.5894
 7380TIP3    H146335   5.311   5.474  10.786  0.2598 -0.2262 -1.4174
 7380TIP3    H246336   5.313   5.328  10.827  0.0219  0.1646  0.0407
 7381TIP3   OH246337   2.293   5.024  11.740 -0.0775 -0.0500 -0.5903
 7381TIP3    H146338   2.377   5.071  11.732  0.3916 -0.8631 -0.4951
 7381TIP3    H246339   2.262   5.047  11.828  0.9987 -1.2658  0.1399
 7382TIP3   OH246340   5.960   6.479  11.699 -0.0112  0.5995  0.5944
 7382TIP3    H146341   5.932   6.525  11.778 -2.8144  0.1826 -0.0468
 7382TIP3    H246342   6.021   6.540  11.657 -0.4193  1.9089  1.8132
 7383TIP3   OH246343   4.518   5.793  12.357 -0.3134  0.3188 -0.7197
 7383TIP3    H146344   4.433   5.778  12.398 -0.7961  1.4457 -1.2689
 7383TIP3    H246345   4.535   5.886  12.370 -0.2071  0.5862 -2.5190
 7384TIP3   OH246346   2.929   1.159  11.600 -0.3672 -0.1236 -0.1455
 7384TIP3    H146347   2.867   1.087  11.595  0.7889 -1.1700  0.2056
 7384TIP3    H246348   2.874   1.238  11.601 -1.7219 -1.0422  0.8802
 7385TIP3   OH246349   2.488   1.371  12.487  0.0522  0.0405  0.1538
 7385TIP3    H146350   2.520   1.461  12.487  1.0197 -0.2584  1.3962
 7385TIP3    H246351   2.546   1.326  12.549  0.4381 -1.7455 -1.4245
 7386TIP3   OH246352   6.695   7.636  11.015  0.6479  0.2640 -0.1817
 7386TIP3    H146353   6.753   7.563  11.035  0.4079 -0.1501 -0.9474
 7386TIP3    H246354   6.664   7.618  10.926  1.8924  2.1318 -1.0650
 7387TIP3   OH246355   3.091   6.851  12.599 -0.0875 -0.4102 -0.4499
 7387TIP3    H146356   3.127   6.817  12.517 -1.2368  0.1173 -1.2085
 7387TIP3    H246357   3.097   6.946  12.590  0.6896 -0.3587  0.5151
 7388TIP3   OH246358   7.090   2.831  12.872  0.4741  0.0737 -0.6888
 7388TIP3    H146359   7.053   2.886  12.942 -0.1474 -1.2395  0.0582
 7388TIP3    H246360   7.185   2.836  12.885  0.4240  0.8678 -0.5668
 7389TIP3   OH246361   5.467   5.321  12.296 -0.0292 -0.0596 -0.8519
 7389TIP3    H146362   5.522   5.256  12.340  0.9413 -0.6806 -2.8920
 7389TIP3    H246363   5.382   5.313  12.340  0.4624 -1.7132 -0.1042
 7390TIP3   OH246364   3.043   4.143  11.940  0.0393 -0.8326 -0.3174
 7390TIP3    H146365   2.996   4.072  11.986 -0.5686  0.2310  0.7766
 7390TIP3    H246366   2.976   4.210  11.925  0.7921 -0.1059 -0.5149
 7391TIP3   OH246367   0.787   2.542  12.857  0.1655 -0.5526 -0.0676
 7391TIP3    H146368   0.718   2.510  12.800  0.6938 -0.7383 -0.6216
 7391TIP3    H246369   0.750   2.539  12.945 -0.7992  0.1045 -0.4332
 7392TIP3   OH246370   6.681   4.441  12.580 -0.1250 -0.5373  0.1220
 7392TIP3    H146371   6.743   4.375  12.549  0.0047 -0.2353 -0.2715
 7392TIP3    H246372   6.606   4.432  12.521 -0.4262 -0.8460  0.5452
 7393TIP3   OH246373   4.908   4.744  12.364 -0.5778 -0.5732 -0.1926
 7393TIP3    H146374   4.986   4.744  12.419 -0.8070  0.7343  0.1594
 7393TIP3    H246375   4.863   4.826  12.385 -1.5733 -0.8732 -1.0532
 7394TIP3   OH246376   3.247   4.743  11.493 -0.0542 -0.1865 -0.1033
 7394TIP3    H146377   3.220   4.716  11.405 -0.8852  0.2820  0.0019
 7394TIP3    H246378   3.202   4.826  11.508 -0.9219 -0.8686  1.2660
 7395TIP3   OH246379   2.482   1.877  12.502  0.0669 -0.2477  0.0008
 7395TIP3    H146380   2.424   1.876  12.578  0.7069 -0.7900  0.4973
 7395TIP3    H246381   2.423   1.870  12.427 -0.6457  1.1973  0.3873
 7396TIP3   OH246382   3.311   5.677  12.916  0.8818 -0.1531  0.0218
 7396TIP3    H146383   3.228   5.703  12.955  0.2372 -0.9811 -0.7782
 7396TIP3    H246384   3.357   5.632  12.987 -0.1948 -1.4541 -0.0752
 7397TIP3   OH246385   5.399   6.853  11.524 -0.3517  0.1237 -0.3989
 7397TIP3    H146386   5.317   6.898  11.542  0.2672  0.4638  1.8242
 7397TIP3    H246387   5.417   6.801  11.602  0.7533 -1.2210 -1.4879
 7398TIP3   OH246388   3.522   7.582  11.652  0.1313 -0.1591 -0.4451
 7398TIP3    H146389   3.446   7.638  11.670  0.6594  0.9103 -1.4371
 7398TIP3    H246390   3.596   7.630  11.688  0.8600  0.8016 -3.0159
 7399TIP3   OH246391   3.310   6.537  11.120  0.3222 -0.3228 -0.1205
 7399TIP3    H146392   3.398   6.548  11.156  0.6365  0.7662 -1.1638
 7399TIP3    H246393   3.293   6.617  11.071 -1.7991  0.0984  1.1484
 7400TIP3   OH246394   5.358   4.081  11.666 -0.0407 -0.0047  0.1937
 7400TIP3    H146395   5.378   4.174  11.656 -0.1694  0.0406  0.3638
 7400TIP3    H246396   5.264   4.078  11.682  0.1510 -0.0769  1.3964
 7401TIP3   OH246397   2.561   7.421  11.606 -0.4323  0.0595 -0.3576
 7401TIP3    H146398   2.636   7.376  11.568 -0.7717 -1.9547  1.1678
 7401TIP3    H246399   2.485   7.380  11.563 -0.7388 -0.7096  0.8633
 7402TIP3   OH246400   0.980   1.682  12.575  0.5861 -0.6544 -0.1464
 7402TIP3    H146401   0.893   1.650  12.599  0.3156  0.2832  0.1933
 7402TIP3    H246402   1.031   1.677  12.655  0.5132 -0.1718 -0.0650
 7403TIP3   OH246403   3.689   6.078  11.658 -0.2954  0.3734 -0.0631
 7403TIP3    H146404   3.660   6.165  11.630  0.0087 -0.3182 -2.8354
 7403TIP3    H246405   3.680   6.023  11.579  1.8238 -1.5300  0.9075
 7404TIP3   OH246406   5.948   2.256  12.726  0.0385 -0.7420 -0.8423
 7404TIP3    H146407   5.881   2.264  12.794 -0.5301  0.6143 -1.5188
 7404TIP3    H246408   5.939   2.167  12.693 -2.9396  0.0051 -2.3890
 7405TIP3   OH246409   6.133   5.516  12.517 -0.1213 -0.1730 -0.1876
 7405TIP3    H146410   6.106   5.456  12.448  1.1934 -0.7722 -0.2076
 7405TIP3    H246411   6.156   5.597  12.471 -2.8839  0.7834 -0.0733
 7406TIP3   OH246412   3.523   3.658  12.029  0.0635 -0.2958 -0.2380
 7406TIP3    H146413   3.592   3.625  11.971 -0.7972 -1.3067 -0.7051
 7406TIP3    H246414   3.500   3.583  12.084  0.2152  0.3941  0.7945
 7407TIP3   OH246415   7.061   2.907  10.644  0.4154 -0.3362 -0.0213
 7407TIP3    H146416   7.014   2.911  10.561  1.5102  1.7545 -0.6274
 7407TIP3    H246417   7.059   2.997  10.676  1.4212 -0.7955  1.4152
 7408TIP3   OH246418   0.680   2.122  12.219 -0.0909  0.2712 -0.4827
 7408TIP3    H146419   0.753   2.149  12.274 -1.3219 -0.1325  1.4459
 7408TIP3    H246420   0.658   2.200  12.168  1.2118  0.5939 -0.5928
 7409TIP3   OH246421   5.379   0.664  11.331 -0.3147 -0.5143  0.3146
 7409TIP3    H146422   5.316   0.736  11.334  0.5627  0.2386  1.3964
 7409TIP3    H246423   5.459   0.702  11.297 -0.6464 -1.6802 -1.9379
 7410TIP3   OH246424   5.273   4.707  11.716  0.0819  0.0843 -0.1570
 7410TIP3    H146425   5.319   4.762  11.780 -1.1231  0.3340  0.5210
 7410TIP3    H246426   5.343   4.657  11.674  1.0042  0.6352  0.6588
 7411TIP3   OH246427   2.057   1.286  10.562  0.1122  0.1204  0.0469
 7411TIP3    H146428   1.983   1.261  10.618  1.4042  0.1459  1.8435
 7411TIP3    H246429   2.116   1.211  10.566  0.8768  0.7031 -0.1201
 7412TIP3   OH246430   4.611   6.173  10.773 -0.3449 -0.5009 -0.0752
 7412TIP3    H146431   4.529   6.203  10.811  0.4290  0.3675  0.9670
 7412TIP3    H246432   4.626   6.231  10.699  0.8130  1.3937  1.5406
 7413TIP3   OH246433   5.505   2.249  11.902 -0.2823 -0.4829 -0.2240
 7413TIP3    H146434   5.535   2.304  11.830 -3.4365  1.1912 -0.4409
 7413TIP3    H246435   5.511   2.305  11.980  0.1524 -1.2073  0.2737
 7414TIP3   OH246436   3.301   2.792  11.942 -0.4058  0.2505  0.0832
 7414TIP3    H146437   3.285   2.786  11.848 -1.8838  1.1907  0.2414
 7414TIP3    H246438   3.296   2.701  11.974  1.0504 -0.1906 -0.8433
 7415TIP3   OH246439   1.290   6.281  12.160 -0.0128  0.6862  0.5134
 7415TIP3    H146440   1.342   6.211  12.200 -2.1873 -1.2440  0.1673
 7415TIP3    H246441   1.223   6.301  12.226  0.0429  1.8285  0.2365
 7416TIP3   OH246442   1.512   7.299  12.790  0.1769 -0.0702  0.2336
 7416TIP3    H146443   1.459   7.361  12.741  1.0339  0.6557  0.1994
 7416TIP3    H246444   1.531   7.344  12.873  0.2453 -0.5544  0.4851
 7417TIP3   OH246445   3.932   3.656  10.766 -0.0616  0.2574 -0.2243
 7417TIP3    H146446   3.977   3.668  10.849 -0.4191  0.2128 -0.0233
 7417TIP3    H246447   3.927   3.743  10.727 -1.4257  0.5716  0.5957
 7418TIP3   OH246448   3.722   0.092  11.737 -0.0621  0.7029 -0.5385
 7418TIP3    H146449   3.711   0.169  11.681 -2.1641  0.8945  0.0560
 7418TIP3    H246450   3.709   0.126  11.826 -1.3123 -0.3550 -0.2897
 7419TIP3   OH246451   7.258   3.636  11.914  0.0640  0.3763 -0.3929
 7419TIP3    H146452   7.278   3.643  11.820 -3.4814  1.6609 -1.1976
 7419TIP3    H246453   7.210   3.554  11.922  1.0502 -0.1417  0.5220
 7420TIP3   OH246454   7.450   0.412  11.667 -0.2687 -0.0973  0.0226
 7420TIP3    H146455   7.399   0.487  11.698  0.0017 -0.2029  0.7497
 7420TIP3    H246456   7.514   0.450  11.607  0.2853  0.3608  0.8717
 7421TIP3   OH246457   6.761   2.733  11.089  0.0163 -0.4945 -0.0730
 7421TIP3    H146458   6.758   2.716  10.995 -1.4737 -0.3266 -0.0849
 7421TIP3    H246459   6.847   2.771  11.104  0.9289 -2.0491 -1.0958
 7422TIP3   OH246460   3.893   6.401  11.574  0.3457  0.1825  0.6145
 7422TIP3    H146461   3.906   6.440  11.488 -1.3346  1.9736  1.1038
 7422TIP3    H246462   3.935   6.462  11.635  0.4942 -0.4527  1.1641
 7423TIP3   OH246463   0.727   7.539  11.125  0.2900  0.8094  0.0059
 7423TIP3    H146464   0.681   7.458  11.099  0.2647  0.3891  1.3082
 7423TIP3    H246465   0.680   7.608  11.079 -1.3915  0.3337  0.9157
 7424TIP3   OH246466   1.076   7.416  12.489 -0.6379 -0.2769 -0.4450
 7424TIP3    H146467   1.076   7.323  12.509 -2.9986  0.0546  1.7145
 7424TIP3    H246468   0.991   7.432  12.448 -0.6240  1.0317 -0.0290
 7425TIP3   OH246469   7.176   4.682  10.897 -0.4492  0.6420  0.2189
 7425TIP3    H146470   7.252   4.635  10.929 -1.3170 -0.8844  0.1348
 7425TIP3    H246471   7.176   4.764  10.946  0.5191  0.1011  1.1664
 7426TIP3   OH246472   1.736   3.660  10.895 -0.4511  0.1023 -0.8144
 7426TIP3    H146473   1.665   3.716  10.928 -0.1354  0.1419 -0.1821
 7426TIP3    H246474   1.693   3.580  10.868 -0.5487 -0.6836  1.4511
 7427TIP3   OH246475   0.163   6.314  12.636 -0.2755 -0.6355 -0.0965
 7427TIP3    H146476   0.148   6.395  12.686 -1.0364 -1.1994  0.6278
 7427TIP3    H246477   0.180   6.344  12.547 -1.5174  0.2942 -0.0583
 7428TIP3   OH246478   1.873   0.735  10.989  0.1984  0.3335 -0.4055
 7428TIP3    H146479   1.922   0.809  11.025 -1.0470  0.3352  1.4378
 7428TIP3    H246480   1.940   0.671  10.966  1.1811  1.1665  0.0512
 7429TIP3   OH246481   1.847   3.967  11.732 -0.1714 -0.8107  0.4988
 7429TIP3    H146482   1.881   4.048  11.770  2.2811 -1.2456 -0.5869
 7429TIP3    H246483   1.824   3.913  11.808  0.1989  0.0864  1.2685
 7430TIP3   OH246484   2.561   3.170  10.541 -0.1749 -0.0918  0.0131
 7430TIP3    H146485   2.473   3.205  10.552  0.4424  1.0846  1.7324
 7430TIP3    H246486   2.598   3.169  10.630  1.5761 -0.4075 -0.6692
 7431TIP3   OH246487   3.980   5.976  11.416  0.0242 -0.6475 -0.1789
 7431TIP3    H146488   4.021   6.058  11.389  0.1016 -1.0584 -1.3615
 7431TIP3    H246489   3.894   5.976  11.375  1.0925 -2.4239 -2.6915
 7432TIP3   OH246490   6.557   5.683  10.675 -0.0930  0.5955  0.3703
 7432TIP3    H146491   6.566   5.732  10.757  1.3361  1.7900 -0.4607
 7432TIP3    H246492   6.645   5.652  10.656 -0.2348  1.1156 -1.1972
 7433TIP3   OH246493   4.090   6.787  10.817 -0.1295  0.1711  0.1021
 7433TIP3    H146494   4.185   6.786  10.821 -0.1613 -1.0332  0.9614
 7433TIP3    H246495   4.068   6.876  10.789  1.2000  0.8640  1.1405
 7434TIP3   OH246496   5.324   4.029  10.858  0.3541  0.7360 -0.3628
 7434TIP3    H146497   5.407   4.077  10.855  2.9187 -3.2846 -0.4684
 7434TIP3    H246498   5.309   4.002  10.767  0.1436 -0.4033 -0.0025
 7435TIP3   OH246499   4.842   2.134  11.190  0.2145 -0.6090 -0.0829
 7435TIP3    H146500   4.814   2.148  11.099  1.1019 -1.3586 -0.4899
 7435TIP3    H246501   4.845   2.222  11.227 -1.3384 -0.3808 -0.3963
 7436TIP3   OH246502   6.325   4.985  12.482  0.0128  0.8028  0.2206
 7436TIP3    H146503   6.391   4.948  12.423  1.3782  1.3033  1.3749
 7436TIP3    H246504   6.347   5.078  12.488 -1.6696  1.2897 -0.4443
 7437TIP3   OH246505   3.917   1.575  12.058 -0.2017  0.5063 -0.4976
 7437TIP3    H146506   3.874   1.491  12.071 -1.5116  1.0607 -1.0289
 7437TIP3    H246507   3.945   1.602  12.146 -2.8495  1.0816  0.2499
 7438TIP3   OH246508   5.292   3.061  10.104 -0.2691  0.6305  0.1512
 7438TIP3    H146509   5.197   3.064  10.092 -0.4525  3.5359  1.4411
 7438TIP3    H246510   5.320   3.151  10.089  2.4990 -0.3921 -1.4037
 7439TIP3   OH246511   1.800   0.659  11.281  0.1084  0.6734 -0.0864
 7439TIP3    H146512   1.779   0.572  11.248 -0.7966  1.2289 -1.0581
 7439TIP3    H246513   1.895   0.660  11.291  0.5270  0.6147 -3.2232
 7440TIP3   OH246514   1.654   5.602  11.401 -0.5437 -0.3808  0.2855
 7440TIP3    H146515   1.707   5.524  11.383 -1.2523 -0.8604  0.2031
 7440TIP3    H246516   1.586   5.570  11.461 -1.3886 -0.0320 -0.4758
 7441TIP3   OH246517   4.147   0.128  13.130 -0.0890 -0.4481 -0.6627
 7441TIP3    H146518   4.089   0.178  13.072  0.9159  0.4199 -0.9693
 7441TIP3    H246519   4.215   0.094  13.071  0.7861  0.2019 -0.0530
 7442TIP3   OH246520   4.511   4.338  10.822  0.1692 -0.3213  0.3693
 7442TIP3    H146521   4.464   4.421  10.826 -0.2872 -0.4578 -1.3985
 7442TIP3    H246522   4.579   4.346  10.889 -0.1627  1.2745  0.5597
 7443TIP3   OH246523   2.451   4.411  13.131  0.4586 -0.3930 -0.1787
 7443TIP3    H146524   2.357   4.429  13.142  0.8068  0.2765  2.4341
 7443TIP3    H246525   2.487   4.493  13.098  0.6107  0.6698  2.4290
 7444TIP3   OH246526   5.193   5.448  12.821 -0.5197  0.1793 -0.1985
 7444TIP3    H146527   5.203   5.536  12.785  1.0844 -0.1621 -0.6927
 7444TIP3    H246528   5.278   5.429  12.861 -1.2771 -0.6420  1.0943
 7445TIP3   OH246529   4.710   4.256  12.179  0.3485 -0.1288  0.2170
 7445TIP3    H146530   4.762   4.231  12.255  0.8664  2.4565  0.8044
 7445TIP3    H246531   4.758   4.330  12.141 -1.4301  0.5047 -0.9069
 7446TIP3   OH246532   0.893   5.047  12.354 -0.5933 -0.0698  0.3648
 7446TIP3    H146533   0.919   5.132  12.389 -1.4105 -0.0545  0.9654
 7446TIP3    H246534   0.904   4.986  12.427 -2.2588 -0.0473  0.6735
 7447TIP3   OH246535   1.702   4.549  11.688  0.5817 -0.5440  0.3483
 7447TIP3    H146536   1.727   4.641  11.688  2.4187 -0.9766 -1.0351
 7447TIP3    H246537   1.716   4.521  11.597  1.2334 -2.4714  1.0030
 7448TIP3   OH246538   0.785   5.358  12.351 -0.0381  0.5934  0.3435
 7448TIP3    H146539   0.702   5.348  12.398  1.0081 -1.5408  1.8866
 7448TIP3    H246540   0.836   5.418  12.406 -0.2626  1.3046 -0.2122
 7449TIP3   OH246541   1.017   1.045  10.815 -0.1306  0.1169 -0.0394
 7449TIP3    H146542   1.031   0.957  10.781 -0.7831 -0.4699  1.1761
 7449TIP3    H246543   0.937   1.075  10.771 -0.8879 -0.5818  0.8301
 7450TIP3   OH246544   3.456   0.603  13.108 -0.1316  0.2648 -0.1974
 7450TIP3    H146545   3.366   0.602  13.077 -0.2797 -0.8798  0.2254
 7450TIP3    H246546   3.478   0.511  13.121  1.4270  0.4585 -1.2151
 7451TIP3   OH246547   1.719   1.234  12.883 -0.1801 -0.5379 -0.0469
 7451TIP3    H146548   1.765   1.150  12.879 -0.6120 -0.7406 -0.9566
 7451TIP3    H246549   1.768   1.285  12.948  2.2910 -0.1831 -2.0175
 7452TIP3   OH246550   2.510   0.855  12.704 -0.1624 -0.7556 -0.4976
 7452TIP3    H146551   2.601   0.880  12.688 -0.2107 -0.0811  0.2151
 7452TIP3    H246552   2.482   0.911  12.776 -1.1326 -0.9919 -0.6746
 7453TIP3   OH246553   1.737   1.714  12.107 -0.2571 -0.2577 -0.8217
 7453TIP3    H146554   1.742   1.797  12.155 -0.3289 -0.3289 -0.6911
 7453TIP3    H246555   1.769   1.736  12.019  4.8032 -1.1396  0.4762
 7454TIP3   OH246556   5.222   6.027  13.258 -0.7502 -0.1425  0.3430
 7454TIP3    H146557   5.142   6.018  13.309 -0.9359 -1.5503 -0.1447
 7454TIP3    H246558   5.211   6.109  13.209 -0.4360  1.4081  2.7044
 7455TIP3   OH246559   4.126   2.780  11.361 -0.2571  0.0210  0.7254
 7455TIP3    H146560   4.136   2.692  11.325 -1.3893 -0.5321  1.6959
 7455TIP3    H246561   4.195   2.831  11.319 -1.4918 -0.5430 -2.2447
 7456TIP3   OH246562   2.240   0.250  12.731 -0.0610 -0.1251 -0.5783
 7456TIP3    H146563   2.306   0.310  12.766  0.6232 -1.0795 -0.1847
 7456TIP3    H246564   2.257   0.249  12.637  0.7290 -0.6259 -0.4417
 7457TIP3   OH246565   2.119   3.175  12.253  0.2918 -0.0751  0.8016
 7457TIP3    H146566   2.169   3.151  12.175 -0.7936  0.4803 -0.1139
 7457TIP3    H246567   2.179   3.227  12.306  1.2402 -0.9747  0.6343
 7458TIP3   OH246568   3.199   4.063  11.404  0.2888  0.0572 -0.1386
 7458TIP3    H146569   3.238   4.148  11.385  1.4258 -0.6721 -1.2889
 7458TIP3    H246570   3.113   4.065  11.363 -0.0400  0.9373  0.5710
 7459TIP3   OH246571   7.244   0.402  11.973  1.0168  0.1017  0.5055
 7459TIP3    H146572   7.323   0.347  11.975  0.4495 -0.8192 -0.6583
 7459TIP3    H246573   7.191   0.364  11.903 -0.8064  0.2285  1.7572
 7460TIP3   OH246574   3.127   4.957  13.077 -0.3856 -0.7337  0.4963
 7460TIP3    H146575   3.035   4.979  13.070 -0.7768 -2.4032 -0.1272
 7460TIP3    H246576   3.173   5.029  13.034 -1.2782  0.6683  1.7821
 7461TIP3   OH246577   0.353   6.809  12.478  0.1529  0.2481  0.2096
 7461TIP3    H146578   0.347   6.847  12.565  0.0448  0.6426  0.0336
 7461TIP3    H246579   0.440   6.833  12.447 -0.2268  1.1165 -0.2419
 7462TIP3   OH246580   0.706   2.946  11.076 -0.1748  0.0353 -0.0313
 7462TIP3    H146581   0.721   2.986  10.990 -0.8162 -0.6961 -0.4933
 7462TIP3    H246582   0.790   2.907  11.099 -0.4258 -1.2195 -1.1101
 7463TIP3   OH246583   3.771   5.324  12.049  0.0459 -0.4129 -0.6878
 7463TIP3    H146584   3.741   5.358  12.134  1.9420 -0.0509 -0.1171
 7463TIP3    H246585   3.867   5.328  12.054  0.2048 -0.5989 -2.7783
 7464TIP3   OH246586   7.106   5.590  12.600 -0.4003  0.6920  0.3121
 7464TIP3    H146587   7.156   5.650  12.654  0.5197 -0.4341  0.7489
 7464TIP3    H246588   7.157   5.583  12.519  0.8509 -1.3704  1.2087
 7465TIP3   OH246589   4.220   2.495   9.991 -0.0054 -0.5083  0.5784
 7465TIP3    H146590   4.227   2.561   9.922  3.0145  0.1637  1.3789
 7465TIP3    H246591   4.151   2.528  10.049 -0.6950  0.2966 -0.6530
 7466TIP3   OH246592   6.189   3.508  10.415 -0.0311  0.1222  0.0646
 7466TIP3    H146593   6.269   3.458  10.427 -0.5467 -0.5164  0.9365
 7466TIP3    H246594   6.144   3.464  10.343 -0.3333 -0.4975  0.6196
 7467TIP3   OH246595   6.810   1.402  12.477 -0.0138  0.5311  0.8563
 7467TIP3    H146596   6.725   1.423  12.438  0.3095  0.1078 -0.1099
 7467TIP3    H246597   6.873   1.447  12.422  0.6433 -2.1417 -0.7457
 7468TIP3   OH246598   4.149   1.563  10.032  0.1205  0.0214  0.2910
 7468TIP3    H146599   4.209   1.530   9.966  0.4487 -0.5181  0.8465
 7468TIP3    H246600   4.205   1.594  10.103 -0.2212  0.7613  0.2449
 7469TIP3   OH246601   4.334   1.924  13.035 -0.4922  0.1264 -0.1357
 7469TIP3    H146602   4.412   1.979  13.042 -1.0045  0.7075  1.3759
 7469TIP3    H246603   4.304   1.937  12.945  2.2755 -1.7344 -1.4843
 7470TIP3   OH246604   4.678   2.669  12.948 -0.1907 -0.0556  0.4259
 7470TIP3    H146605   4.763   2.667  12.992  0.1395  0.2373 -0.1789
 7470TIP3    H246606   4.677   2.753  12.903  0.7040 -1.4322 -2.4427
 7471TIP3   OH246607   5.504   2.650  13.400  0.0077  0.5364 -0.3050
 7471TIP3    H146608   5.477   2.682  13.486  2.0948 -0.0392  0.6225
 7471TIP3    H246609   5.523   2.730  13.350 -0.6179  0.8590 -0.0420
 7472TIP3   OH246610   7.431   7.304  12.613 -0.1270 -0.0617  0.0126
 7472TIP3    H146611   7.478   7.388  12.615  1.2274 -0.8112  0.5556
 7472TIP3    H246612   7.404   7.294  12.521  0.4955  0.5384 -0.2434
 7473TIP3   OH246613   1.450   7.083  13.124  0.1505  0.4792  0.6586
 7473TIP3    H146614   1.372   7.068  13.071 -0.4877  0.4239  1.6018
 7473TIP3    H246615   1.475   7.174  13.106  0.8024  0.0411 -0.8326
 7474TIP3   OH246616   3.053   3.381  12.478  0.4003  0.1098  0.0174
 7474TIP3    H146617   3.041   3.326  12.401 -0.5078 -0.3620  0.4757
 7474TIP3    H246618   2.978   3.359  12.535  1.1107  0.3626  1.0769
 7475TIP3   OH246619   7.155   7.568  12.955  0.1345 -0.2787  0.0800
 7475TIP3    H146620   7.140   7.643  12.897  0.8696  1.7022  2.2511
 7475TIP3    H246621   7.162   7.607  13.042 -1.9015 -3.1672  1.7064
 7476TIP3   OH246622   0.978   0.864  11.578  0.1376 -0.0673 -0.4880
 7476TIP3    H146623   0.948   0.833  11.493  1.1628 -0.2349 -0.8044
 7476TIP3    H246624   0.964   0.959  11.575 -0.7465 -0.1871 -0.4512
 7477TIP3   OH246625   2.575   2.213  11.164  0.9071 -0.0423  0.0052
 7477TIP3    H146626   2.612   2.301  11.170  0.7435  0.1167 -0.9972
 7477TIP3    H246627   2.651   2.156  11.156  1.0257 -0.0342  1.0351
 7478TIP3   OH246628   3.859   5.046  12.581 -0.4906  0.2447  0.6024
 7478TIP3    H146629   3.870   5.113  12.649 -0.5145  0.0316  0.8172
 7478TIP3    H246630   3.894   4.966  12.620  0.7804  0.4124 -0.1396
 7479TIP3   OH246631   1.268   1.126  16.453  0.1614 -0.4213 -0.5242
 7479TIP3    H146632   1.184   1.156  16.419  0.7046  0.3000 -1.2606
 7479TIP3    H246633   1.284   1.183  16.529  0.3707 -0.0168 -0.8734
 7480TIP3   OH246634   7.510   2.542  12.552  0.1403 -0.0530  0.1494
 7480TIP3    H146635   7.497   2.549  12.457  2.3322  1.6162 -0.1138
 7480TIP3    H246636   7.487   2.451  12.573 -1.4073 -0.1580 -1.7728
 7481TIP3   OH246637   2.959   0.360  11.939  0.2409  0.2227 -0.3784
 7481TIP3    H146638   2.949   0.434  11.879 -1.5467  0.1572 -0.2148
 7481TIP3    H246639   2.875   0.315  11.934  0.5356 -0.5327  1.1938
 7482TIP3   OH246640   3.678   6.378  11.332  0.1838 -0.2074 -0.1730
 7482TIP3    H146641   3.756   6.433  11.323 -0.3412  0.4503 -0.7672
 7482TIP3    H246642   3.665   6.370  11.426  0.1817  0.8237 -0.0785
 7483TIP3   OH246643   1.538   7.666  11.441 -0.1240 -0.7647 -0.3440
 7483TIP3    H146644   1.568   7.711  11.362  1.6264  0.6138  1.0009
 7483TIP3    H246645   1.479   7.728  11.483 -0.1658 -1.0154 -0.0339
 7484TIP3   OH246646   3.567   2.601  12.851  0.7252 -0.0425 -0.8484
 7484TIP3    H146647   3.513   2.642  12.918  1.0094 -0.0561 -0.6066
 7484TIP3    H246648   3.574   2.509  12.879 -0.0289 -0.2927 -1.4631
 7485TIP3   OH246649   1.542   5.926  11.670  0.0112 -0.4020 -0.2590
 7485TIP3    H146650   1.632   5.916  11.637  0.0624  0.3548 -0.3892
 7485TIP3    H246651   1.511   5.837  11.685  0.3184 -0.7297 -1.4873
 7486TIP3   OH246652   7.583   2.118  11.562  0.6833 -0.7815  0.1440
 7486TIP3    H146653   7.493   2.144  11.577  0.3101 -1.3957 -0.9406
 7486TIP3    H246654   7.633   2.163  11.630 -0.4776 -0.7383  0.9845
 7487TIP3   OH246655   0.593   1.907  10.780 -0.2320  0.5537 -0.3461
 7487TIP3    H146656   0.552   1.830  10.739  0.9371 -0.3311  0.1093
 7487TIP3    H246657   0.556   1.909  10.868 -1.0874  1.1780 -0.7004
 7488TIP3   OH246658   1.412   1.653  10.949  0.2716  0.0067  0.0890
 7488TIP3    H146659   1.459   1.697  10.878  1.0840  0.6812  1.0142
 7488TIP3    H246660   1.411   1.560  10.924 -1.6022  0.4888 -1.9749
 7489TIP3   OH246661   4.167   1.132  12.345 -0.0987  0.1141  0.4472
 7489TIP3    H146662   4.079   1.152  12.312  0.2432 -2.3311 -2.4278
 7489TIP3    H246663   4.168   1.037  12.355  1.8080  0.2160  1.8722
 7490TIP3   OH246664   1.580   3.948  12.530 -0.5601  0.6490  0.0482
 7490TIP3    H146665   1.486   3.938  12.515 -0.7800 -1.5746  2.2174
 7490TIP3    H246666   1.603   3.874  12.587  2.3874  1.5077  0.1341
 7491TIP3   OH246667   3.701   1.208  11.860  0.2896 -0.7774  0.5677
 7491TIP3    H146668   3.674   1.217  11.769  0.4645  1.3567  0.6683
 7491TIP3    H246669   3.686   1.115  11.881 -0.3689 -1.1636 -1.4115
 7492TIP3   OH246670   5.272   4.110  11.283 -0.8855  0.2434 -0.1868
 7492TIP3    H146671   5.239   4.136  11.197  0.0398  1.9083 -0.0792
 7492TIP3    H246672   5.239   4.176  11.343 -0.8172 -0.4244  0.6010
 7493TIP3   OH246673   0.988   3.031  10.867 -0.2099  0.1123  0.8068
 7493TIP3    H146674   0.965   3.062  10.779  0.4896 -0.8935  0.2403
 7493TIP3    H246675   0.998   3.110  10.919 -2.0630  0.6758  0.3707
 7494TIP3   OH246676   1.212   6.499  13.168  0.0802  0.3881 -0.2364
 7494TIP3    H146677   1.149   6.548  13.115  0.7173  1.1254 -0.3362
 7494TIP3    H246678   1.295   6.544  13.153  0.9073 -1.3425 -1.1308
 7495TIP3   OH246679   5.907   0.008  11.700 -0.4892  0.1908  0.1496
 7495TIP3    H146680   5.897   0.001  11.605 -2.2094  0.2423  0.3002
 7495TIP3    H246681   5.820  -0.010  11.735  0.3729 -1.1199  1.8043
 7496TIP3   OH246682   5.425   6.212  11.379 -0.6172 -0.5735 -0.3078
 7496TIP3    H146683   5.433   6.134  11.433  0.5264 -0.2550  0.0023
 7496TIP3    H246684   5.502   6.210  11.322 -0.5480  0.3553 -0.2555
 7497TIP3   OH246685   1.470   1.889  12.076 -0.4311 -0.3759 -0.0028
 7497TIP3    H146686   1.519   1.939  12.010 -1.4534  0.0538 -0.4664
 7497TIP3    H246687   1.435   1.814  12.027  0.1498 -0.9450  0.4359
 7498TIP3   OH246688   3.443   6.210  10.513  0.6992  0.3797  0.3273
 7498TIP3    H146689   3.479   6.198  10.425  1.6147 -0.8455  0.8406
 7498TIP3    H246690   3.365   6.264  10.499 -0.1113 -1.1106 -1.4586
 7499TIP3   OH246691   7.364   5.823  10.550  0.3288  0.4041  0.9535
 7499TIP3    H146692   7.442   5.794  10.504 -0.6999  0.7020 -1.0807
 7499TIP3    H246693   7.380   5.915  10.571 -0.1388  0.9850 -1.0617
 7500TIP3   OH246694   1.726   5.851  11.892  0.0710 -0.1270  0.0278
 7500TIP3    H146695   1.678   5.904  11.828  1.8641  0.6619 -0.7260
 7500TIP3    H246696   1.731   5.906  11.970  0.7571  0.2779 -0.2957
 7501TIP3   OH246697   0.340   0.796  10.525 -0.4373  0.4693 -0.0683
 7501TIP3    H146698   0.314   0.878  10.485 -1.1048 -0.0833 -0.8014
 7501TIP3    H246699   0.270   0.775  10.587 -0.6637  0.0748 -0.4490
 7502TIP3   OH246700   1.633   5.141  10.771  0.0833 -0.0767  0.0392
 7502TIP3    H146701   1.568   5.093  10.719  1.2832 -0.0590 -1.5735
 7502TIP3    H246702   1.602   5.232  10.770  0.7289  0.1737 -1.8328
 7503TIP3   OH246703   3.394   0.456  11.185  0.6537  0.1553 -0.1855
 7503TIP3    H146704   3.360   0.379  11.140 -0.5408  0.1791  0.6371
 7503TIP3    H246705   3.448   0.421  11.255  0.2995  0.0587  0.0439
 7504TIP3   OH246706   0.206   5.297  12.479 -0.1147 -0.3191 -0.1831
 7504TIP3    H146707   0.239   5.340  12.400 -0.2035 -0.9154 -0.5488
 7504TIP3    H246708   0.241   5.208  12.475  0.7173 -0.0664  0.9720
 7505TIP3   OH246709   1.795   6.212  12.664  0.8794  0.8006 -0.2333
 7505TIP3    H146710   1.882   6.176  12.649  1.3398  1.8626 -0.2019
 7505TIP3    H246711   1.802   6.304  12.638 -0.3532  0.7960 -0.6703
 7506TIP3   OH246712   6.205   0.620  10.944 -0.0642 -0.0161  0.1194
 7506TIP3    H146713   6.130   0.651  10.893 -0.2886 -0.3770  0.2250
 7506TIP3    H246714   6.215   0.683  11.015  0.4107  0.6356 -0.5171
 7507TIP3   OH246715   1.538   6.554  11.212 -0.1823 -0.6552  0.0368
 7507TIP3    H146716   1.530   6.560  11.307  1.5691 -1.3789  0.2824
 7507TIP3    H246717   1.602   6.622  11.190 -2.2160  1.0376 -0.9566
 7508TIP3   OH246718   4.287   3.268  11.684  0.8182 -0.0055 -0.2248
 7508TIP3    H146719   4.201   3.234  11.662  1.4228 -0.9627 -1.1827
 7508TIP3    H246720   4.276   3.308  11.770  0.0161 -2.5320  0.9288
 7509TIP3   OH246721   2.574   4.377  12.846  0.2480 -0.1657 -0.0195
 7509TIP3    H146722   2.558   4.389  12.939 -2.3112 -0.4688 -0.3270
 7509TIP3    H246723   2.555   4.285  12.829  3.2269 -0.7993 -0.4823
 7510TIP3   OH246724   5.523   7.650  11.348  0.4359  0.1051  0.4456
 7510TIP3    H146725   5.549   7.733  11.389 -0.9782 -0.0838  1.8422
 7510TIP3    H246726   5.593   7.631  11.286  1.2905  1.8400  0.8021
 7511TIP3   OH246727   6.085   0.926  12.736 -0.2738 -0.0355 -0.3651
 7511TIP3    H146728   6.104   0.994  12.671  1.3972  1.5676  1.6506
 7511TIP3    H246729   6.171   0.903  12.772 -0.8669 -2.8178 -0.5168
 7512TIP3   OH246730   7.196   0.124  12.359  0.1620  0.2618  0.2744
 7512TIP3    H146731   7.202   0.214  12.327 -2.8561  0.7042  0.6141
 7512TIP3    H246732   7.103   0.102  12.350  0.6468 -2.5117  1.0887
 7513TIP3   OH246733   3.995   5.633  10.662 -0.2229  0.2159 -0.0273
 7513TIP3    H146734   4.047   5.679  10.595 -0.1728  0.2970  0.0680
 7513TIP3    H246735   4.018   5.541  10.651 -1.0696  0.0810 -0.8856
 7514TIP3   OH246736   6.071   1.595  11.636  0.8926 -0.1528  0.0318
 7514TIP3    H146737   6.038   1.682  11.660 -1.0050  0.0007 -2.6477
 7514TIP3    H246738   6.002   1.535  11.661  2.1235 -0.9474  1.7112
 7515TIP3   OH246739   5.324   3.537  10.638  0.1803 -0.4167 -0.2862
 7515TIP3    H146740   5.349   3.567  10.551  1.1359  0.1730  0.1755
 7515TIP3    H246741   5.341   3.612  10.695 -2.4504 -0.0211  0.1310
 7516TIP3   OH246742   2.497   1.623  11.896 -0.1454  0.0051 -0.4627
 7516TIP3    H146743   2.575   1.666  11.932 -0.6272  1.2441 -0.8501
 7516TIP3    H246744   2.497   1.646  11.804 -0.6592 -0.4885 -0.5946
 7517TIP3   OH246745   3.070   0.474  10.132  0.1429 -0.6110 -0.0771
 7517TIP3    H146746   3.111   0.438  10.053  0.5575 -0.7444  0.1927
 7517TIP3    H246747   3.008   0.407  10.160 -0.2203 -0.4380 -0.4482
 7518TIP3   OH246748   4.000   2.049  11.227  0.3470 -0.5826 -0.3789
 7518TIP3    H146749   3.927   2.061  11.288  1.8440  1.7994  1.0905
 7518TIP3    H246750   3.961   2.061  11.140 -1.5602 -2.6223  0.1156
 7519TIP3   OH246751   0.387   7.674  11.279  0.1789 -0.1748  0.1221
 7519TIP3    H146752   0.465   7.713  11.239  0.2022 -0.0163  0.3195
 7519TIP3    H246753   0.406   7.581  11.284 -1.7592 -1.1653 -4.9020
 7520TIP3   OH246754   7.311   2.243  10.714 -0.2624 -0.0630 -0.5613
 7520TIP3    H146755   7.382   2.235  10.778 -1.6847 -0.1191  1.0748
 7520TIP3    H246756   7.312   2.159  10.667  0.0143 -0.5248  0.2456
 7521TIP3   OH246757   3.766   3.875  11.029 -0.2037  0.1957  0.2103
 7521TIP3    H146758   3.773   3.916  10.943  0.4693 -1.2550 -0.4409
 7521TIP3    H246759   3.825   3.800  11.026  0.0166  0.2460  2.0192
 7522TIP3   OH246760   5.413   4.512  12.407  0.5257 -0.1860  0.1110
 7522TIP3    H146761   5.403   4.514  12.502  1.3106  0.7902  0.1941
 7522TIP3    H246762   5.420   4.604  12.382 -0.6012 -0.3708 -1.0137
 7523TIP3   OH246763   4.940   6.739  10.836 -0.5756  0.0552 -0.1640
 7523TIP3    H146764   5.000   6.760  10.907 -0.6091  0.0061 -0.1211
 7523TIP3    H246765   4.884   6.816  10.829  1.3542  1.3945 -2.1730
 7524TIP3   OH246766   4.195   6.017  12.226  0.5233  0.0385  0.2436
 7524TIP3    H146767   4.207   5.968  12.144 -1.4663  0.2143 -0.1967
 7524TIP3    H246768   4.214   6.108  12.202 -2.0334  0.4318 -0.6378
 7525TIP3   OH246769   2.519   1.883  12.178  0.2009  0.5294  0.4136
 7525TIP3    H146770   2.426   1.885  12.202 -0.2545 -0.6310 -1.0963
 7525TIP3    H246771   2.538   1.791  12.163  1.9999  0.5901  2.0030
 7526TIP3   OH246772   1.573   3.446  12.894  0.6540  0.1426  0.2080
 7526TIP3    H146773   1.657   3.493  12.886  1.1456 -0.8748 -0.8918
 7526TIP3    H246774   1.574   3.412  12.984  2.3960 -1.5597 -0.3825
 7527TIP3   OH246775   2.294   2.917  12.706 -0.4774 -0.4061 -0.3443
 7527TIP3    H146776   2.284   2.922  12.801  1.3611 -1.6193 -0.0315
 7527TIP3    H246777   2.264   2.829  12.683 -0.2655 -0.3722 -0.7707
 7528TIP3   OH246778   5.100   7.503  11.119  0.0296  0.2003 -0.0542
 7528TIP3    H146779   5.033   7.438  11.098  0.5352 -0.3619  0.0343
 7528TIP3    H246780   5.070   7.583  11.078 -1.8872  0.5858  1.9259
 7529TIP3   OH246781   7.493   3.942  12.305 -0.0539 -0.9654 -0.4530
 7529TIP3    H146782   7.579   3.942  12.264 -0.2815 -0.9867 -0.9285
 7529TIP3    H246783   7.506   3.989  12.388  0.0929  0.3433 -1.1968
 7530TIP3   OH246784   1.832   7.453  11.181  0.1356  0.2972 -0.6478
 7530TIP3    H146785   1.773   7.384  11.210  1.4649 -0.3723  0.5842
 7530TIP3    H246786   1.832   7.517  11.252  1.3632 -0.0413 -0.3159
 7531TIP3   OH246787   3.110   2.466  12.534 -0.0785 -0.2587 -0.2677
 7531TIP3    H146788   3.049   2.496  12.602  0.7244  1.1125 -0.1385
 7531TIP3    H246789   3.194   2.458  12.579 -0.2036 -2.6886 -0.3101
 7532TIP3   OH246790   4.174   2.918  10.555  0.2327  0.2677 -0.2784
 7532TIP3    H146791   4.167   2.981  10.627  0.4675 -0.6189  0.5443
 7532TIP3    H246792   4.094   2.865  10.561 -0.1777  0.7548 -1.2419
 7533TIP3   OH246793   6.997   0.107  10.745  0.1692  0.2284  0.3371
 7533TIP3    H146794   6.968   0.121  10.835 -0.2379 -2.3365  0.6655
 7533TIP3    H246795   7.035   0.191  10.719  3.1179  0.2734  3.9437
 7534TIP3   OH246796   2.774   7.261  11.519 -0.4841 -0.1725 -1.1594
 7534TIP3    H146797   2.736   7.212  11.446 -1.8609 -0.6352 -0.1941
 7534TIP3    H246798   2.868   7.250  11.509 -0.6439 -0.3613 -2.7515
 7535TIP3   OH246799   3.026   3.328  11.234 -0.0547 -0.5787  0.2785
 7535TIP3    H146800   3.037   3.366  11.147 -1.0444  1.1711  0.8775
 7535TIP3    H246801   3.111   3.289  11.254  0.3716 -0.4756 -1.2098
 7536TIP3   OH246802   2.314   5.291  12.428  0.3528  0.1787 -0.0360
 7536TIP3    H146803   2.373   5.255  12.495 -1.1383 -1.3130  0.5433
 7536TIP3    H246804   2.296   5.218  12.370 -1.0801  0.5293 -0.0710
 7537TIP3   OH246805   2.793   4.512  11.375 -0.3470  0.1086  0.3966
 7537TIP3    H146806   2.738   4.582  11.342 -0.1891 -0.1343 -0.4116
 7537TIP3    H246807   2.741   4.432  11.364 -0.1724 -0.0153  0.4535
 7538TIP3   OH246808   0.762   6.950  12.186 -0.8432  0.4451 -0.0492
 7538TIP3    H146809   0.822   6.883  12.154 -1.3786  0.2049 -0.5763
 7538TIP3    H246810   0.718   6.908  12.260 -0.7032  0.4474  0.0342
 7539TIP3   OH246811   4.010   5.781  10.890 -0.0616  0.1739  0.0304
 7539TIP3    H146812   4.012   5.719  10.817  0.8636  1.2804 -0.9378
 7539TIP3    H246813   3.921   5.776  10.924 -0.3247 -0.8424 -0.7664
 7540TIP3   OH246814   7.453   4.727  12.534 -0.0251 -0.2319  0.4918
 7540TIP3    H146815   7.378   4.668  12.541  0.0125 -0.3709 -0.2240
 7540TIP3    H246816   7.524   4.673  12.499 -0.2855  0.4531 -1.2156
 7541TIP3   OH246817   4.681   7.224  10.807  0.2082 -0.1727  0.2140
 7541TIP3    H146818   4.766   7.239  10.848  0.3767 -0.3517 -0.0685
 7541TIP3    H246819   4.681   7.280  10.729  0.5549 -1.0786 -0.4528
 7542TIP3   OH246820   7.353   7.406  12.896  0.2396 -0.5993 -0.2390
 7542TIP3    H146821   7.327   7.362  12.816  0.4695  0.3884 -0.8756
 7542TIP3    H246822   7.282   7.468  12.914  0.3475 -0.5782  0.1370
 7543TIP3   OH246823   6.914   6.665  10.567 -0.1202 -0.2455  0.2175
 7543TIP3    H146824   6.927   6.689  10.476  0.0756 -1.0637  0.0278
 7543TIP3    H246825   6.987   6.607  10.588 -1.7576 -2.5229 -0.0146
 7544TIP3   OH246826   7.284   0.917  11.526 -0.3744 -0.0313  0.2078
 7544TIP3    H146827   7.287   0.958  11.613  0.6337  0.7257 -0.1672
 7544TIP3    H246828   7.376   0.906  11.501 -0.6017 -2.2996  0.1575
 7545TIP3   OH246829   5.983   0.118  12.455 -0.1509  0.3175  0.6469
 7545TIP3    H146830   5.973   0.210  12.481  0.7912  0.6637 -0.1568
 7545TIP3    H246831   5.913   0.104  12.392  1.0038  1.1406 -0.8698
 7546TIP3   OH246832   1.234   1.424  10.886  0.3385 -0.5333  0.2736
 7546TIP3    H146833   1.291   1.347  10.887  0.7287 -0.2513  1.1550
 7546TIP3    H246834   1.233   1.453  10.795  1.3643 -0.7189  0.1928
 7547TIP3   OH246835   2.848   1.598  11.798 -0.4020  0.2711 -0.5082
 7547TIP3    H146836   2.943   1.594  11.809 -0.5511 -0.5987  0.6134
 7547TIP3    H246837   2.829   1.534  11.729 -0.1523  0.6670 -0.9496
 7548TIP3   OH246838   4.311   0.110  11.175 -0.6386  0.2148  0.2216
 7548TIP3    H146839   4.376   0.125  11.244  0.0081  0.8244 -0.5121
 7548TIP3    H246840   4.254   0.186  11.179 -0.8319  0.0650  0.3340
 7549TIP3   OH246841   0.449   6.352  11.266 -0.0120  0.7022  0.0925
 7549TIP3    H146842   0.467   6.445  11.280 -0.4935  0.5938  1.6022
 7549TIP3    H246843   0.401   6.324  11.344  1.2192 -1.1132  0.2764
 7550TIP3   OH246844   5.269   0.037  11.284 -0.0998 -0.0672  0.1735
 7550TIP3    H146845   5.348  -0.000  11.323 -0.4057 -0.5261  0.3663
 7550TIP3    H246846   5.212  -0.039  11.268 -0.5081  0.2597  0.0535
 7551TIP3   OH246847   5.274   2.191  12.053  0.0358 -0.1292  0.2914
 7551TIP3    H146848   5.341   2.203  11.985 -0.7994 -2.2033 -1.0181
 7551TIP3    H246849   5.198   2.239  12.020 -0.5858 -1.6745 -0.6801
 7552TIP3   OH246850   3.830   6.979  12.864 -0.1419 -0.0795  0.8759
 7552TIP3    H146851   3.883   6.907  12.897  1.0371  0.1170 -0.4964
 7552TIP3    H246852   3.797   7.023  12.943 -0.6278 -1.9052  1.7282
 7553TIP3   OH246853   3.176   3.362  11.581 -0.4454  0.0382 -0.3239
 7553TIP3    H146854   3.172   3.455  11.562 -1.6650 -0.0802 -0.7348
 7553TIP3    H246855   3.172   3.319  11.496  0.5188 -0.3907 -0.1667
 7554TIP3   OH246856   2.499   0.872  12.203  0.0699  0.4981  0.1725
 7554TIP3    H146857   2.470   0.783  12.225 -2.7386  1.5778  1.2849
 7554TIP3    H246858   2.511   0.915  12.288  0.7256  1.3770 -0.3530
 7555TIP3   OH246859   3.280   1.081  10.948 -0.4743  0.0430  0.5745
 7555TIP3    H146860   3.292   1.173  10.925 -1.2545 -0.1103 -0.4979
 7555TIP3    H246861   3.203   1.080  11.005 -0.7163  0.0092  0.2483
 7556TIP3   OH246862   5.476   2.506  10.428 -0.5685  0.0459  0.0963
 7556TIP3    H146863   5.513   2.594  10.426  0.0348 -0.2120 -0.5342
 7556TIP3    H246864   5.473   2.484  10.521 -0.9638  0.8244  0.2751
 7557TIP3   OH246865   0.977   0.418  11.917  0.2736 -0.1286 -0.5566
 7557TIP3    H146866   0.966   0.326  11.941 -1.6080 -0.0794 -1.1051
 7557TIP3    H246867   1.018   0.415  11.831  0.5831 -0.4412 -0.4021
 7558TIP3   OH246868   2.732   5.551  10.640 -0.3830  0.2983  0.0785
 7558TIP3    H146869   2.666   5.619  10.654 -0.7794 -0.0494 -0.0744
 7558TIP3    H246870   2.814   5.592  10.666 -0.6977  0.6352  0.5653
 7559TIP3   OH246871   1.544   3.249  12.312 -0.0559  0.2075 -0.0623
 7559TIP3    H146872   1.491   3.257  12.391  0.8891  1.0523  0.5198
 7559TIP3    H246873   1.616   3.312  12.325  0.4321 -0.0496 -1.3382
 7560TIP3   OH246874   2.006   5.708  11.672 -0.3026  0.2194  0.1487
 7560TIP3    H146875   1.976   5.718  11.582 -1.7460  3.8829  0.8291
 7560TIP3    H246876   2.054   5.789  11.690  0.8076 -0.8502  2.4026
 7561TIP3   OH246877   0.982   7.177  12.919 -0.4457 -0.3174 -0.6202
 7561TIP3    H146878   0.907   7.177  12.859  0.7256 -0.4510 -2.1475
 7561TIP3    H246879   1.012   7.086  12.919  1.5721  0.2619 -2.5221
 7562TIP3   OH246880   5.826   5.587  11.811  0.5405  0.2774 -0.1840
 7562TIP3    H146881   5.884   5.578  11.735 -0.2076  1.1301 -0.8711
 7562TIP3    H246882   5.854   5.668  11.853 -0.5161  0.9904 -0.8421
 7563TIP3   OH246883   1.072   3.643  10.892 -0.2502 -0.5484  0.3556
 7563TIP3    H146884   1.101   3.579  10.957  1.9997 -0.3438 -0.3793
 7563TIP3    H246885   1.086   3.600  10.808  0.6337  0.6337 -0.1240
 7564TIP3   OH246886   3.553   3.519  12.404  0.2033 -0.6886  0.1527
 7564TIP3    H146887   3.528   3.604  12.440  1.4328 -0.5015  0.6393
 7564TIP3    H246888   3.475   3.464  12.415 -0.7138  0.4505 -0.4551
 7565TIP3   OH246889   2.015   3.607  10.863  0.8561 -0.2290 -0.3583
 7565TIP3    H146890   1.922   3.626  10.873  0.5241 -1.4811 -0.7720
 7565TIP3    H246891   2.060   3.678  10.908 -0.3260 -0.2824  0.9509
 7566TIP3   OH246892   7.597   5.369  11.092  0.1298 -0.4716  0.3413
 7566TIP3    H146893   7.521   5.404  11.046 -0.9154 -0.6125  1.8621
 7566TIP3    H246894   7.645   5.446  11.122 -0.4253 -0.3605  0.9532
 7567TIP3   OH246895   7.417   7.650  12.331  0.9222 -0.4827 -0.1278
 7567TIP3    H146896   7.348   7.715  12.317  1.5709  0.1839 -0.3170
 7567TIP3    H246897   7.432   7.652  12.426  0.7187 -0.6006 -0.0907
 7568TIP3   OH246898   4.130   5.631  13.023 -0.1697 -0.0069  0.0712
 7568TIP3    H146899   4.184   5.552  13.025 -0.1989 -0.1247 -1.9070
 7568TIP3    H246900   4.190   5.701  13.049 -0.1321 -0.6353  1.7963
 7569TIP3   OH246901   1.332   3.335  12.132 -0.4331  0.1734  0.0316
 7569TIP3    H146902   1.248   3.352  12.175 -0.2387 -0.6585  0.7625
 7569TIP3    H246903   1.372   3.266  12.184  0.2668 -0.1442 -0.9081
 7570TIP3   OH246904   5.961   2.893  11.807 -0.4562  0.1731 -0.4190
 7570TIP3    H146905   5.978   2.959  11.874  0.5210 -0.2210 -0.2553
 7570TIP3    H246906   6.025   2.911  11.738  0.8080 -1.4182  0.2495
 7571TIP3   OH246907   2.455   1.889  10.542  0.3891  0.2277  0.2608
 7571TIP3    H146908   2.519   1.828  10.578 -0.7595 -1.8870 -1.0358
 7571TIP3    H246909   2.507   1.955  10.496  1.6654 -0.3912  0.7957
 7572TIP3   OH246910   5.109   0.532  11.984  0.7134 -0.4251  0.0670
 7572TIP3    H146911   5.170   0.568  12.048  0.2352 -0.3543  0.4907
 7572TIP3    H246912   5.101   0.600  11.917  2.4531 -1.1309 -0.9328
 7573TIP3   OH246913   0.526   2.818  10.566 -0.3932  0.0539 -0.3697
 7573TIP3    H146914   0.451   2.810  10.508 -0.6404  0.4753 -0.1157
 7573TIP3    H246915   0.503   2.890  10.625  0.3829  0.4551 -0.5461
 7574TIP3   OH246916   1.826   6.797  10.832  0.0197  0.1572 -0.0306
 7574TIP3    H146917   1.874   6.715  10.818  0.9245  0.4513  1.1281
 7574TIP3    H246918   1.798   6.824  10.745 -1.4468 -2.0512 -0.3098
 7575TIP3   OH246919   2.543   7.188  12.112  0.3406 -0.3168  0.4388
 7575TIP3    H146920   2.506   7.122  12.052 -0.7841 -0.9331  1.7585
 7575TIP3    H246921   2.479   7.258  12.113  0.2500 -0.4039  1.0714
 7576TIP3   OH246922   1.592   4.644  11.969 -0.0309  0.2377  0.7170
 7576TIP3    H146923   1.557   4.706  11.905 -1.5864 -1.2378  0.0543
 7576TIP3    H246924   1.681   4.674  11.986  0.0382  1.3409 -1.2833
 7577TIP3   OH246925   4.605   2.503  10.076  0.3133 -0.0738 -0.3299
 7577TIP3    H146926   4.699   2.513  10.090  0.1058  0.2361  1.0731
 7577TIP3    H246927   4.572   2.592  10.066  0.3072 -0.2415 -2.0364
 7578TIP3   OH246928   7.501   1.159  11.113  0.4055 -0.6644  0.5109
 7578TIP3    H146929   7.458   1.167  11.028  0.5676 -1.0905  0.3882
 7578TIP3    H246930   7.438   1.113  11.169  0.2826 -0.3474  0.6334
 7579TIP3   OH246931   4.361   2.890  12.908  0.2969 -0.0353  0.1796
 7579TIP3    H146932   4.288   2.846  12.953  0.7850  0.3156  1.3466
 7579TIP3    H246933   4.423   2.819  12.889  1.2990  0.1446  2.4844
 7580TIP3   OH246934   4.534   5.939  12.852 -0.3438  0.5679  0.5114
 7580TIP3    H146935   4.508   5.902  12.936 -1.3034  1.2237  0.5197
 7580TIP3    H246936   4.589   6.014  12.874  2.3634 -1.2575  0.4906
 7581TIP3   OH246937   5.411   5.502  12.636 -0.1806 -0.4193 -0.2667
 7581TIP3    H146938   5.351   5.510  12.562 -1.0744 -0.8154  0.4069
 7581TIP3    H246939   5.389   5.418  12.677  0.3559 -0.2440  0.4110
 7582TIP3   OH246940   2.870   2.263  11.430 -0.0014  0.0256  0.3861
 7582TIP3    H146941   2.934   2.250  11.500 -0.0674 -0.2593  0.3928
 7582TIP3    H246942   2.789   2.288  11.475  0.3163  1.2035  0.3348
 7583TIP3   OH246943   5.279   1.335  10.603 -0.2497  0.2545 -0.2588
 7583TIP3    H146944   5.270   1.340  10.698 -0.1212  0.0103 -0.2333
 7583TIP3    H246945   5.190   1.324  10.570 -0.1133 -2.1057 -0.0201
 7584TIP3   OH246946   0.849   1.033  10.485 -0.2975 -0.4570  0.0091
 7584TIP3    H146947   0.936   1.070  10.500 -0.8543  0.8470  0.2083
 7584TIP3    H246948   0.812   1.021  10.572 -1.3779  1.7356 -0.0844
 7585TIP3   OH246949   2.845   6.865  10.555  0.5790 -0.0967 -0.7859
 7585TIP3    H146950   2.766   6.891  10.603  0.1289 -0.4496 -1.3182
 7585TIP3    H246951   2.816   6.794  10.498  1.5080 -0.9462 -0.2362
 7586TIP3   OH246952   6.839   7.093  11.739  0.2052  0.4014 -0.1353
 7586TIP3    H146953   6.834   7.185  11.711 -1.2489  0.0238 -1.1851
 7586TIP3    H246954   6.808   7.094  11.829  1.2082  1.0800  0.2176
 7587TIP3   OH246955   3.804   5.267  11.541  0.1715  0.1845 -0.3736
 7587TIP3    H146956   3.712   5.276  11.519  0.0151 -2.0027 -0.8666
 7587TIP3    H246957   3.807   5.271  11.637 -0.3337  0.9349 -0.3849
 7588TIP3   OH246958   1.891   1.169  10.733 -0.6326  0.8381 -0.0130
 7588TIP3    H146959   1.958   1.163  10.801  2.1151  0.0920 -2.5843
 7588TIP3    H246960   1.868   1.078  10.713  0.8362  0.8660 -2.0560
 7589TIP3   OH246961   7.624   7.050  12.111  0.2464  0.0970 -0.3212
 7589TIP3    H146962   7.551   6.997  12.078 -1.7920  2.5664 -0.1123
 7589TIP3    H246963   7.671   7.077  12.032  3.1555 -4.1251 -0.3535
 7590TIP3   OH246964   4.535   2.439  11.051  0.3156 -0.4751  0.2821
 7590TIP3    H146965   4.573   2.508  10.998  1.5026 -0.8703  0.5915
 7590TIP3    H246966   4.443   2.463  11.060  0.3421  0.1733 -1.0102
 7591TIP3   OH246967   5.829   7.262  12.629 -0.2364 -0.3749  0.4466
 7591TIP3    H146968   5.818   7.222  12.716  1.9497 -0.9335  0.5454
 7591TIP3    H246969   5.888   7.336  12.644 -0.9943  0.4185 -0.3678
 7592TIP3   OH246970   2.541   0.442  10.691  0.5011 -0.1308  0.3794
 7592TIP3    H146971   2.588   0.525  10.701  0.8341  0.0011 -1.8536
 7592TIP3    H246972   2.450   0.464  10.714  0.6073  0.8259 -0.0447
 7593TIP3   OH246973   3.505   6.823  12.792 -0.1284  0.6235  0.0578
 7593TIP3    H146974   3.514   6.769  12.871 -2.7846 -1.7655 -1.0733
 7593TIP3    H246975   3.423   6.870  12.804  0.4345  1.7856 -0.4855
 7594TIP3   OH246976   0.022   2.983  10.425 -0.6720 -0.4718 -0.2029
 7594TIP3    H146977  -0.031   2.904  10.438 -1.2751  0.2598  2.3509
 7594TIP3    H246978   0.112   2.955  10.442 -0.9788 -0.5002  1.6001
 7595TIP3   OH246979   5.674   0.205  12.636 -0.0949  0.3114 -0.1789
 7595TIP3    H146980   5.593   0.208  12.688 -1.9375  0.4453 -2.8109
 7595TIP3    H246981   5.697   0.297  12.622 -0.0965  0.2963 -0.2825
 7596TIP3   OH246982   5.531   6.928  13.146  0.0192  0.3094  0.4960
 7596TIP3    H146983   5.484   7.010  13.138 -0.2770  0.1551  0.6585
 7596TIP3    H246984   5.622   6.951  13.128 -0.0830  0.6474  0.4081
 7597TIP3   OH246985   0.247   6.919  11.026  0.4644 -0.4859 -0.4796
 7597TIP3    H146986   0.153   6.930  11.013  0.6162 -0.2166 -1.3757
 7597TIP3    H246987   0.275   6.999  11.071  0.1893 -0.7847  0.2399
 7598TIP3   OH246988   4.921   1.935  11.376  0.1755  0.3085 -0.2083
 7598TIP3    H146989   4.976   1.973  11.445  1.9710 -0.2271 -1.2713
 7598TIP3    H246990   4.870   2.009  11.342  0.0131  0.7706  0.9802
 7599TIP3   OH246991   0.071   1.917  11.481 -0.7833 -0.4512 -0.2714
 7599TIP3    H146992   0.008   1.987  11.493 -0.2219 -0.1974  1.4845
 7599TIP3    H246993   0.154   1.962  11.466 -0.4687 -0.7156  0.5971
 7600TIP3   OH246994   4.991   6.246  12.358  0.0133 -0.0258 -0.0495
 7600TIP3    H146995   5.077   6.274  12.326 -0.1190  0.4190 -0.0235
 7600TIP3    H246996   4.958   6.322  12.406 -0.7677  0.1228 -0.8041
 7601TIP3   OH246997   1.103   3.991  12.191 -0.1965 -0.3574 -0.2966
 7601TIP3    H146998   1.088   3.936  12.114 -0.1312  0.8811 -1.2115
 7601TIP3    H246999   1.057   3.945  12.262 -1.5860 -0.7187 -1.3836
 7602TIP3   OH247000   6.552   2.936  10.996  0.2065  0.0549  0.3256
 7602TIP3    H147001   6.611   2.877  11.043  0.7032  0.7970  0.6496
 7602TIP3    H247002   6.498   2.878  10.942  0.7338 -0.6864  0.5806
 7603TIP3   OH247003   4.570   6.977  12.560 -0.3035 -0.0022  0.1588
 7603TIP3    H147004   4.498   6.958  12.619 -0.2169 -0.4547  0.1220
 7603TIP3    H247005   4.529   6.987  12.474 -0.4344  0.7022  0.2946
 7604TIP3   OH247006   0.725   0.467  10.625 -0.3960  0.3051  0.3355
 7604TIP3    H147007   0.807   0.424  10.601 -0.0729  0.7272  0.6437
 7604TIP3    H247008   0.714   0.447  10.718 -1.8512 -1.6651 -0.2052
 7605TIP3   OH247009   3.172   3.332  12.034  0.3651 -0.1646 -0.3158
 7605TIP3    H147010   3.185   3.280  11.955 -1.2544 -0.2883 -0.5520
 7605TIP3    H247011   3.129   3.411  12.003  0.6378  0.2361  0.3273
 7606TIP3   OH247012   0.903   1.512  12.348  0.5105 -0.3297  0.0759
 7606TIP3    H147013   0.809   1.495  12.347  0.6055 -1.3743 -3.1529
 7606TIP3    H247014   0.915   1.579  12.414 -2.6938  0.7294 -0.2744
 7607TIP3   OH247015   5.057   1.677  10.662  0.2504 -0.3320 -0.3179
 7607TIP3    H147016   5.024   1.693  10.573 -1.6195  1.3477  0.6030
 7607TIP3    H247017   5.088   1.762  10.692  0.2468 -0.7401  0.8789
 7608TIP3   OH247018   0.055   5.572  12.341 -0.2643  0.0574 -0.3476
 7608TIP3    H147019   0.146   5.583  12.313 -0.6522 -0.9988 -2.1270
 7608TIP3    H247020   0.010   5.539  12.264 -2.2685  0.9490  0.3856
 7609TIP3   OH247021   1.447   0.630  10.634  0.7611  0.3816  0.3315
 7609TIP3    H147022   1.374   0.659  10.579  0.6658 -1.6209 -0.6762
 7609TIP3    H247023   1.471   0.708  10.684  2.0913  2.9665 -3.8325
 7610TIP3   OH247024   3.075   4.955  11.460 -0.3338 -0.1473 -0.1474
 7610TIP3    H147025   3.030   5.033  11.428  0.3574  0.1376 -0.4314
 7610TIP3    H247026   3.027   4.882  11.420 -1.0191  0.1141  0.1710
 7611TIP3   OH247027   3.910   3.441  12.134 -0.0890 -0.3102 -0.3187
 7611TIP3    H147028   3.972   3.454  12.205 -1.4500 -1.2067  1.1107
 7611TIP3    H247029   3.956   3.471  12.055  0.9492  2.1016  1.1110
 7612TIP3   OH247030   6.086   1.765  11.036 -0.0991  0.7519 -0.1985
 7612TIP3    H147031   6.016   1.714  10.997 -0.2542 -0.4326  1.5248
 7612TIP3    H247032   6.165   1.711  11.024  0.1131  1.0477 -0.1533
 7613TIP3   OH247033   6.994   6.759  12.057 -0.1021  0.3597 -1.3123
 7613TIP3    H147034   7.029   6.746  11.969 -0.5631 -0.4686 -1.3796
 7613TIP3    H247035   6.925   6.693  12.066  1.2627 -0.9498  0.3832
 7614TIP3   OH247036   0.820   4.939  11.802  0.0959  0.3922  0.5550
 7614TIP3    H147037   0.765   4.912  11.876 -0.5943 -1.1556 -0.4754
 7614TIP3    H247038   0.909   4.926  11.832 -0.1835 -2.6282  0.3413
 7615TIP3   OH247039   6.796   6.880  11.199  0.2134 -0.1549 -0.9986
 7615TIP3    H147040   6.803   6.884  11.295 -0.5933  0.2555 -0.9483
 7615TIP3    H247041   6.828   6.792  11.177  0.0687 -0.3862 -0.3178
 7616TIP3   OH247042   6.107   0.957  12.028  0.5151 -0.0261  0.3553
 7616TIP3    H147043   6.156   0.990  12.103  0.3712  0.3476  0.2867
 7616TIP3    H247044   6.046   1.027  12.006 -0.0725 -0.4945  0.4558
 7617TIP3   OH247045   1.781   6.695  11.447  0.3395 -0.0046 -0.6025
 7617TIP3    H147046   1.708   6.648  11.488  0.9780 -1.4816 -1.0766
 7617TIP3    H247047   1.857   6.672  11.500  0.4283  1.9823  0.2309
 7618TIP3   OH247048   6.193   3.728  10.649  0.5508 -0.8898 -0.1017
 7618TIP3    H147049   6.204   3.672  10.572  1.5262 -0.9279  0.0510
 7618TIP3    H247050   6.271   3.712  10.702  0.9806  0.7678 -0.1536
 7619TIP3   OH247051   0.664   0.682  12.573 -0.1028  0.4376 -0.0167
 7619TIP3    H147052   0.745   0.728  12.597  0.6242 -1.4776  1.4050
 7619TIP3    H247053   0.614   0.677  12.654 -1.4876  1.2132 -0.7954
 7620TIP3   OH247054   0.321   3.171  11.756  0.5115 -0.0464 -0.0898
 7620TIP3    H147055   0.276   3.246  11.794 -0.2364  0.5031 -1.9511
 7620TIP3    H247056   0.302   3.099  11.815 -2.5917  0.2211 -0.6171
 7621TIP3   OH247057   6.517   5.127  12.244 -0.4078 -0.4821  0.2968
 7621TIP3    H147058   6.507   5.193  12.312  0.2205  0.5911 -0.6251
 7621TIP3    H247059   6.601   5.084  12.264 -0.0988  0.0054  0.0611
 7622TIP3   OH247060   5.060   1.600  12.149 -0.2056  0.3913 -0.2867
 7622TIP3    H147061   5.043   1.585  12.242 -0.5363  3.3037  0.2276
 7622TIP3    H247062   4.973   1.605  12.110 -0.0733 -2.8384 -1.2442
 7623TIP3   OH247063   3.693   1.440  10.298  0.4185  0.3294 -0.7635
 7623TIP3    H147064   3.717   1.459  10.389 -1.6991 -0.9296  0.1407
 7623TIP3    H247065   3.752   1.494  10.246  1.0834  1.8060  1.3648
 7624TIP3   OH247066   7.134   2.591  12.722  0.0302 -0.9046  0.0757
 7624TIP3    H147067   7.099   2.673  12.758  2.8640  0.0750  0.9108
 7624TIP3    H247068   7.131   2.603  12.628 -0.9191 -0.4549  0.1569
 7625TIP3   OH247069   1.320   7.474  12.641  0.1407  0.0325 -0.3456
 7625TIP3    H147070   1.247   7.469  12.580  0.3349  1.7925 -0.7909
 7625TIP3    H247071   1.287   7.435  12.722 -1.7103  1.8012 -0.1684
 7626TIP3   OH247072   5.036   4.121  10.582  0.3691  0.3974 -0.2311
 7626TIP3    H147073   4.948   4.125  10.545  0.4207  0.5293 -0.3397
 7626TIP3    H247074   5.047   4.030  10.609 -0.3762  0.6858  1.1737
 7627TIP3   OH247075   5.039   0.264  12.986 -0.2228 -0.0074  0.1645
 7627TIP3    H147076   4.949   0.236  12.970 -0.6720  0.6591  1.3759
 7627TIP3    H247077   5.030   0.346  13.034  1.0271 -0.5893  1.4541
 7628TIP3   OH247078   5.731   1.680  10.435  0.2958 -0.1440 -0.2778
 7628TIP3    H147079   5.682   1.601  10.411  0.8588 -0.7229  0.4427
 7628TIP3    H247080   5.797   1.650  10.497  1.6093  0.6060 -1.2601
 7629TIP3   OH247081   1.507   5.396  12.742  0.0161 -0.2633 -0.0043
 7629TIP3    H147082   1.487   5.313  12.698 -1.5217 -0.4386  0.9328
 7629TIP3    H247083   1.460   5.390  12.826  0.2499  1.3707  0.2725
 7630TIP3   OH247084   3.550   5.861  12.295  0.3683 -0.3978  0.3189
 7630TIP3    H147085   3.483   5.915  12.253  1.9758 -0.4787 -2.6333
 7630TIP3    H247086   3.541   5.775  12.253  2.3727 -0.3566 -0.2841
 7631TIP3   OH247087   1.193   3.678  12.324 -0.1398  0.3712  0.6015
 7631TIP3    H147088   1.206   3.709  12.234  1.1953  2.4677  1.4378
 7631TIP3    H247089   1.111   3.718  12.351 -1.6135 -1.8919 -0.2694
 7632TIP3   OH247090   3.512   6.645  11.716 -0.4554 -0.0406 -0.3650
 7632TIP3    H147091   3.553   6.684  11.794  1.4172  0.5054 -1.5574
 7632TIP3    H247092   3.421   6.629  11.743 -0.2202  1.3242  1.5071
 7633TIP3   OH247093   5.987   6.379  11.412  0.5788 -0.0850 -0.8909
 7633TIP3    H147094   6.000   6.375  11.507 -0.2220  1.2280 -0.7000
 7633TIP3    H247095   6.057   6.325  11.376  2.1548  1.0093  0.3742
 7634TIP3   OH247096   1.612   2.818  11.199  0.6950 -0.5632  0.3570
 7634TIP3    H147097   1.628   2.773  11.116 -0.9160 -0.4899 -0.0357
 7634TIP3    H247098   1.568   2.752  11.253 -1.4248  0.3837 -0.1199
 7635TIP3   OH247099   6.190   2.387  10.631 -0.3519  0.0506  0.2252
 7635TIP3    H147100   6.221   2.374  10.542 -0.9007 -0.7584  0.1463
 7635TIP3    H247101   6.097   2.367  10.628 -0.7123  1.5045  0.6723
 7636TIP3   OH247102   6.914   5.292  11.059  0.3919 -0.3116  0.1681
 7636TIP3    H147103   6.990   5.302  11.116  0.6334  0.4348 -0.2643
 7636TIP3    H247104   6.888   5.382  11.039  0.3326 -0.5575 -0.9152
 7637TIP3   OH247105   6.498   6.306  12.568  0.0720  0.0044  0.4254
 7637TIP3    H147106   6.415   6.352  12.581 -0.8414 -1.5910  0.5189
 7637TIP3    H247107   6.534   6.297  12.657  0.0424  0.1294  0.4512
 7638TIP3   OH247108   0.017   5.281  11.762  0.3340  0.3171 -0.5370
 7638TIP3    H147109   0.012   5.366  11.718  1.3162 -1.1969 -3.8596
 7638TIP3    H247110   0.104   5.248  11.740 -0.2429 -1.8168  0.1691
 7639TIP3   OH247111   3.419   3.171  10.646 -0.4297  0.1656 -0.5276
 7639TIP3    H147112   3.413   3.239  10.579  0.0500  0.6986 -0.0437
 7639TIP3    H247113   3.335   3.172  10.690  0.6655  2.8971  1.7794
 7640TIP3   OH247114   1.260   6.656  12.812  0.3863 -0.0989 -0.0176
 7640TIP3    H147115   1.260   6.579  12.756  0.8325 -0.6813  0.7642
 7640TIP3    H247116   1.186   6.643  12.871 -0.2011  0.6063 -0.5762
 7641TIP3   OH247117   7.401   7.680  11.519  0.5397 -0.0962 -0.1845
 7641TIP3    H147118   7.361   7.595  11.539 -0.1510 -0.0814 -1.4260
 7641TIP3    H247119   7.481   7.658  11.472  0.2053 -0.0604 -0.7756
 7642TIP3   OH247120   5.586   5.118  12.420  0.2356  0.1707  0.0961
 7642TIP3    H147121   5.498   5.102  12.453  0.2749 -1.3121 -0.4100
 7642TIP3    H247122   5.633   5.156  12.494 -0.4507 -0.3860  0.8414
 7643TIP3   OH247123   1.324   5.097  12.520 -0.1609  0.2421 -0.1024
 7643TIP3    H147124   1.386   5.089  12.593 -1.4760 -1.3833  0.9283
 7643TIP3    H247125   1.338   5.185  12.485  1.6707  0.4457  1.0397
 7644TIP3   OH247126   4.283   7.242  10.801 -0.1324  0.0696 -0.6102
 7644TIP3    H147127   4.351   7.227  10.867 -0.3591 -0.0436 -0.4012
 7644TIP3    H247128   4.325   7.297  10.736  1.0793 -2.3098 -1.9652
 7645TIP3   OH247129   3.462   3.986  11.435  0.3341 -0.7416  0.0965
 7645TIP3    H147130   3.512   3.964  11.356  2.1126 -0.8804  1.2316
 7645TIP3    H247131   3.371   3.975  11.408  0.9245 -2.0170 -1.5910
 7646TIP3   OH247132   1.550   7.330  12.094  0.2042  0.1821 -0.4013
 7646TIP3    H147133   1.468   7.370  12.124  0.7020  0.9710 -0.0919
 7646TIP3    H247134   1.529   7.236  12.088 -0.6952  0.3633 -0.2412
 7647TIP3   OH247135   0.979   5.580  11.609  0.5633  0.2714 -0.7441
 7647TIP3    H147136   0.897   5.629  11.616  0.6078  0.2699 -0.1399
 7647TIP3    H247137   0.972   5.533  11.526 -1.0775 -1.5799  0.3750
 7648TIP3   OH247138   0.128   3.381  12.650  0.4140  0.0529  0.0539
 7648TIP3    H147139   0.198   3.390  12.585 -0.8025 -1.5243 -1.5734
 7648TIP3    H247140   0.047   3.387  12.599 -0.6703  1.0707  1.7776
 7649TIP3   OH247141   0.177   5.523  11.954  0.0631  0.5014 -0.5368
 7649TIP3    H147142   0.173   5.499  11.862 -2.2819 -1.3545 -0.0501
 7649TIP3    H247143   0.094   5.492  11.991  0.7295  1.5601  2.1214
 7650TIP3   OH247144   5.032   3.343  12.810 -0.0070  0.2704  0.1528
 7650TIP3    H147145   4.974   3.272  12.785 -0.3240  0.9976 -1.2725
 7650TIP3    H247146   4.976   3.420  12.813  0.6470  0.7622 -0.0201
 7651TIP3   OH247147   0.227   3.747  13.350  0.2354 -0.4974 -0.2274
 7651TIP3    H147148   0.314   3.726  13.317  0.1787  1.8803 -2.1536
 7651TIP3    H247149   0.242   3.811  13.420  0.0321  0.7284 -1.2806
 7652TIP3   OH247150   2.448   3.567  11.645  0.4643 -0.6249  0.5137
 7652TIP3    H147151   2.501   3.518  11.583 -1.8840 -1.6476 -0.8156
 7652TIP3    H247152   2.510   3.628  11.686  2.1981  0.0088 -2.6948
 7653TIP3   OH247153   3.683   5.151  10.848 -0.8203 -0.0908  0.4301
 7653TIP3    H147154   3.770   5.115  10.830 -0.3815  0.4169  1.4665
 7653TIP3    H247155   3.681   5.233  10.800 -0.6164  0.0360  0.6368
 7654TIP3   OH247156   3.294   7.016  12.818  0.1080  0.4251  0.2053
 7654TIP3    H147157   3.261   7.020  12.728 -1.1256  1.1494  0.6576
 7654TIP3    H247158   3.287   7.106  12.851 -0.2990  0.0189  1.2967
 7655TIP3   OH247159   3.232   7.293  12.093 -0.1806  0.2677 -0.6387
 7655TIP3    H147160   3.230   7.345  12.013  0.6215 -0.7836 -1.3639
 7655TIP3    H247161   3.283   7.215  12.071 -2.0883 -1.2943  0.1270
 7656TIP3   OH247162   3.182   4.760  11.216  0.0386 -0.1076 -0.0954
 7656TIP3    H147163   3.125   4.723  11.149  0.3795 -1.1497  0.1589
 7656TIP3    H247164   3.257   4.794  11.167 -0.0059 -0.2940 -0.2970
 7657TIP3   OH247165   2.883   4.981  10.631  0.2854  0.2307 -0.4861
 7657TIP3    H147166   2.853   4.892  10.652  0.3857  0.1249 -0.7889
 7657TIP3    H247167   2.977   4.971  10.615  0.3677  0.4566 -0.1606
 7658TIP3   OH247168   6.320   0.190  12.605  0.4143 -0.4613  0.0928
 7658TIP3    H147169   6.374   0.136  12.548  0.7240  1.0974 -1.1567
 7658TIP3    H247170   6.378   0.260  12.634 -0.7539  1.0162 -0.9480
 7659TIP3   OH247171   5.583   2.828  10.456  0.6957 -0.1016 -0.2432
 7659TIP3    H147172   5.522   2.849  10.527  1.7690  0.5606  0.5093
 7659TIP3    H247173   5.526   2.811  10.381 -0.4152  0.9565  0.3144
 7660TIP3   OH247174   5.679   3.815  11.336 -0.0220  0.1837  0.6064
 7660TIP3    H147175   5.706   3.791  11.425  0.4688 -1.1216  0.1335
 7660TIP3    H247176   5.590   3.847  11.346 -0.0791 -0.2179  1.5376
 7661TIP3   OH247177   5.139   7.509  12.537  0.1701  0.2920 -0.5272
 7661TIP3    H147178   5.116   7.417  12.536  0.1589  0.2837  0.0539
 7661TIP3    H247179   5.097   7.546  12.459 -2.6142  0.4739  0.9680
 7662TIP3   OH247180   6.338   1.784  12.431  0.0073 -0.1726 -0.3915
 7662TIP3    H147181   6.297   1.865  12.461  0.1068 -0.0847 -0.4990
 7662TIP3    H247182   6.418   1.811  12.386  0.7025 -0.3966  0.6673
 7663TIP3   OH247183   6.742   6.343  11.233 -0.0809  0.7950  0.2284
 7663TIP3    H147184   6.819   6.331  11.289 -0.4136  1.0526  0.7571
 7663TIP3    H247185   6.745   6.270  11.172  0.6393  0.8625  0.1763
 7664TIP3   OH247186   1.088   1.112  11.906  0.0181  0.0543  0.2373
 7664TIP3    H147187   1.078   1.112  12.001 -2.0923 -0.7756  0.0588
 7664TIP3    H247188   1.159   1.175  11.890  0.8692 -0.2652  2.3686
 7665TIP3   OH247189   1.731   0.983  11.816  0.0587 -0.4773  0.1881
 7665TIP3    H147190   1.673   1.056  11.837 -0.1017 -0.5429 -0.0181
 7665TIP3    H247191   1.718   0.921  11.888 -0.2382 -0.5565  0.0688
 7666TIP3   OH247192   0.272   3.513  12.877  0.5838  0.0385  0.2045
 7666TIP3    H147193   0.276   3.540  12.968 -1.2503  0.4069  0.2133
 7666TIP3    H247194   0.181   3.488  12.863  1.3753 -2.5891 -0.8359
 7667TIP3   OH247195   5.213   0.280  11.975  0.6323 -0.3102 -0.3192
 7667TIP3    H147196   5.135   0.228  11.958  0.7760 -0.6725  0.1206
 7667TIP3    H247197   5.179   0.361  12.015  0.1526  1.1643 -3.4113
 7668TIP3   OH247198   2.547   5.698  11.502  0.1981  0.6994 -0.3609
 7668TIP3    H147199   2.537   5.792  11.518  2.5145  1.4428 -2.5971
 7668TIP3    H247200   2.488   5.681  11.428 -0.4722  0.2747  0.2556
 7669TIP3   OH247201   6.084   5.401  13.287 -0.3897 -0.1412 -0.1496
 7669TIP3    H147202   6.133   5.378  13.366 -0.7584 -0.2272  0.0565
 7669TIP3    H247203   6.128   5.479  13.253 -0.8118  0.4611  0.6711
 7670TIP3   OH247204   7.168   0.365  12.239  0.1637 -0.5509 -0.7553
 7670TIP3    H147205   7.134   0.445  12.279  0.1832 -1.3387  0.9134
 7670TIP3    H247206   7.164   0.382  12.145 -3.7785 -0.1459 -0.6585
 7671TIP3   OH247207   5.071   1.717  11.499 -0.5214  0.2156  0.0741
 7671TIP3    H147208   5.012   1.647  11.527  0.6517 -0.8094  0.0518
 7671TIP3    H247209   5.022   1.762  11.429 -1.4824 -0.2735  0.4112
 7672TIP3   OH247210   0.496   1.361  11.739 -0.1107 -0.3941  0.1123
 7672TIP3    H147211   0.474   1.453  11.753  1.9589  0.3268 -0.9775
 7672TIP3    H247212   0.453   1.315  11.812 -2.0699  1.2510  0.0872
 7673TIP3   OH247213   3.448   3.401  10.492  0.5498 -0.0969 -0.6524
 7673TIP3    H147214   3.500   3.471  10.532  1.4112 -2.5173  3.0093
 7673TIP3    H247215   3.357   3.426  10.508  0.8436 -0.7370  2.8996
 7674TIP3   OH247216   0.257   2.620  10.393  0.1500  0.2620 -0.0742
 7674TIP3    H147217   0.247   2.605  10.487 -0.0630 -0.9777 -0.2815
 7674TIP3    H247218   0.204   2.552  10.352  0.0669  0.9275 -1.0974
 7675TIP3   OH247219   0.189   4.312  10.944  0.6671  0.0526 -0.9101
 7675TIP3    H147220   0.120   4.272  10.892  0.5079  0.5171 -1.0586
 7675TIP3    H247221   0.169   4.285  11.034  1.9670 -2.2754 -1.2323
 7676TIP3   OH247222   3.966   1.012  12.129  0.1778  0.5784  0.5519
 7676TIP3    H147223   4.022   0.951  12.175  0.0972  0.0716 -0.0138
 7676TIP3    H247224   3.907   0.957  12.077  0.3678  1.1233 -0.2777
 7677TIP3   OH247225   4.575   4.820  10.889  0.3348 -0.0927  0.1379
 7677TIP3    H147226   4.642   4.788  10.950  2.7989 -0.0495 -2.3428
 7677TIP3    H247227   4.575   4.915  10.902  0.6588 -0.1066  0.2655
 7678TIP3   OH247228   3.599   1.807  12.835 -1.1294  0.1838 -0.0037
 7678TIP3    H147229   3.545   1.865  12.782  1.8559  0.9215 -2.5809
 7678TIP3    H247230   3.618   1.732  12.778  0.7768  0.1301  0.6106
 7679TIP3   OH247231   5.344   5.631  11.035  0.4270 -0.2441 -0.1116
 7679TIP3    H147232   5.376   5.630  10.945 -0.8188 -0.3300 -0.5771
 7679TIP3    H247233   5.406   5.687  11.082 -0.6838  2.5631 -1.7223
 7680TIP3   OH247234   3.980   0.682  13.263 -0.0460 -0.3544 -0.2569
 7680TIP3    H147235   3.999   0.721  13.177 -1.3666 -0.9946 -0.8819
 7680TIP3    H247236   3.985   0.756  13.324 -0.0261  0.3106 -1.0330
 7681TIP3   OH247237   3.504   2.965  10.417  0.5821 -0.1323 -0.4371
 7681TIP3    H147238   3.536   3.046  10.377  0.4049  0.2138  0.1079
 7681TIP3    H247239   3.471   2.993  10.503  2.4768 -1.1042  0.6695
 7682TIP3   OH247240   3.153   0.274  12.242  0.0192 -0.3244 -0.4534
 7682TIP3    H147241   3.231   0.243  12.289  1.0082  0.8386 -1.2809
 7682TIP3    H247242   3.187   0.308  12.160 -1.2438  1.1832 -0.3874
 7683TIP3   OH247243   2.347   2.017  11.715  1.0672 -0.1278 -0.2212
 7683TIP3    H147244   2.342   2.086  11.782  1.0091  0.2260 -0.5840
 7683TIP3    H247245   2.343   2.065  11.632 -2.0774 -0.7224 -0.5399
 7684TIP3   OH247246   6.571   0.661  11.811 -0.1132  0.4074  0.3960
 7684TIP3    H147247   6.536   0.682  11.898  0.6055 -1.3338  1.1353
 7684TIP3    H247248   6.611   0.743  11.782 -1.3663  1.3469  1.1805
 7685TIP3   OH247249   7.215   0.900  13.296 -0.0543 -0.3298  0.2460
 7685TIP3    H147250   7.260   0.829  13.342 -0.9072 -2.0748 -1.4618
 7685TIP3    H247251   7.283   0.943  13.244  0.5901  0.5817  1.7842
 7686TIP3   OH247252   5.354   0.451  13.037 -0.0632  0.0313  0.0012
 7686TIP3    H147253   5.419   0.519  13.053 -0.3219  0.3495 -0.2979
 7686TIP3    H247254   5.276   0.498  13.007 -0.1875 -0.4129 -0.3829
 7687TIP3   OH247255   0.097   6.271  11.138  0.6360  0.3731  0.2272
 7687TIP3    H147256   0.117   6.177  11.135 -0.2926  0.1803 -0.4033
 7687TIP3    H247257   0.004   6.276  11.115  0.4736  1.3864  1.0476
 7688TIP3   OH247258   2.838   4.127  11.640  0.1957 -0.3068  0.0841
 7688TIP3    H147259   2.860   4.034  11.647  1.0930 -0.0482  1.1203
 7688TIP3    H247260   2.920   4.172  11.660 -0.5391  0.7056  0.9394
 7689TIP3   OH247261   5.753   6.209  11.011 -0.1108  0.2104  0.0533
 7689TIP3    H147262   5.795   6.252  11.086  0.3571 -0.5337  0.2292
 7689TIP3    H247263   5.711   6.132  11.048 -1.0197  0.5468 -0.2499
 7690TIP3   OH247264   0.236   6.047  12.469 -0.2886 -0.2456 -0.1963
 7690TIP3    H147265   0.240   6.141  12.451  2.1983 -0.5826 -2.0640
 7690TIP3    H247266   0.176   6.013  12.403 -2.6368  0.1374  1.6101
 7691TIP3   OH247267   2.473   3.587  10.625 -0.2481  0.2156  0.1549
 7691TIP3    H147268   2.392   3.585  10.676  0.3550 -1.7560  1.1479
 7691TIP3    H247269   2.541   3.558  10.686  0.8831 -0.0811 -1.1782
 7692TIP3   OH247270   6.653   5.556  11.953  0.3538 -0.2168 -0.3393
 7692TIP3    H147271   6.711   5.516  11.889  2.2750  0.4440  0.9176
 7692TIP3    H247272   6.640   5.489  12.019 -0.1151 -0.2699 -0.4808
 7693TIP3   OH247273   6.415   2.833  17.476 -0.0491  0.2954  0.2304
 7693TIP3    H147274   6.334   2.825  17.427  0.1375 -1.3517  0.1345
 7693TIP3    H247275   6.442   2.742  17.493  1.4843  0.8112  0.7187
 7694TIP3   OH247276   6.626   1.088  12.206 -0.1144 -0.1944 -0.4523
 7694TIP3    H147277   6.720   1.100  12.192 -0.1788 -0.8403 -1.5283
 7694TIP3    H247278   6.585   1.155  12.152 -0.2785  0.3318  0.3081
 7695TIP3   OH247279   3.981   4.807  10.631 -0.6853  0.7569 -0.0181
 7695TIP3    H147280   4.030   4.828  10.551 -0.0681 -0.8880 -0.1214
 7695TIP3    H247281   3.998   4.714  10.645 -1.3984  0.8416  1.6280
 7696TIP3   OH247282   3.214   0.759  12.294  0.3936  0.1256 -0.2448
 7696TIP3    H147283   3.125   0.771  12.260  0.0414 -1.0004  0.2257
 7696TIP3    H247284   3.208   0.680  12.348  2.2397 -1.4097 -2.1791
 7697TIP3   OH247285   5.622   5.016  11.946  0.2655  0.9038  0.0869
 7697TIP3    H147286   5.679   5.032  11.871  1.9766  0.5200  1.2698
 7697TIP3    H247287   5.584   5.102  11.965  0.1507  1.0924 -0.9254
 7698TIP3   OH247288   2.366   5.427  11.421  0.0500  0.1717 -0.7182
 7698TIP3    H147289   2.327   5.513  11.435 -1.5578 -0.4174 -1.4418
 7698TIP3    H247290   2.357   5.383  11.506 -1.6977 -0.2523 -1.0791
 7699TIP3   OH247291   5.319   2.403  10.987  0.2469 -0.4959 -0.0773
 7699TIP3    H147292   5.239   2.408  11.039  1.0797 -0.1761  1.2229
 7699TIP3    H247293   5.339   2.310  10.983  0.7111 -0.4623  1.0608
 7700TIP3   OH247294   0.630   0.301  12.348 -0.2060 -0.5223  0.7008
 7700TIP3    H147295   0.602   0.248  12.273 -0.7679 -0.2815  0.7324
 7700TIP3    H247296   0.628   0.241  12.422 -0.0343 -0.6620  0.5937
 7701TIP3   OH247297   0.256   2.183  13.123  0.2468 -0.3815 -0.0543
 7701TIP3    H147298   0.173   2.186  13.172 -0.8347 -1.1665 -1.7265
 7701TIP3    H247299   0.257   2.264  13.072  1.2836  0.3541  1.0945
 7702TIP3   OH247300   3.005   4.429  11.199 -0.0383 -0.3974 -0.5425
 7702TIP3    H147301   2.945   4.462  11.266  2.5912 -0.0542  1.8100
 7702TIP3    H247302   3.009   4.335  11.214  1.1926 -0.2114  0.3809
 7703TIP3   OH247303   4.877   0.977  12.368  0.4071 -0.1854 -0.1547
 7703TIP3    H147304   4.920   0.896  12.392  0.1959 -0.3400 -0.2955
 7703TIP3    H247305   4.814   0.993  12.439  1.6960  0.8090  0.8158
 7704TIP3   OH247306   7.379   0.395  11.049  0.3164  0.0434 -0.6005
 7704TIP3    H147307   7.308   0.442  11.092  1.0215 -0.2675  0.9766
 7704TIP3    H247308   7.337   0.317  11.013  0.0596 -0.8800  1.5743
 7705TIP3   OH247309   5.730   0.423  12.441  0.5646 -0.3810 -0.4509
 7705TIP3    H147310   5.674   0.427  12.364 -0.5886  1.2828  0.4154
 7705TIP3    H247311   5.700   0.495  12.497  3.0389  0.0813  0.4248
 7706TIP3   OH247312   2.800   3.076  11.903  0.5715 -0.2437 -0.2990
 7706TIP3    H147313   2.778   2.998  11.953 -0.1591  0.7116  0.9212
 7706TIP3    H247314   2.737   3.078  11.832  1.2171 -1.2688 -0.9271
 7707TIP3   OH247315   5.098   3.746  11.481  0.9175 -0.4089  0.6409
 7707TIP3    H147316   5.023   3.803  11.493  0.0604 -1.0898 -1.1554
 7707TIP3    H247317   5.074   3.664  11.525  1.5771  0.0906  2.0046
 7708TIP3   OH247318   3.856   2.721  11.397 -0.0834 -1.0280  0.5910
 7708TIP3    H147319   3.879   2.679  11.314  0.7695  1.7000 -0.6681
 7708TIP3    H247320   3.928   2.783  11.413 -1.5833  0.4806  1.9126
 7709TIP3   OH247321   0.203   0.799  12.168  0.5864 -0.3288  0.0271
 7709TIP3    H147322   0.155   0.835  12.093  1.4227 -1.0850 -0.8898
 7709TIP3    H247323   0.280   0.758  12.130  0.3849 -1.8528  1.1948
 7710TIP3   OH247324   5.650   7.167  12.037  0.3034 -0.6461  0.0463
 7710TIP3    H147325   5.711   7.217  12.092 -1.8527  0.5783  1.5189
 7710TIP3    H247326   5.704   7.099  11.996  2.4953 -0.0600  1.7444
 7711TIP3   OH247327   5.375   3.670  11.479 -0.3743  0.2468  0.2867
 7711TIP3    H147328   5.374   3.759  11.443 -1.3614 -0.5658 -1.9204
 7711TIP3    H247329   5.327   3.676  11.562  0.5844  1.9607  0.7468
 7712TIP3   OH247330   0.329   5.417  12.706 -0.3274 -0.3144 -0.3594
 7712TIP3    H147331   0.280   5.352  12.656  1.2499 -1.0193 -1.0266
 7712TIP3    H247332   0.314   5.499  12.660 -1.9497 -0.2459  0.2207
 7713TIP3   OH247333   2.064   5.470  11.828 -0.1272  0.0418  0.3599
 7713TIP3    H147334   2.056   5.561  11.800  1.3881 -0.3672 -1.5234
 7713TIP3    H247335   1.999   5.461  11.898 -0.2028  2.5922  0.6957
 7714TIP3   OH247336   4.234   2.930  12.398  0.2467 -0.1609 -0.4242
 7714TIP3    H147337   4.274   2.961  12.480  1.0093 -0.6952 -0.5886
 7714TIP3    H247338   4.148   2.973  12.396 -0.2865 -1.0714  1.2465
 7715TIP3   OH247339   6.699   6.974  12.258 -0.3484 -0.2812 -0.1033
 7715TIP3    H147340   6.724   7.066  12.270 -1.5332  0.2575 -1.4647
 7715TIP3    H247341   6.621   6.964  12.312 -0.3029 -0.4579 -0.0698
 7716TIP3   OH247342   2.119   4.781  11.325 -0.4745  0.3553 -0.0523
 7716TIP3    H147343   2.078   4.868  11.329 -1.4367 -0.1190  0.8813
 7716TIP3    H247344   2.186   4.784  11.393 -1.8904 -0.2829  1.4409
 7717TIP3   OH247345   0.295   3.456  13.315 -0.1668 -0.4284  0.2665
 7717TIP3    H147346   0.356   3.499  13.254 -0.6983  1.0079  0.7017
 7717TIP3    H247347   0.218   3.513  13.315 -1.1791 -1.7546  0.3837
 7718TIP3   OH247348   7.426   3.441  10.660 -0.1065  0.1063 -0.6220
 7718TIP3    H147349   7.413   3.378  10.589  0.9095  1.0145 -1.6544
 7718TIP3    H247350   7.506   3.413  10.704 -0.0176  0.2907 -0.6638
 7719TIP3   OH247351   5.701   3.595  11.827 -0.1987  0.3356 -0.1008
 7719TIP3    H147352   5.625   3.638  11.866 -0.2207 -0.6143  0.9611
 7719TIP3    H247353   5.735   3.658  11.763 -1.4040  1.0861 -0.0174
 7720TIP3   OH247354   2.595   4.927  10.862 -0.1483  0.7818  0.5508
 7720TIP3    H147355   2.560   4.878  10.936  0.3469 -0.1344  0.2083
 7720TIP3    H247356   2.662   4.984  10.900  1.3761 -0.9606  0.6519
 7721TIP3   OH247357   7.051   3.358  13.041 -0.1948 -0.0670  0.0884
 7721TIP3    H147358   7.075   3.451  13.036  0.3129 -0.1561  0.7416
 7721TIP3    H247359   6.969   3.357  13.089 -0.0428  0.0220  0.3514
 7722TIP3   OH247360   2.899   3.985  12.833  0.2346 -0.2381  0.2307
 7722TIP3    H147361   2.887   3.891  12.846 -0.8471  0.0473  1.4348
 7722TIP3    H247362   2.852   4.026  12.906  0.9014  1.2339 -0.1297
 7723TIP3   OH247363   2.795   3.343  12.857  0.1189  0.7206  0.2771
 7723TIP3    H147364   2.859   3.314  12.792  0.3691  1.6360  0.0901
 7723TIP3    H247365   2.711   3.340  12.811  0.0218 -0.4689  0.5181
 7724TIP3   OH247366   6.744   4.856  12.805  0.1765 -0.4445 -0.0834
 7724TIP3    H147367   6.725   4.830  12.895 -0.9232 -1.9369 -0.6975
 7724TIP3    H247368   6.698   4.791  12.751 -1.6517  2.0401 -1.7692
 7725TIP3   OH247369   6.408   3.400  10.788  0.1295 -0.0241  0.0391
 7725TIP3    H147370   6.408   3.379  10.695  0.4154  1.0532 -0.2258
 7725TIP3    H247371   6.355   3.332  10.828  1.0000 -1.2008 -0.7336
 7726TIP3   OH247372   3.006   5.947  11.743 -0.0025  0.6334 -0.1130
 7726TIP3    H147373   3.005   5.973  11.651  1.4879  0.0428 -0.3147
 7726TIP3    H247374   3.077   5.884  11.750  1.1132  1.9691  1.7927
 7727TIP3   OH247375   2.746   2.354  10.455  0.0171  0.3615 -0.2924
 7727TIP3    H147376   2.653   2.376  10.447 -0.1426  0.7721  1.9717
 7727TIP3    H247377   2.792   2.429  10.418 -0.5661  1.8241  1.8044
 7728TIP3   OH247378   4.493   1.253  12.840 -0.2434 -0.1243  0.0137
 7728TIP3    H147379   4.479   1.198  12.763  2.6432 -0.2707 -0.4934
 7728TIP3    H247380   4.537   1.196  12.903 -1.1180  0.4554  1.2002
 7729TIP3   OH247381   0.411   2.163  12.290  0.1908 -0.1745  1.1789
 7729TIP3    H147382   0.362   2.105  12.232 -0.9621 -0.0663  2.0197
 7729TIP3    H247383   0.503   2.145  12.270 -0.1679 -0.9522  0.1385
 7730TIP3   OH247384   7.274   4.717  11.690  0.1067 -0.4485  0.1262
 7730TIP3    H147385   7.196   4.770  11.705  0.3043 -0.2974  0.6466
 7730TIP3    H247386   7.246   4.627  11.710 -0.1119 -0.4879 -0.3442
 7731TIP3   OH247387   2.334   7.516  12.831  0.2850 -0.6211  0.0890
 7731TIP3    H147388   2.368   7.428  12.845  2.6342  0.2080  0.0336
 7731TIP3    H247389   2.264   7.525  12.896  0.6799 -2.1558  0.7754
 7732TIP3   OH247390   3.331   3.803  11.856 -0.4327  0.1584  0.0784
 7732TIP3    H147391   3.305   3.712  11.844  1.6028 -0.4139 -0.3092
 7732TIP3    H247392   3.406   3.799  11.915 -0.4597  1.6213  0.2454
 7733TIP3   OH247393   0.013   2.782  11.322 -0.2746 -0.1069 -0.7547
 7733TIP3    H147394   0.014   2.876  11.302 -0.7318  0.1374  0.2802
 7733TIP3    H247395  -0.071   2.751  11.287  0.2566 -0.3377 -1.8853
 7734TIP3   OH247396   6.839   5.903  10.879 -0.3259  0.0247 -0.0934
 7734TIP3    H147397   6.810   5.993  10.871  0.0577 -0.0047 -2.2676
 7734TIP3    H247398   6.826   5.865  10.792  0.8288 -1.6077  0.3946
 7735TIP3   OH247399   0.256   5.743  10.790 -0.1026  0.5596 -0.1020
 7735TIP3    H147400   0.283   5.786  10.871  1.0791  1.3135 -0.8618
 7735TIP3    H247401   0.326   5.763  10.728 -2.1047  2.0739 -2.0284
 7736TIP3   OH247402   4.982   1.393  11.338  0.4233 -0.4101  0.3164
 7736TIP3    H147403   4.959   1.300  11.335 -0.4936 -0.1573 -1.5374
 7736TIP3    H247404   4.903   1.439  11.313  1.2125  0.8287  0.0008
 7737TIP3   OH247405   5.496   6.586  12.028  0.1048  0.1539 -0.3528
 7737TIP3    H147406   5.565   6.642  12.064 -0.2877  0.9060 -0.7493
 7737TIP3    H247407   5.421   6.599  12.085  0.3420 -0.8472  0.2195
 7738TIP3   OH247408   5.451   0.034  11.012  0.7010  0.3740 -0.3518
 7738TIP3    H147409   5.400   0.115  11.015  0.6290  0.3004  0.5067
 7738TIP3    H247410   5.412  -0.022  11.078  0.0661 -0.7929 -1.6725
 7739TIP3   OH247411   3.986   1.995  12.459 -0.2233 -0.0360 -0.2735
 7739TIP3    H147412   3.980   1.913  12.509 -1.5152 -1.3428 -2.3959
 7739TIP3    H247413   3.901   2.038  12.474  0.1350  0.5233  0.1789
 7740TIP3   OH247414   1.961   4.162  10.739 -0.6147 -0.2531  0.2043
 7740TIP3    H147415   1.964   4.067  10.729 -0.7900 -0.1364 -1.1884
 7740TIP3    H247416   1.878   4.187  10.697 -0.8139  0.4644  1.0161
 7741TIP3   OH247417   0.886   1.087  11.702 -0.4944 -1.3076  0.3422
 7741TIP3    H147418   0.937   1.093  11.783  1.7626 -0.7788 -1.0529
 7741TIP3    H247419   0.859   1.177  11.684 -0.1259 -1.2616 -0.0028
 7742TIP3   OH247420   2.282   7.214  11.728  0.5308 -0.3682 -0.5463
 7742TIP3    H147421   2.238   7.298  11.722  0.4253 -0.3146  0.7580
 7742TIP3    H247422   2.266   7.184  11.817  1.0254 -1.5233 -0.8176
 7743TIP3   OH247423   0.684   2.995  11.647 -0.6106  0.4750 -0.1952
 7743TIP3    H147424   0.658   2.908  11.676 -0.2517  0.4091 -0.0637
 7743TIP3    H247425   0.690   2.988  11.551  1.0078 -0.0950 -0.0724
 7744TIP3   OH247426   7.599   4.604  11.706 -0.1081 -0.0631 -0.5588
 7744TIP3    H147427   7.558   4.529  11.664 -0.8158  0.8392 -1.5271
 7744TIP3    H247428   7.693   4.587  11.700 -0.2740 -1.6799  0.7916
 7745TIP3   OH247429   1.022   2.634  12.454 -0.2478  0.1160 -0.0672
 7745TIP3    H147430   1.117   2.641  12.443 -0.3601  1.9907 -0.1211
 7745TIP3    H247431   1.011   2.602  12.544  0.4236 -0.3182 -0.1305
 7746TIP3   OH247432   1.763   4.172  11.283  0.2183 -0.2703 -0.7026
 7746TIP3    H147433   1.739   4.114  11.211 -0.9773 -0.3082 -0.2921
 7746TIP3    H247434   1.787   4.113  11.354  1.4984 -0.2328 -1.0719
 7747TIP3   OH247435   3.710   4.581  12.307 -0.2187 -0.4341  0.2869
 7747TIP3    H147436   3.639   4.638  12.336  0.4952  1.7658 -1.8803
 7747TIP3    H247437   3.704   4.582  12.211  3.0278  0.4198 -0.0500
 7748TIP3   OH247438   1.399   1.214  13.342  0.5571  0.2279 -0.1381
 7748TIP3    H147439   1.383   1.143  13.279  0.4504  0.5423 -0.4679
 7748TIP3    H247440   1.313   1.252  13.357  0.6596  0.4886 -0.2027
 7749TIP3   OH247441   3.799   4.926  12.331 -0.5225 -0.2070 -0.3298
 7749TIP3    H147442   3.881   4.884  12.302  0.1081  1.8258 -1.6710
 7749TIP3    H247443   3.818   4.956  12.420  0.6817  1.3374 -1.0633
 7750TIP3   OH247444   5.589   4.288  12.454  0.8184 -0.5016  0.0626
 7750TIP3    H147445   5.538   4.361  12.419  1.0057  0.5814  1.9100
 7750TIP3    H247446   5.553   4.210  12.412  0.9379  0.6499 -2.3592
 7751TIP3   OH247447   3.536   6.665  12.032 -0.4619  0.3209 -0.0170
 7751TIP3    H147448   3.452   6.620  12.027  0.1456 -1.0439  1.4087
 7751TIP3    H247449   3.519   6.741  12.089 -0.8013  0.2366 -0.0054
 7752TIP3   OH247450   6.724   5.850  11.914  0.1372  0.4740 -0.2272
 7752TIP3    H147451   6.785   5.850  11.840 -1.1226  1.1327 -1.3135
 7752TIP3    H247452   6.689   5.761  11.916 -2.7487  1.3628 -3.0343
 7753TIP3   OH247453   5.904   6.650  11.350 -0.0783 -0.8806 -1.0853
 7753TIP3    H147454   5.920   6.572  11.404 -1.7953 -0.7021 -0.2476
 7753TIP3    H247455   5.945   6.722  11.399 -0.1321 -0.9709 -0.9063
 7754TIP3   OH247456   3.243   1.201  10.107  0.1154 -0.6680  0.1737
 7754TIP3    H147457   3.210   1.243  10.028  0.6254  1.7041  1.1270
 7754TIP3    H247458   3.319   1.254  10.133  0.0042 -1.3939  2.2009
 7755TIP3   OH247459   3.279   4.898  11.886 -0.2941  0.0175 -0.4523
 7755TIP3    H147460   3.275   4.914  11.981  0.1946 -0.5211 -0.3359
 7755TIP3    H247461   3.361   4.851  11.873  0.8233  2.0925 -1.4707
 7756TIP3   OH247462   5.254   6.799  10.724 -0.9920  0.7695  0.3155
 7756TIP3    H147463   5.301   6.879  10.699 -0.5779  0.5718  0.4484
 7756TIP3    H247464   5.175   6.799  10.670  0.2589 -0.0503 -1.6113
 7757TIP3   OH247465   7.355   1.035  12.606  0.2984 -0.2382  0.4832
 7757TIP3    H147466   7.331   1.114  12.655  0.5803 -1.2417  2.3375
 7757TIP3    H247467   7.272   1.001  12.574  0.1223  0.5273  0.0979
 7758TIP3   OH247468   5.010   0.746  11.100 -0.4750  0.6794 -0.1900
 7758TIP3    H147469   5.102   0.761  11.080  0.3183 -1.0616  1.7318
 7758TIP3    H247470   4.977   0.694  11.027  0.3403  0.5232 -0.4540
 7759TIP3   OH247471   6.532   5.476  10.944  0.1755  0.0136  0.1346
 7759TIP3    H147472   6.521   5.513  11.032 -0.4358 -0.9754  0.4858
 7759TIP3    H247473   6.446   5.484  10.903 -0.5209 -2.7329  0.9150
 7760TIP3   OH247474   1.332   1.018  12.530 -0.3005  0.2481  0.1448
 7760TIP3    H147475   1.394   1.087  12.506  0.9173 -0.9170 -0.2603
 7760TIP3    H247476   1.314   1.033  12.623 -0.7216  1.5907 -0.1458
 7761TIP3   OH247477   0.015   5.268  12.799 -0.2395 -0.2765 -0.3752
 7761TIP3    H147478  -0.016   5.332  12.863  1.4226  1.3729 -1.1079
 7761TIP3    H247479   0.063   5.203  12.850 -0.9667 -0.3051  0.2747
 7762TIP3   OH247480   4.847   1.980  13.216 -0.6239  0.0795 -0.4958
 7762TIP3    H147481   4.846   2.041  13.289  0.0322 -0.8350  0.3094
 7762TIP3    H247482   4.940   1.960  13.203 -0.6377  0.9431 -2.2135
 7763TIP3   OH247483   6.027   2.583  12.232  0.3063 -0.0039 -0.2066
 7763TIP3    H147484   6.013   2.489  12.241 -0.5712  0.2344  1.4574
 7763TIP3    H247485   6.117   2.597  12.264  0.1008 -0.1767  0.4621
 7764TIP3   OH247486   6.157   7.560  12.303 -0.3508 -0.1141 -0.3344
 7764TIP3    H147487   6.121   7.617  12.235  0.5735 -0.0200 -0.7517
 7764TIP3    H247488   6.205   7.619  12.362 -1.2849 -0.1703  0.5149
 7765TIP3   OH247489   2.481   5.046  12.962 -0.1346  0.6574  0.3851
 7765TIP3    H147490   2.494   4.975  13.026  0.9241 -0.8075 -1.3526
 7765TIP3    H247491   2.391   5.075  12.977 -0.1176 -0.0536  2.1198
 7766TIP3   OH247492   1.014   5.383  12.779  0.2911 -0.5854 -0.2017
 7766TIP3    H147493   0.987   5.440  12.706 -1.5520  2.1457  2.3577
 7766TIP3    H247494   1.109   5.387  12.778  0.2790  0.5030 -1.6503
 7767TIP3   OH247495   2.008   5.037  11.401  0.2373  0.0012  0.0288
 7767TIP3    H147496   1.927   5.052  11.449 -0.2600  0.3216 -0.8797
 7767TIP3    H247497   2.008   5.105  11.333  0.9383 -0.4117 -0.3947
 7768TIP3   OH247498   1.610   5.779  13.160  0.3197 -0.0049 -0.0032
 7768TIP3    H147499   1.595   5.747  13.071  2.0914 -0.1449 -0.2823
 7768TIP3    H247500   1.655   5.707  13.204 -0.0175  0.2885  0.8500
 7769TIP3   OH247501   3.496   2.888  11.285  0.6367 -0.2570  0.1727
 7769TIP3    H147502   3.417   2.940  11.277  1.1238  0.4464 -0.1846
 7769TIP3    H247503   3.490   2.824  11.213 -0.4464 -1.3897  1.2246
 7770TIP3   OH247504   4.758   5.721  10.706 -0.4136  0.8208  0.6001
 7770TIP3    H147505   4.744   5.648  10.645  2.2369  0.4180  0.3614
 7770TIP3    H247506   4.805   5.786  10.654  0.2383  1.2607  1.7189
 7771TIP3   OH247507   4.203   2.792  11.909 -0.0573 -0.5813 -0.4182
 7771TIP3    H147508   4.252   2.750  11.979  0.7349  0.5358 -0.2716
 7771TIP3    H247509   4.155   2.862  11.952  0.2732 -0.0198 -0.9430
 7772TIP3   OH247510   5.763   1.100  11.591 -0.6415  0.5569 -0.5883
 7772TIP3    H147511   5.710   1.025  11.617  0.6767  0.0102  0.6669
 7772TIP3    H247512   5.850   1.083  11.628 -0.3523  2.8087 -0.0567
 7773TIP3   OH247513   2.880   0.028  12.030  0.3329  0.1120  0.1966
 7773TIP3    H147514   2.843  -0.051  12.069 -0.4282  0.0106 -0.7233
 7773TIP3    H247515   2.867   0.096  12.097  1.7405 -0.6753  1.3503
 7774TIP3   OH247516   0.332   1.070  10.368 -0.2855  0.1575  0.2943
 7774TIP3    H147517   0.381   1.095  10.446 -0.0916 -2.1765  1.0009
 7774TIP3    H247518   0.393   1.014  10.319 -0.7230  0.8625 -1.1070
 7775TIP3   OH247519   4.512   3.126  11.702  0.0308  0.1308 -0.3283
 7775TIP3    H147520   4.442   3.190  11.688  0.3915  0.1792 -2.3387
 7775TIP3    H247521   4.466   3.042  11.707 -0.2252  0.2044 -1.2196
 7776TIP3   OH247522   6.690   2.802  12.639 -0.0243 -0.4827 -0.5884
 7776TIP3    H147523   6.668   2.876  12.581 -0.5438 -0.4113 -0.3102
 7776TIP3    H247524   6.691   2.726  12.581 -0.2833 -0.3739 -0.7411
 7777TIP3   OH247525   3.467   3.565  13.146  0.6859 -0.1138 -0.0819
 7777TIP3    H147526   3.373   3.571  13.162  1.0944  1.0136  2.3802
 7777TIP3    H247527   3.499   3.504  13.213  1.5707 -1.6709 -1.8152
 7778TIP3   OH247528   5.362   5.819  12.505 -0.0013 -0.1780  0.1750
 7778TIP3    H147529   5.431   5.767  12.546 -0.5972  0.0289  1.4931
 7778TIP3    H247530   5.402   5.852  12.425  1.1987 -0.6369  0.5545
 7779TIP3   OH247531   2.324   3.714  13.414  0.0450 -0.0687 -0.1263
 7779TIP3    H147532   2.353   3.634  13.369  0.2676 -0.2454  0.3324
 7779TIP3    H247533   2.379   3.719  13.492 -0.7256 -0.0693  0.4288
 7780TIP3   OH247534   2.535   4.084  12.783 -0.1414 -0.1187 -0.6559
 7780TIP3    H147535   2.481   4.007  12.801  1.0203 -0.9996 -0.7820
 7780TIP3    H247536   2.598   4.086  12.855  1.2343 -0.6021 -1.8050
 7781TIP3   OH247537   1.568   6.503  11.498 -0.1137 -0.2160 -0.2373
 7781TIP3    H147538   1.584   6.523  11.590 -0.3484  1.1980 -0.4820
 7781TIP3    H247539   1.482   6.460  11.497 -0.0783 -0.3006  0.2093
 7782TIP3   OH247540   1.870   7.415  10.814  0.3817  0.1289 -1.0690
 7782TIP3    H147541   1.852   7.347  10.879 -2.1476  0.1008 -1.6809
 7782TIP3    H247542   1.933   7.474  10.857 -1.9357  0.7038  1.8924
 7783TIP3   OH247543   5.129   0.469  11.348  0.0561 -0.0508 -0.3054
 7783TIP3    H147544   5.192   0.521  11.398  0.4883 -0.6174 -0.2388
 7783TIP3    H247545   5.156   0.378  11.364  0.2655 -0.2438 -1.6237
 7784TIP3   OH247546   0.373   6.780  13.023 -0.0935 -0.0427  0.6880
 7784TIP3    H147547   0.450   6.837  13.022 -0.1880  0.1648  2.2354
 7784TIP3    H247548   0.301   6.837  12.995  0.2279 -0.1116 -0.3021
 7785TIP3   OH247549   6.395   2.370  11.429  0.1504 -0.4563 -0.3954
 7785TIP3    H147550   6.417   2.287  11.388 -0.3866 -0.6073 -0.3930
 7785TIP3    H247551   6.308   2.356  11.467  0.3451 -0.1086  0.2071
 7786TIP3   OH247552   2.903   2.723  12.451 -0.2966  0.2723 -0.0649
 7786TIP3    H147553   2.953   2.723  12.532 -1.4981  1.1145  0.7125
 7786TIP3    H247554   2.834   2.788  12.465 -2.2930 -1.5954 -0.6763
 7787TIP3   OH247555   7.363   7.232  11.933  0.8143 -0.2782  0.0651
 7787TIP3    H147556   7.340   7.174  11.861  0.6543  0.6858 -0.6763
 7787TIP3    H247557   7.311   7.200  12.007  0.4192 -0.8187 -0.4392
 7788TIP3   OH247558   7.533   4.275  10.843  0.4865 -0.3986 -0.3054
 7788TIP3    H147559   7.514   4.182  10.853 -1.8773 -0.0340 -0.7732
 7788TIP3    H247560   7.568   4.284  10.755  1.0891 -0.8751 -0.1214
 7789TIP3   OH247561   3.536   1.073  12.255  0.1918 -0.1014  0.2133
 7789TIP3    H147562   3.469   1.019  12.297  0.1124  0.0770  0.3177
 7789TIP3    H247563   3.617   1.051  12.301  0.2659 -0.5561 -0.1274
 7790TIP3   OH247564   2.272   6.608  12.741 -0.0429  0.3996 -0.0680
 7790TIP3    H147565   2.225   6.664  12.802 -2.2280 -1.9646  0.6052
 7790TIP3    H247566   2.220   6.610  12.661 -0.1229 -0.5740 -0.0583
 7791TIP3   OH247567   4.792   2.977  10.645  0.1010 -0.2378  0.4330
 7791TIP3    H147568   4.730   3.048  10.659 -1.2363 -1.4790  1.0210
 7791TIP3    H247569   4.838   2.969  10.729  1.6932  1.2047 -0.2401
 7792TIP3   OH247570   6.995   3.436  11.309 -0.3674  0.1537  0.2781
 7792TIP3    H147571   6.941   3.471  11.380  0.6649 -2.0816  2.3056
 7792TIP3    H247572   7.084   3.465  11.331  0.0871 -1.2924  0.4364
 7793TIP3   OH247573   5.711   0.940  10.826 -0.2063 -0.3255  0.1358
 7793TIP3    H147574   5.715   0.951  10.921  1.7649 -1.5325  0.2454
 7793TIP3    H247575   5.799   0.959  10.795 -0.7014 -0.3841 -1.4076
 7794TIP3   OH247576   3.572   7.123  12.693 -0.6268  0.3819 -0.1219
 7794TIP3    H147577   3.529   7.162  12.769 -2.0963 -0.4063 -0.5057
 7794TIP3    H247578   3.578   7.030  12.715  1.2454  0.5078  0.0581
 7795TIP3   OH247579   5.552   1.688  11.812 -0.2315  0.6002 -0.2784
 7795TIP3    H147580   5.489   1.759  11.821 -0.4103  0.6112 -1.4523
 7795TIP3    H247581   5.587   1.676  11.900 -2.3475  0.1475  0.5863
 7796TIP3   OH247582   1.399   4.806  11.234  0.4795  0.1539 -0.1350
 7796TIP3    H147583   1.485   4.774  11.263  1.0817  2.1100  0.3345
 7796TIP3    H247584   1.408   4.901  11.232 -2.0924  0.5016  1.2650
 7797TIP3   OH247585   7.162   4.247  11.956 -0.3494  1.0260  0.0545
 7797TIP3    H147586   7.085   4.206  11.997 -0.1055 -0.1546 -0.6156
 7797TIP3    H247587   7.236   4.198  11.991  0.1244  2.1976  0.7386
 7798TIP3   OH247588   7.277   6.541  11.040 -0.4187  1.0038 -0.0699
 7798TIP3    H147589   7.317   6.454  11.043  0.3425  1.3823  1.3325
 7798TIP3    H247590   7.345   6.601  11.070 -1.3023  1.9607  0.1112
 7799TIP3   OH247591   3.955   0.592  11.273 -0.6266 -0.4384 -1.0757
 7799TIP3    H147592   3.869   0.575  11.235 -0.1729 -1.0667 -1.8652
 7799TIP3    H247593   3.975   0.683  11.248 -1.2843 -0.1025 -0.4138
 7800TIP3   OH247594   1.949   4.560  12.131  0.4191  0.1234  0.6757
 7800TIP3    H147595   1.929   4.580  12.039  0.7176 -0.0099  0.5803
 7800TIP3    H247596   1.929   4.641  12.178 -3.0691 -0.8019  1.0209
 7801TIP3   OH247597   7.634   6.740  12.267 -0.4305 -0.5365 -0.0809
 7801TIP3    H147598   7.674   6.669  12.318  0.6096  0.1951  0.1474
 7801TIP3    H247599   7.703   6.804  12.257 -1.2404  0.2717 -0.6541
 7802TIP3   OH247600   0.656   0.779  13.058  0.2875  0.9180 -0.6374
 7802TIP3    H147601   0.605   0.804  13.134 -0.4555  0.5395 -1.0042
 7802TIP3    H247602   0.707   0.704  13.087  0.9987  1.5728 -0.1372
 7803TIP3   OH247603   3.886   7.623  12.048 -0.0997  0.1399  0.4981
 7803TIP3    H147604   3.873   7.543  12.099 -1.4054 -0.2163 -0.3498
 7803TIP3    H247605   3.800   7.666  12.048  0.2940  0.9574 -0.0292
 7804TIP3   OH247606   1.344   7.296  11.402  0.6026  0.2408 -0.0069
 7804TIP3    H147607   1.386   7.217  11.437 -0.4591 -0.5508 -0.4390
 7804TIP3    H247608   1.253   7.289  11.431  0.1945  0.6350 -1.1489
 7805TIP3   OH247609   7.351   4.578  11.077 -0.3209  0.3240 -0.2687
 7805TIP3    H147610   7.431   4.526  11.068  1.0236  2.1050  0.6544
 7805TIP3    H247611   7.338   4.586  11.171 -1.2542  0.5508 -0.4080
 7806TIP3   OH247612   1.121   3.295  12.681 -0.0572  0.3926  0.1499
 7806TIP3    H147613   1.195   3.242  12.710 -0.8339 -0.2047  1.0945
 7806TIP3    H247614   1.135   3.380  12.724  0.2220  0.3734  0.1036
 7807TIP3   OH247615   2.139   6.817  11.079 -0.5848  0.0095  0.5117
 7807TIP3    H147616   2.064   6.846  11.026 -0.5819 -0.6026  0.1640
 7807TIP3    H247617   2.146   6.882  11.149 -0.9962  0.4671  0.1323
 7808TIP3   OH247618   1.722   1.347  12.643  0.2931 -0.0129 -0.4460
 7808TIP3    H147619   1.706   1.319  12.733  0.9278 -2.1929 -0.9641
 7808TIP3    H247620   1.737   1.442  12.650  0.2259 -0.1137  1.7167
 7809TIP3   OH247621   1.141   5.755  13.059  0.4943 -0.0664  0.3683
 7809TIP3    H147622   1.046   5.739  13.063  0.7171 -1.3202  1.3753
 7809TIP3    H247623   1.177   5.677  13.017  1.3827 -1.2685  3.1358
 7810TIP3   OH247624   3.192   0.674  12.548 -0.0969 -0.2113 -0.4683
 7810TIP3    H147625   3.249   0.653  12.623 -0.1151  0.2201 -0.3343
 7810TIP3    H247626   3.159   0.762  12.567  0.1616  0.0355 -1.1543
 7811TIP3   OH247627   5.386   4.985  11.120  0.1980  0.3160  0.1746
 7811TIP3    H147628   5.448   4.981  11.192  0.5187 -0.7618 -0.1414
 7811TIP3    H247629   5.313   5.037  11.154  0.1564 -0.5211  1.4309
 7812TIP3   OH247630   6.749   0.902  11.389 -0.1853 -0.3216  0.3683
 7812TIP3    H147631   6.838   0.870  11.376 -0.1527 -0.0870 -0.0024
 7812TIP3    H247632   6.740   0.974  11.326 -0.7547 -0.5731  0.1561
 7813TIP3   OH247633   5.799   4.595  12.372  0.1807 -0.0017  0.6680
 7813TIP3    H147634   5.827   4.505  12.355  0.6841 -0.1457  2.0914
 7813TIP3    H247635   5.877   4.648  12.359 -0.3318  0.3934 -1.0922
 7814TIP3   OH247636   3.456   0.854  12.454  0.7675 -0.4215  0.0389
 7814TIP3    H147637   3.501   0.783  12.498  0.2575 -0.4077  0.5968
 7814TIP3    H247638   3.379   0.813  12.413  0.5760 -0.2274  0.1975
 7815TIP3   OH247639   1.384   4.133  11.991  0.1588  0.0594 -0.4319
 7815TIP3    H147640   1.318   4.201  11.979  0.2519  0.4941  1.2065
 7815TIP3    H247641   1.468   4.177  11.974  0.0690 -0.5214 -2.6265
 7816TIP3   OH247642   0.945   1.540  13.077 -0.1654 -0.5191 -0.2738
 7816TIP3    H147643   0.914   1.545  13.168  0.5338  0.3739 -0.0714
 7816TIP3    H247644   1.011   1.471  13.078  2.3762  1.7548  0.7164
 7817TIP3   OH247645   4.388   3.507  11.567 -0.1482  0.1936 -0.0634
 7817TIP3    H147646   4.340   3.425  11.576 -3.3390  1.8251 -0.5303
 7817TIP3    H247647   4.396   3.520  11.473  1.6077 -0.1953  0.0041
 7818TIP3   OH247648   4.440   3.731  11.067  0.1915 -0.4322 -0.2473
 7818TIP3    H147649   4.486   3.814  11.061 -0.3404 -0.0865  0.3494
 7818TIP3    H247650   4.366   3.740  11.007 -0.7678  0.1386  0.9836
 7819TIP3   OH247651   4.795   4.083  11.744 -0.2953 -0.1176 -0.0492
 7819TIP3    H147652   4.807   4.070  11.838 -0.0510 -0.4587 -0.1289
 7819TIP3    H247653   4.766   4.174  11.737  1.0186  0.3375  0.2480
 7820TIP3   OH247654   6.686   3.215  13.053  0.6957  0.1297 -0.1618
 7820TIP3    H147655   6.705   3.141  13.110  0.1073  0.0228 -0.0981
 7820TIP3    H247656   6.714   3.292  13.103  0.4741  0.0147  0.1419
 7821TIP3   OH247657   4.949   1.520  10.873  0.6119 -0.1967 -0.5676
 7821TIP3    H147658   4.985   1.590  10.818  0.5826 -0.2911 -0.7073
 7821TIP3    H247659   4.915   1.565  10.950 -3.7008  0.6252 -2.6320
 7822TIP3   OH247660   5.502   1.473  10.516 -0.2088  0.4301  0.7258
 7822TIP3    H147661   5.441   1.403  10.537 -0.6467  0.8650  0.9099
 7822TIP3    H247662   5.458   1.554  10.545 -1.0545  1.1226 -2.1522
 7823TIP3   OH247663   4.997   1.396  10.593 -0.6127  0.0028 -0.4146
 7823TIP3    H147664   4.907   1.401  10.562 -2.1307 -2.3135  3.0445
 7823TIP3    H247665   5.011   1.478  10.641 -1.5909 -0.3835  0.5693
 7824TIP3   OH247666   5.791   7.107  10.920 -0.0156  0.1472  0.1232
 7824TIP3    H147667   5.798   7.165  10.844 -1.6269  1.0594  0.5940
 7824TIP3    H247668   5.737   7.034  10.890  1.4501 -0.7929 -0.2810
 7825TIP3   OH247669   7.123   2.676  11.365 -0.1932 -0.7451 -0.3346
 7825TIP3    H147670   7.102   2.729  11.289 -0.5503  1.0912  0.9786
 7825TIP3    H247671   7.195   2.620  11.336 -1.4942 -1.3936 -2.5228
 7826TIP3   OH247672   4.212   2.089  12.587 -0.2327  0.2090  0.0061
 7826TIP3    H147673   4.238   2.024  12.652  1.0862 -1.0422 -1.6690
 7826TIP3    H247674   4.123   2.064  12.562  0.1173 -0.7315 -0.3320
 7827TIP3   OH247675   6.585   2.892  11.465  0.3101 -0.0442  0.2641
 7827TIP3    H147676   6.666   2.861  11.424 -0.4856 -2.1853  0.2002
 7827TIP3    H247677   6.545   2.948  11.398 -0.0759 -2.0426 -1.2964
 7828TIP3   OH247678   2.552   2.256  11.801 -0.0356 -0.2497  0.1044
 7828TIP3    H147679   2.522   2.272  11.890  0.7198 -1.1596  0.5448
 7828TIP3    H247680   2.473   2.257  11.748 -0.7043 -1.3317  1.0425
 7829TIP3   OH247681   2.206   5.188  12.966 -0.0764 -0.4413 -0.2488
 7829TIP3    H147682   2.159   5.142  13.036 -0.2245 -0.8639 -0.6204
 7829TIP3    H247683   2.229   5.272  13.005 -1.7049  0.0413 -0.2524
 7830TIP3   OH247684   3.859   1.238  10.499 -0.8569  0.3919  0.2935
 7830TIP3    H147685   3.947   1.272  10.513 -1.1839  0.7303  1.6890
 7830TIP3    H247686   3.857   1.215  10.406  0.6766  0.4204  0.2237
 7831TIP3   OH247687   3.725   6.256  12.588  0.4791 -0.2049 -0.0209
 7831TIP3    H147688   3.723   6.337  12.639 -1.4002 -0.4316  0.3453
 7831TIP3    H247689   3.739   6.285  12.498  0.3016  0.4904  0.1679
 7832TIP3   OH247690   0.969   2.445  12.665 -0.1972 -0.5593 -0.0226
 7832TIP3    H147691   0.915   2.462  12.742  0.1382 -3.3051  0.9448
 7832TIP3    H247692   0.930   2.368  12.625  1.6948 -1.3276 -0.5144
 7833TIP3   OH247693   7.174   7.108  12.463 -0.2052 -0.5743 -0.6142
 7833TIP3    H147694   7.119   7.148  12.530  0.5370  1.0778 -0.9322
 7833TIP3    H247695   7.113   7.082  12.394 -0.5943  2.2192 -1.4597
 7834TIP3   OH247696   2.970   4.718  11.404 -0.2675  0.1863  0.0119
 7834TIP3    H147697   3.036   4.722  11.334 -0.8884 -0.0266 -0.5944
 7834TIP3    H247698   2.908   4.652  11.374 -1.2195  0.9880  0.1780
 7835TIP3   OH247699   0.741   1.365  11.443  0.2223  0.0535 -0.4254
 7835TIP3    H147700   0.651   1.341  11.464 -1.1660  2.6531 -2.6321
 7835TIP3    H247701   0.775   1.406  11.522 -0.5681 -0.8687  0.4048
 7836TIP3   OH247702   4.860   0.484  11.242  0.3948  0.1874  0.0397
 7836TIP3    H147703   4.942   0.486  11.292 -0.8355  0.5924  2.2035
 7836TIP3    H247704   4.792   0.500  11.308 -1.3172  1.6401 -1.9437
 7837TIP3   OH247705   3.868   5.499  11.218 -0.1034 -0.3484 -0.0611
 7837TIP3    H147706   3.896   5.465  11.133 -0.3909 -2.4274  0.6138
 7837TIP3    H247707   3.915   5.582  11.228  2.9625 -1.9137 -0.5781
 7838TIP3   OH247708   3.612   0.271  10.681 -0.2620 -0.7318 -0.3601
 7838TIP3    H147709   3.525   0.269  10.721 -0.0581  0.7727  0.2520
 7838TIP3    H247710   3.609   0.345  10.621  1.2725  0.9275  1.4580
 7839TIP3   OH247711   1.210   0.375  11.276 -0.6177  0.1424  0.0175
 7839TIP3    H147712   1.197   0.287  11.240 -2.9529  0.7915 -0.8746
 7839TIP3    H247713   1.296   0.370  11.319 -0.0383 -2.1486 -1.2135
 7840TIP3   OH247714   0.009   1.639  11.783 -0.6561  0.2860 -0.2933
 7840TIP3    H147715   0.043   1.558  11.820  1.9444 -0.4723 -3.8007
 7840TIP3    H247716   0.071   1.706  11.810  0.4679 -0.0276 -1.9349
 7841TIP3   OH247717   0.627   1.570  12.097  0.4286 -0.3044 -0.1679
 7841TIP3    H147718   0.611   1.648  12.152  0.1924  0.0594 -0.7454
 7841TIP3    H247719   0.723   1.563  12.094  0.6411  2.0355 -2.9031
 7842TIP3   OH247720   5.627   4.800  12.148 -0.0662  0.0701 -0.6879
 7842TIP3    H147721   5.667   4.831  12.229 -0.2162 -0.4381 -0.4194
 7842TIP3    H247722   5.649   4.868  12.084  2.5019 -0.8834 -0.9172
 7843TIP3   OH247723   2.241   0.239  11.719 -0.3344 -0.0813  0.5762
 7843TIP3    H147724   2.289   0.166  11.679 -1.5404  0.0928 -1.3143
 7843TIP3    H247725   2.210   0.291  11.644 -1.7762  0.8869  1.7884
 7844TIP3   OH247726   4.669   5.350  10.686 -0.7723 -0.4491 -0.2865
 7844TIP3    H147727   4.721   5.356  10.766 -2.3569  0.1361  0.7725
 7844TIP3    H247728   4.608   5.424  10.693 -1.3600 -0.7752 -1.7286
 7845TIP3   OH247729   7.501   1.608  12.167 -0.1402 -0.5122  0.2097
 7845TIP3    H147730   7.461   1.595  12.081  0.3388 -0.4453 -0.0289
 7845TIP3    H247731   7.593   1.629  12.148 -0.1742  0.1275  0.7175
 7846TIP3   OH247732   7.635   6.088  11.827 -0.2090 -0.1284 -0.4718
 7846TIP3    H147733   7.655   5.998  11.851  1.7336  0.0923 -1.0709
 7846TIP3    H247734   7.572   6.117  11.893 -0.2612 -1.6560  0.1954
 7847TIP3   OH247735   5.195   0.257  12.744  0.3364 -0.7189  0.1325
 7847TIP3    H147736   5.115   0.253  12.693  0.3864 -2.6411  0.1269
 7847TIP3    H247737   5.166   0.255  12.835  0.3643 -0.8829  0.1380
 7848TIP3   OH247738   0.636   5.186  11.569  0.5198 -0.1700 -0.5522
 7848TIP3    H147739   0.619   5.278  11.590 -1.2415 -0.7386  0.7482
 7848TIP3    H247740   0.586   5.170  11.489 -1.4948 -0.6494  0.7350
 7849TIP3   OH247741   5.562   2.879  11.431 -0.0112 -0.1028 -0.4215
 7849TIP3    H147742   5.635   2.818  11.441  1.7251  1.7052 -1.4751
 7849TIP3    H247743   5.542   2.907  11.520 -0.4363 -1.6777  0.0199
 7850TIP3   OH247744   4.150   6.360  12.417 -0.5822 -0.5423 -0.3602
 7850TIP3    H147745   4.108   6.288  12.463 -0.6959 -0.6720 -0.6669
 7850TIP3    H247746   4.138   6.340  12.324 -1.0840  0.1439 -0.4488
 7851TIP3   OH247747   1.373   5.596  11.191  0.4691  0.2257 -0.0814
 7851TIP3    H147748   1.434   5.660  11.226 -0.1360  0.5127  0.4696
 7851TIP3    H247749   1.382   5.520  11.248 -0.4652  0.6675  0.6911
 7852TIP3   OH247750   6.862   2.670  11.934 -0.2777  0.1617 -0.1024
 7852TIP3    H147751   6.920   2.618  11.878  1.0203  1.0105  0.4169
 7852TIP3    H247752   6.832   2.609  12.001  0.9861 -0.0194  0.3276
 7853TIP3   OH247753   4.536   0.391  10.815 -0.1703  0.0699  0.0929
 7853TIP3    H147754   4.570   0.318  10.763 -1.0799 -0.0910 -0.3033
 7853TIP3    H247755   4.466   0.352  10.868 -1.8171  0.8968 -1.3282
 7854TIP3   OH247756   1.066   3.014  11.352 -0.1904 -0.2913  0.7224
 7854TIP3    H147757   1.121   3.056  11.418  1.0894 -1.3684  0.3777
 7854TIP3    H247758   1.053   3.081  11.285  2.9074 -0.7393 -0.4774
 7855TIP3   OH247759   7.023   6.667  11.806 -0.1109  0.0635  0.2918
 7855TIP3    H147760   7.077   6.611  11.750  1.3731  1.6076  0.0744
 7855TIP3    H247761   6.933   6.643  11.785  0.4500 -1.8816 -0.1088
 7856TIP3   OH247762   1.196   2.657  11.771  0.4189  0.2890 -0.3359
 7856TIP3    H147763   1.232   2.621  11.852  2.0431  2.6210  0.0736
 7856TIP3    H247764   1.149   2.583  11.731 -1.1156 -0.7489  3.0214
 7857TIP3   OH247765   0.479   5.177  11.226  0.3171 -0.3812  0.2357
 7857TIP3    H147766   0.469   5.082  11.231 -1.9032 -0.2505 -0.6088
 7857TIP3    H247767   0.393   5.212  11.249 -0.0073  1.2493 -2.8401
 7858TIP3   OH247768   4.432   5.365  11.767 -0.1873 -0.1392 -0.4556
 7858TIP3    H147769   4.469   5.452  11.779  1.4003 -0.4402 -2.5440
 7858TIP3    H247770   4.483   5.309  11.825  1.0753 -0.1550 -1.5318
 7859TIP3   OH247771   1.989   0.110  13.451 -0.3243  0.5969 -0.1666
 7859TIP3    H147772   2.019   0.025  13.484 -0.3858  1.0432  1.0758
 7859TIP3    H247773   1.934   0.088  13.376 -1.1281 -0.5178  0.7163
 7860TIP3   OH247774   2.550   3.666  12.908 -0.2763  0.4692  0.0646
 7860TIP3    H147775   2.466   3.653  12.952 -0.2209  2.7646  0.9420
 7860TIP3    H247776   2.616   3.637  12.971 -0.3371  0.0448 -0.0626
 7861TIP3   OH247777   2.299   3.346  11.833  0.0190 -0.1347  0.0702
 7861TIP3    H147778   2.250   3.335  11.752  0.8018 -1.5562 -0.2603
 7861TIP3    H247779   2.353   3.424  11.818  0.7877 -0.8548 -1.1531
 7862TIP3   OH247780   4.122   0.095  11.630  0.3318 -0.5729  0.2400
 7862TIP3    H147781   4.116   0.167  11.693 -0.9681 -0.0478 -0.4598
 7862TIP3    H247782   4.054   0.033  11.658 -0.4763 -0.1793 -0.8418
 7863TIP3   OH247783   5.416   4.807  11.928 -0.3708  0.0761 -0.4863
 7863TIP3    H147784   5.483   4.876  11.931 -0.6324  0.3753 -1.1933
 7863TIP3    H247785   5.390   4.795  12.019 -1.5162  2.1265 -0.4669
 7864TIP3   OH247786   4.698   1.358  10.478 -0.0002  0.5342  0.0753
 7864TIP3    H147787   4.647   1.278  10.461 -0.6349  0.8428  0.4943
 7864TIP3    H247788   4.723   1.350  10.570  0.5119  0.4984 -0.0674
 7865TIP3   OH247789   0.900   7.177  12.241  1.2343  0.5785  0.1123
 7865TIP3    H147790   0.850   7.095  12.232  0.9377  0.6586  0.9918
 7865TIP3    H247791   0.895   7.198  12.334  2.4334  0.8980  0.1166
 7866TIP3   OH247792   4.384   2.362  12.804  0.4524  0.4096  0.0872
 7866TIP3    H147793   4.324   2.386  12.874  1.4398 -0.0387  1.1158
 7866TIP3    H247794   4.332   2.370  12.724 -0.9103  0.1986  0.9298
 7867TIP3   OH247795   7.319   5.956  11.057 -0.4385 -0.2431  0.0319
 7867TIP3    H147796   7.363   6.041  11.053 -0.0448 -0.4580 -0.3544
 7867TIP3    H247797   7.226   5.976  11.047 -0.2657  0.0580 -1.0993
 7868TIP3   OH247798   2.691   3.710  11.112 -0.4082  0.0340  0.1822
 7868TIP3    H147799   2.620   3.699  11.049  0.3566 -0.3404 -0.6360
 7868TIP3    H247800   2.654   3.681  11.195 -0.9395 -1.0526 -0.4063
 7869TIP3   OH247801   0.536   3.643  10.307 -0.0345  0.5682  0.2648
 7869TIP3    H147802   0.446   3.611  10.305 -0.3208  1.3687 -0.2953
 7869TIP3    H247803   0.570   3.613  10.392 -0.2403 -1.2635 -0.2562
 7870TIP3   OH247804   2.170   5.966  11.708 -0.0343  0.5878 -0.0981
 7870TIP3    H147805   2.236   5.896  11.701 -0.9441 -0.5199  1.6476
 7870TIP3    H247806   2.191   6.026  11.637  1.2345 -1.0914 -1.2178
 7871TIP3   OH247807   3.136   6.157  10.761 -0.1826 -0.1720 -0.3239
 7871TIP3    H147808   3.173   6.196  10.839 -0.1683 -1.0330  0.1162
 7871TIP3    H247809   3.145   6.224  10.693  0.2606  0.3939  0.2861
 7872TIP3   OH247810   2.931   7.438  12.623  0.4973  0.1172 -0.0808
 7872TIP3    H147811   3.011   7.491  12.627  0.6739 -0.1623  0.0947
 7872TIP3    H247812   2.938   7.390  12.541  0.2782  0.4567 -0.3006
 7873TIP3   OH247813   4.608   1.179  11.196 -0.0970 -0.2295  0.6814
 7873TIP3    H147814   4.636   1.262  11.157  0.0967  0.3067  1.9085
 7873TIP3    H247815   4.525   1.159  11.154  0.7095 -0.3490 -0.9231
 7874TIP3   OH247816   6.801   6.608  11.460  0.0321  0.1915  0.2870
 7874TIP3    H147817   6.867   6.539  11.472  1.6210  1.7107  0.7005
 7874TIP3    H247818   6.791   6.646  11.547 -0.5754  0.7290 -0.0118
 7875TIP3   OH247819   2.112   3.026  11.397  0.0323  0.3393  0.1732
 7875TIP3    H147820   2.119   2.994  11.307 -0.8951  0.8097 -0.0781
 7875TIP3    H247821   2.059   2.959  11.441  0.6485  0.0122  0.4219
 7876TIP3   OH247822   5.521   5.775  11.159 -0.1403  0.0497 -0.8970
 7876TIP3    H147823   5.572   5.836  11.105  2.1713  0.8132  1.8806
 7876TIP3    H247824   5.586   5.711  11.190 -1.0203  0.3567  1.8638
 7877TIP3   OH247825   7.219   0.281  11.578  0.4164  0.2835 -0.0234
 7877TIP3    H147826   7.305   0.287  11.617  0.3838 -0.9317  0.2573
 7877TIP3    H247827   7.170   0.354  11.617  0.3841 -0.8663  2.2068
 7878TIP3   OH247828   7.481   2.670  11.183 -0.1313  0.5164  0.5341
 7878TIP3    H147829   7.427   2.727  11.129 -1.2217  0.0855  1.1349
 7878TIP3    H247830   7.428   2.591  11.194  0.9919 -0.2595  0.4268
 7879TIP3   OH247831   7.464   2.185  10.932 -0.5724  0.0570  0.3218
 7879TIP3    H147832   7.471   2.134  11.012 -0.4293 -0.9727 -0.3198
 7879TIP3    H247833   7.439   2.273  10.961  0.1168 -0.1213  1.5316
 7880TIP3   OH247834   7.430   4.515  13.388 -0.0820 -0.4095  0.1387
 7880TIP3    H147835   7.448   4.421  13.399  0.9090 -0.2115  0.2561
 7880TIP3    H247836   7.338   4.524  13.412 -0.6472 -1.6051 -1.3843
 7881TIP3   OH247837   1.023   1.206  12.381 -0.3638  0.2920  0.0804
 7881TIP3    H147838   1.024   1.170  12.292 -1.3945 -0.2438  0.2659
 7881TIP3    H247839   0.986   1.136  12.435  1.4532  0.1226  1.1792
 7882TIP3   OH247840   7.035   6.703  10.979 -0.2087 -0.0387  0.6049
 7882TIP3    H147841   7.127   6.678  10.976 -0.2400 -0.2305 -2.9429
 7882TIP3    H247842   7.000   6.655  11.055  1.9151 -2.5575  0.1640
 7883TIP3   OH247843   6.276   7.481  13.564 -0.2577 -0.2856 -0.0320
 7883TIP3    H147844   6.242   7.564  13.597 -1.0173 -0.0549 -1.3534
 7883TIP3    H247845   6.199   7.427  13.551  0.2890 -1.6459  1.8472
 7884TIP3   OH247846   4.509   1.416  11.802  0.2275  0.2874  0.0597
 7884TIP3    H147847   4.464   1.372  11.874 -0.3936  1.5163  0.4544
 7884TIP3    H247848   4.515   1.349  11.734  1.9086 -1.2843  1.6378
 7885TIP3   OH247849   5.672   5.972  12.089  0.3440 -0.0736 -0.4275
 7885TIP3    H147850   5.695   6.064  12.077  0.4739  0.0698  0.7628
 7885TIP3    H247851   5.734   5.925  12.034  1.9903  0.4391  0.8846
 7886TIP3   OH247852   3.172   4.608  12.073  0.1056  0.4789  0.0901
 7886TIP3    H147853   3.255   4.559  12.073 -0.9373 -1.3714  0.0823
 7886TIP3    H247854   3.140   4.600  11.984 -1.3442 -1.1255  0.7107
 7887TIP3   OH247855   6.190   5.884  11.824 -0.3367 -0.2589 -0.7505
 7887TIP3    H147856   6.194   5.871  11.730  1.1497 -1.2863 -0.5819
 7887TIP3    H247857   6.251   5.819  11.860  0.3085  1.1496  0.8164
 7888TIP3   OH247858   5.997   3.487  10.600  0.3432 -0.2693  0.5207
 7888TIP3    H147859   5.932   3.537  10.552  1.5663 -0.7817 -1.8299
 7888TIP3    H247860   6.075   3.488  10.544  1.9564 -0.7587  2.6128
 7889TIP3   OH247861   1.822   3.204  11.181 -0.4943 -0.4349  0.5229
 7889TIP3    H147862   1.732   3.220  11.209  0.1744  2.3854  1.4330
 7889TIP3    H247863   1.864   3.163  11.256 -0.8802 -1.2897  0.2803
 7890TIP3   OH247864   6.123   1.410  11.063  0.1269  0.0529  0.1617
 7890TIP3    H147865   6.039   1.369  11.084 -0.3487 -0.0554 -1.8035
 7890TIP3    H247866   6.165   1.421  11.148 -1.3289 -1.0511  1.0851
 7891TIP3   OH247867   0.511   5.527  10.603 -0.7577  0.0895 -0.2627
 7891TIP3    H147868   0.537   5.545  10.693  0.9588  1.0281 -0.8991
 7891TIP3    H247869   0.479   5.611  10.570 -1.8993 -0.3783 -0.3811
 7892TIP3   OH247870   7.295   1.434  11.227  0.0029 -0.1803  0.5622
 7892TIP3    H147871   7.282   1.528  11.222  0.7902 -0.1036 -0.5323
 7892TIP3    H247872   7.259   1.409  11.312  0.4413  1.2046  1.1805
 7893TIP3   OH247873   6.072   4.757  11.724  0.5506 -0.3465 -0.1033
 7893TIP3    H147874   6.099   4.714  11.643  0.4062 -1.5009  0.4351
 7893TIP3    H247875   6.152   4.763  11.776  0.8382  1.2533 -0.6776
 7894TIP3   OH247876   0.228   1.798  11.838  0.1712 -0.1549 -0.3307
 7894TIP3    H147877   0.315   1.773  11.869 -0.0207  0.6730  0.9633
 7894TIP3    H247878   0.236   1.892  11.819 -0.2658 -0.2217 -0.8891
 7895TIP3   OH247879   1.881   3.777  12.138  0.1176 -0.0755 -0.1665
 7895TIP3    H147880   1.814   3.803  12.202 -0.6277 -1.1644 -0.4737
 7895TIP3    H247881   1.964   3.805  12.177 -0.4993  1.4314  0.1607
 7896TIP3   OH247882   4.122   4.081  12.043 -0.6256  0.1916 -0.0672
 7896TIP3    H147883   4.052   4.121  11.991 -1.4666 -0.6222  0.4217
 7896TIP3    H247884   4.148   4.004  11.992  0.3391  0.8181 -0.5410
 7897TIP3   OH247885   2.586   2.583  11.117  0.4916  0.0577  0.0412
 7897TIP3    H147886   2.524   2.550  11.182  1.7659 -0.0396  1.2564
 7897TIP3    H247887   2.672   2.570  11.157  1.3725 -0.6407 -1.9686
 7898TIP3   OH247888   2.959   6.342  11.454  0.2581  0.4680 -0.0899
 7898TIP3    H147889   2.953   6.254  11.415 -1.1330 -0.3267  1.7387
 7898TIP3    H247890   2.910   6.398  11.394  2.1715  0.3131 -1.9218
 7899TIP3   OH247891   3.107   4.192  12.295  0.4963  0.0131  0.0867
 7899TIP3    H147892   3.195   4.161  12.314  0.9075  0.5296 -0.9353
 7899TIP3    H247893   3.061   4.187  12.379  0.6784 -2.8610  0.1189
 7900TIP3   OH247894   7.571   1.669  11.523 -0.3534 -0.1438  0.2354
 7900TIP3    H147895   7.618   1.752  11.521 -2.5210  1.1968  1.3348
 7900TIP3    H247896   7.591   1.632  11.609  0.1424 -0.4995 -0.0257
 7901TIP3   OH247897   1.070   4.185  11.771 -0.5162 -0.7002  0.1666
 7901TIP3    H147898   1.039   4.273  11.792  1.5588 -0.0333  0.6250
 7901TIP3    H247899   1.129   4.198  11.696 -0.7814 -1.8158 -0.2479
 7902TIP3   OH247900   6.613   1.690  12.701  0.2397  0.3408  0.4681
 7902TIP3    H147901   6.563   1.771  12.713  1.7870  1.1644  1.8074
 7902TIP3    H247902   6.547   1.621  12.701 -1.1254  1.5784 -0.6851
 7903TIP3   OH247903   0.174   1.744  12.777 -0.3682  0.5362 -0.3494
 7903TIP3    H147904   0.265   1.716  12.776 -1.1382 -2.4674 -3.1508
 7903TIP3    H247905   0.132   1.690  12.844 -0.7961 -1.2298 -1.9613
 7904TIP3   OH247906   4.928   0.321  12.037  0.1820 -0.7232  0.1603
 7904TIP3    H147907   4.867   0.291  11.969  0.2551 -1.3930  0.3852
 7904TIP3    H247908   4.977   0.392  11.996  0.0574 -0.9624 -0.4059
 7905TIP3   OH247909   4.136   6.592  12.728 -0.1127  0.0294  0.2906
 7905TIP3    H147910   4.178   6.512  12.760  0.8820  0.3902 -0.0680
 7905TIP3    H247911   4.193   6.622  12.657 -0.9642  0.5684 -0.1810
 7906TIP3   OH247912   0.501   4.197  12.896 -0.3466 -0.2037 -0.1099
 7906TIP3    H147913   0.562   4.219  12.966 -1.8778 -0.8301  1.5067
 7906TIP3    H247914   0.447   4.276  12.884  0.5125  0.2423 -1.3166
 7907TIP3   OH247915   1.766   5.481  17.349 -0.2150  0.1236 -0.0899
 7907TIP3    H147916   1.700   5.550  17.354 -0.4389 -0.1359  0.5926
 7907TIP3    H247917   1.716   5.402  17.327  0.1909  0.3942 -2.2069
 7908TIP3   OH247918   3.518   2.221  10.452  0.7276 -0.6639 -0.2339
 7908TIP3    H147919   3.533   2.139  10.499 -0.6838 -0.8618 -0.0739
 7908TIP3    H247920   3.454   2.268  10.506 -0.4037 -0.5927 -1.5837
 7909TIP3   OH247921   4.580   7.595  11.626  0.2821  0.1258  0.3449
 7909TIP3    H147922   4.501   7.567  11.672  0.5873 -0.2364  0.6598
 7909TIP3    H247923   4.558   7.681  11.590 -0.9324 -0.8369 -1.3315
 7910TIP3   OH247924   1.752   2.444  10.992  0.3775 -0.4587 -0.5707
 7910TIP3    H147925   1.824   2.382  10.999 -0.3754 -1.2878  0.0036
 7910TIP3    H247926   1.680   2.403  11.040 -0.0301  1.0298  0.1466
 7911TIP3   OH247927   7.166   6.303  11.355  0.4095  0.3147  0.2344
 7911TIP3    H147928   7.132   6.392  11.366 -1.9369 -0.4294 -0.3473
 7911TIP3    H247929   7.094   6.255  11.315  1.4605 -1.9752  0.9360
 7912TIP3   OH247930   2.961   6.197  12.758  0.2408 -0.7036 -0.1405
 7912TIP3    H147931   2.899   6.160  12.821 -0.4093 -0.8341 -0.8316
 7912TIP3    H247932   2.906   6.247  12.697  1.1667  2.1499  1.2262
 7913TIP3   OH247933   2.170   0.696  10.774  0.4432  0.7555  0.1672
 7913TIP3    H147934   2.231   0.720  10.843 -1.1312 -0.9675  2.2961
 7913TIP3    H247935   2.197   0.607  10.749  0.4232  1.0100 -0.7899
 7914TIP3   OH247936   3.976   7.554  12.415  0.0164 -0.0175 -0.4809
 7914TIP3    H147937   4.063   7.576  12.450 -0.3982 -1.1339  1.3957
 7914TIP3    H247938   3.989   7.472  12.366 -0.1259 -0.7651  0.6913
 7915TIP3   OH247939   6.772   4.026  11.821 -0.0290 -0.1727  0.2939
 7915TIP3    H147940   6.826   4.050  11.746 -1.4780 -0.6919 -0.9902
 7915TIP3    H247941   6.832   4.022  11.895  1.6939 -0.8000 -1.0737
 7916TIP3   OH247942   2.345   4.713  12.842  0.3237 -0.8882 -0.3210
 7916TIP3    H147943   2.410   4.694  12.909  1.3616  1.3076 -0.6129
 7916TIP3    H247944   2.261   4.705  12.886  0.8373 -2.3696  0.4425
 7917TIP3   OH247945   0.525   1.934  12.000 -0.0304  0.5655 -0.0405
 7917TIP3    H147946   0.515   1.944  11.905  2.5184  3.5557 -0.1589
 7917TIP3    H247947   0.484   2.013  12.036  0.4960  0.2768  1.2164
 7918TIP3   OH247948   7.561   4.873  13.043 -0.3365 -0.3331 -0.4227
 7918TIP3    H147949   7.561   4.804  13.109 -0.2579  0.5833  0.5617
 7918TIP3    H247950   7.649   4.910  13.048  0.4187 -1.6558 -2.5872
 7919TIP3   OH247951   3.679   6.814  12.298  0.5191  0.2170  1.1943
 7919TIP3    H147952   3.712   6.725  12.308 -0.0345 -0.0125  0.9753
 7919TIP3    H247953   3.746   6.869  12.338  1.4773 -0.1926  0.1959
 7920TIP3   OH247954   5.478   5.325  11.159  0.4252 -0.6267 -0.0804
 7920TIP3    H147955   5.486   5.401  11.217  0.7184  0.8050 -1.8930
 7920TIP3    H247956   5.566   5.312  11.124  0.3853 -1.8595  0.2242
 7921TIP3   OH247957   2.219   6.693  11.455  0.3652 -0.2736  0.0295
 7921TIP3    H147958   2.312   6.715  11.463  0.5909 -1.0060 -0.5506
 7921TIP3    H247959   2.205   6.681  11.361 -0.5772  0.9299 -0.0000
 7922TIP3   OH247960   2.802   1.765  11.153 -0.8562 -0.6243 -0.1877
 7922TIP3    H147961   2.788   1.836  11.216  1.0332  1.7865 -2.2997
 7922TIP3    H247962   2.743   1.784  11.081  2.9318  1.9437 -3.0334
 7923TIP3   OH247963   4.027   7.034  11.045  0.0281  0.1092 -0.1011
 7923TIP3    H147964   3.984   7.044  11.130 -0.6547 -1.2626 -0.2527
 7923TIP3    H247965   3.954   7.026  10.983  0.5208  0.6883 -0.7643
 7924TIP3   OH247966   4.219   0.280  12.117  0.2499 -0.1332 -0.0288
 7924TIP3    H147967   4.193   0.277  12.025  0.5975  0.0284 -0.1324
 7924TIP3    H247968   4.170   0.354  12.153 -0.0189 -0.3030 -0.0404
 7925TIP3   OH247969   1.727   5.056  11.473  0.1502 -0.2998 -0.1416
 7925TIP3    H147970   1.707   4.983  11.415  0.8914 -0.0252 -0.7541
 7925TIP3    H247971   1.676   5.129  11.438  1.2913  0.1027 -1.0172
 7926TIP3   OH247972   5.496   4.229  10.841 -0.1136 -0.4812  0.3231
 7926TIP3    H147973   5.587   4.254  10.859 -0.3407  0.0012  0.8675
 7926TIP3    H247974   5.483   4.251  10.749 -0.3300  1.6123  0.8029
 7927TIP3   OH247975   3.401   0.653  10.744  0.1893  0.4401 -0.5733
 7927TIP3    H147976   3.319   0.695  10.718 -0.6315  1.7268  3.3875
 7927TIP3    H247977   3.380   0.560  10.749 -1.7049  0.8952  2.0139
 7928TIP3   OH247978   6.081   6.770  12.833 -0.5335 -0.1109 -0.3795
 7928TIP3    H147979   6.120   6.689  12.867 -0.2756  0.4224  0.6531
 7928TIP3    H247980   6.008   6.787  12.892  1.1619  1.9450  1.2979
 7929TIP3   OH247981   2.826   6.154  13.365  0.1842  0.0653 -0.1066
 7929TIP3    H147982   2.802   6.064  13.385  0.5559  0.0346  0.2087
 7929TIP3    H247983   2.746   6.204  13.378  0.7099  0.2861  2.9640
 7930TIP3   OH247984   2.434   0.379  12.091  0.3003  0.7493 -0.1834
 7930TIP3    H147985   2.415   0.383  12.184 -0.9414  0.3674 -0.4039
 7930TIP3    H247986   2.349   0.391  12.048  0.7584  0.3540 -1.2483
 7931TIP3   OH247987   4.950   0.008  13.193 -0.1663 -0.0200  0.2851
 7931TIP3    H147988   5.036   0.041  13.222 -0.7023  0.5930  1.2097
 7931TIP3    H247989   4.912   0.081  13.144 -0.7053  0.1891  1.0047
 7932TIP3   OH247990   5.568   5.727  11.870  0.2947  0.0921  0.4411
 7932TIP3    H147991   5.644   5.696  11.918  0.2913  0.5341  0.7387
 7932TIP3    H247992   5.507   5.653  11.871  0.1941  0.1801  1.3434
 7933TIP3   OH247993   1.454   2.373  11.762  0.6925  0.3112  0.0344
 7933TIP3    H147994   1.416   2.442  11.709 -0.1767 -0.0257  0.2107
 7933TIP3    H247995   1.397   2.297  11.750  2.4164 -0.8735 -1.3179
 7934TIP3   OH247996   5.552   3.825  12.226  0.2688 -0.4204 -0.2842
 7934TIP3    H147997   5.492   3.759  12.262 -0.9395  0.2242 -1.0425
 7934TIP3    H247998   5.623   3.773  12.187 -0.4163 -1.2761 -0.4397
 7935TIP3   OH247999   1.701   5.066  11.148  0.1408 -0.3468 -0.2455
 7935TIP3    H148000   1.663   5.015  11.077  0.3180 -0.5273 -0.2117
 7935TIP3    H248001   1.741   5.000  11.206 -0.1754 -0.2172  0.1236
 7936TIP3   OH248002   5.358   0.101  12.139  0.1077  0.0754 -0.6780
 7936TIP3    H148003   5.304   0.167  12.096  0.4194  0.3261 -0.6931
 7936TIP3    H248004   5.371   0.033  12.072  0.4753  0.3965 -0.9362
 7937TIP3   OH248005   3.103   2.682  10.958  0.5169 -0.0605  0.1007
 7937TIP3    H148006   3.176   2.743  10.969  0.5065 -0.2629  1.5381
 7937TIP3    H248007   3.121   2.638  10.875  1.5338  0.5638 -0.0279
 7938TIP3   OH248008   0.482   2.986  11.212  0.1503  0.2304  0.0452
 7938TIP3    H148009   0.531   3.002  11.131 -0.9864 -0.8984 -0.8962
 7938TIP3    H248010   0.439   2.901  11.198  0.1495 -0.1323  1.9499
 7939TIP3   OH248011   3.857   5.644  12.958 -0.0232  0.1925  0.5979
 7939TIP3    H148012   3.822   5.710  13.018 -0.8326  0.1929  0.1387
 7939TIP3    H248013   3.952   5.653  12.965 -0.1089  0.3698  1.6751
 7940TIP3   OH248014   2.510   2.640  11.482  0.8851 -0.7177  0.3909
 7940TIP3    H148015   2.448   2.648  11.410  0.3980  0.1180  0.8780
 7940TIP3    H248016   2.455   2.630  11.560  1.3771 -0.6294  0.7575
 7941TIP3   OH248017   6.892   2.954  10.922  0.0787 -0.4009  0.1523
 7941TIP3    H148018   6.928   2.994  10.842  0.6736  1.7906  1.4308
 7941TIP3    H248019   6.964   2.904  10.958 -0.1240 -1.2143 -0.5334
 7942TIP3   OH248020   5.738   5.503  12.664 -0.1170  0.9172  0.3080
 7942TIP3    H148021   5.724   5.409  12.654 -0.7771  0.8729  1.3964
 7942TIP3    H248022   5.789   5.529  12.588 -0.9576 -0.1022 -0.6248
 7943TIP3   OH248023   6.710   3.428  12.749 -0.3144 -0.0879  0.2114
 7943TIP3    H148024   6.763   3.487  12.695 -0.0709  0.0079  0.5474
 7943TIP3    H248025   6.619   3.447  12.723 -0.5004  2.5463  2.2942
 7944TIP3   OH248026   7.057   4.939  11.740  0.6751  0.5706 -0.4677
 7944TIP3    H148027   6.985   4.899  11.789  1.0263 -0.7239 -0.9849
 7944TIP3    H248028   7.034   4.927  11.648  1.0279  1.1455 -0.6422
 7945TIP3   OH248029   1.738   3.524  11.857  0.7468 -0.0213  0.1997
 7945TIP3    H148030   1.690   3.471  11.920 -0.6353  0.9962  0.0262
 7945TIP3    H248031   1.828   3.523  11.889 -0.1540  1.7885  3.1563
 7946TIP3   OH248032   0.235   6.321  12.338  0.1756  0.5306  0.0546
 7946TIP3    H148033   0.312   6.376  12.354  0.3426  0.2470  0.2211
 7946TIP3    H248034   0.221   6.328  12.243  0.6273  0.2874 -0.0334
 7947TIP3   OH248035   0.805   3.255  11.924 -0.2120 -0.0456  0.0786
 7947TIP3    H148036   0.880   3.213  11.880 -0.1526 -0.0820  0.2131
 7947TIP3    H248037   0.731   3.238  11.866 -0.8637 -3.0549  1.5575
 7948TIP3   OH248038   6.599   2.145  12.585  0.2709 -0.0227 -0.4053
 7948TIP3    H148039   6.515   2.111  12.616  0.2314  0.3529 -0.0931
 7948TIP3    H248040   6.583   2.169  12.494  0.1449 -0.3000 -0.4596
 7949TIP3   OH248041   6.399   3.683  10.826 -0.0843 -0.2507 -0.1854
 7949TIP3    H148042   6.486   3.707  10.795  0.0381 -0.3255  0.0936
 7949TIP3    H248043   6.395   3.588  10.815 -0.6439 -0.0992 -1.4835
 7950TIP3   OH248044   7.366   3.659  13.131 -0.3825  0.3800  0.3088
 7950TIP3    H148045   7.396   3.720  13.198  2.2652 -0.4923  0.0561
 7950TIP3    H248046   7.377   3.706  13.049  3.2844 -0.7743 -0.0525
 7951TIP3   OH248047   3.575   6.394  12.040 -0.3943 -0.5193  0.0975
 7951TIP3    H148048   3.507   6.356  11.985 -1.2799 -0.5816  1.2108
 7951TIP3    H248049   3.580   6.485  12.013  0.0898 -0.8444 -0.9591
 7952TIP3   OH248050   5.925   3.312  11.762  0.6808 -0.2206 -0.0488
 7952TIP3    H148051   5.833   3.320  11.788  0.5867 -1.1226 -0.0606
 7952TIP3    H248052   5.922   3.260  11.682  1.1707  0.2197 -0.3574
 7953TIP3   OH248053   7.359   3.963  11.140  0.3312  0.0560  0.1032
 7953TIP3    H148054   7.392   4.050  11.163 -0.8150  0.9090 -1.2569
 7953TIP3    H248055   7.265   3.976  11.128  0.1432 -1.3768 -0.1307
 7954TIP3   OH248056   0.044   4.608  12.349 -0.1597 -0.9044  0.6337
 7954TIP3    H148057   0.138   4.610  12.365 -0.0951  0.4424  0.2418
 7954TIP3    H248058   0.027   4.684  12.293 -1.6677 -0.3031  1.8216
 7955TIP3   OH248059   2.673   4.759  11.764  0.1348 -0.1334 -0.4466
 7955TIP3    H148060   2.578   4.750  11.764  0.0829  0.3436 -0.1366
 7955TIP3    H248061   2.702   4.702  11.836  0.0257  0.1947 -0.1367
 7956TIP3   OH248062   2.495   2.641  13.308  0.2556  0.3927 -0.5641
 7956TIP3    H148063   2.399   2.645  13.300  0.1993 -0.7071 -0.5706
 7956TIP3    H248064   2.524   2.732  13.294 -0.8376  0.8885  0.2584
 7957TIP3   OH248065   0.123   4.049  12.390  0.6574  0.2515 -0.2813
 7957TIP3    H148066   0.080   4.123  12.433  1.6486  0.2658  0.7536
 7957TIP3    H248067   0.115   4.067  12.297 -0.3726  0.9243 -0.0743
 7958TIP3   OH248068   7.594   3.983  10.804  0.1598  0.4066 -0.0603
 7958TIP3    H148069   7.670   3.970  10.860  0.9639 -0.0120 -1.2028
 7958TIP3    H248070   7.558   3.895  10.791 -1.2725  0.7125  1.4211
 7959TIP3   OH248071   5.939   2.275  10.960 -0.2611 -0.3088  0.1680
 7959TIP3    H148072   6.022   2.238  10.930 -1.3794 -1.2087 -2.0246
 7959TIP3    H248073   5.878   2.262  10.887 -1.5655  3.1839  0.4304
 7960TIP3   OH248074   1.380   3.770  12.697  0.4817  0.0724 -0.1197
 7960TIP3    H148075   1.381   3.819  12.779  0.1439 -0.3291  0.1248
 7960TIP3    H248076   1.464   3.724  12.695 -0.1329 -1.1140  0.7278
 7961TIP3   OH248077   7.239   3.160  13.265 -0.1558  0.3704  0.7351
 7961TIP3    H148078   7.161   3.127  13.308  0.1572 -0.5529  0.6098
 7961TIP3    H248079   7.216   3.164  13.172 -1.1184  3.1550  0.9800
 7962TIP3   OH248080   4.797   6.960  12.141  0.6449  0.4177  0.1042
 7962TIP3    H148081   4.724   6.910  12.177  0.7219 -0.0067 -0.3193
 7962TIP3    H248082   4.760   7.047  12.124 -0.2341 -0.2321 -1.5928
 7963TIP3   OH248083   5.609   3.980  11.996  0.1259 -0.2101  0.1653
 7963TIP3    H148084   5.527   3.959  12.041  0.1318 -1.9370 -0.5614
 7963TIP3    H248085   5.639   4.061  12.038 -1.9303  0.4665  0.4463
 7964TIP3   OH248086   6.708   5.397  12.788  0.6169  0.5641 -0.2594
 7964TIP3    H148087   6.665   5.359  12.865  0.3205 -0.4455 -0.9088
 7964TIP3    H248088   6.801   5.397  12.812  0.4719  0.8265  0.3353
 7965TIP3   OH248089   0.868   4.441  11.221  0.3385  0.3964 -0.0608
 7965TIP3    H148090   0.942   4.500  11.232 -0.5223  1.2653  1.4261
 7965TIP3    H248091   0.862   4.393  11.303 -0.9350  0.6030  0.0024
 7966TIP3   OH248092   4.075   1.220  11.965  0.0180 -0.4505 -0.2621
 7966TIP3    H148093   4.033   1.223  11.879  0.9449 -1.6353 -0.7806
 7966TIP3    H248094   4.033   1.147  12.010  2.6842 -2.9298 -1.4946
 7967TIP3   OH248095   6.223   5.017  10.743  0.3015  0.2064 -0.2621
 7967TIP3    H148096   6.135   5.044  10.716  0.3498  1.5165  0.7549
 7967TIP3    H248097   6.218   4.923  10.755 -1.4336  0.4570  1.3373
 7968TIP3   OH248098   6.429   1.223  10.806 -0.1305 -0.4509  0.3369
 7968TIP3    H148099   6.465   1.289  10.747 -1.8431 -0.4386 -0.7611
 7968TIP3    H248100   6.505   1.172  10.835  1.0502  1.1435  0.1420
 7969TIP3   OH248101   1.134   3.638  12.727 -0.1096  0.2601 -0.4414
 7969TIP3    H148102   1.204   3.682  12.680  0.7613 -1.8902 -1.2927
 7969TIP3    H248103   1.179   3.576  12.784 -1.2923 -0.1646  0.0579
 7970TIP3   OH248104   1.443   1.126  11.938 -0.0674 -0.0399  0.4610
 7970TIP3    H148105   1.444   1.211  11.893  1.6762 -0.3857 -0.2246
 7970TIP3    H248106   1.431   1.062  11.868  0.0697 -0.4415  0.8035
 7971TIP3   OH248107   1.215   0.450  12.038 -0.0466 -0.1355  0.4385
 7971TIP3    H148108   1.266   0.447  11.957 -0.7692  1.4385 -0.1209
 7971TIP3    H248109   1.124   0.445  12.009 -0.3063 -2.5503  1.3958
 7972TIP3   OH248110   1.053   4.891  10.617  0.2887 -0.0786 -0.0191
 7972TIP3    H148111   1.020   4.835  10.687 -0.1061 -0.4890 -0.5290
 7972TIP3    H248112   1.002   4.866  10.540 -0.6670  1.7470 -0.0261
 7973TIP3   OH248113   3.036   1.784  10.791  0.2078 -0.1109  0.0326
 7973TIP3    H148114   3.056   1.800  10.698  1.5400 -1.4928  0.0535
 7973TIP3    H248115   3.018   1.690  10.796  1.5251 -0.3219  1.3927
 7974TIP3   OH248116   5.355   2.129  11.348  0.3471 -0.0768  0.2762
 7974TIP3    H148117   5.439   2.130  11.302 -0.1466  1.5245 -0.6682
 7974TIP3    H248118   5.295   2.087  11.285 -0.3072  2.0225 -0.5869
 7975TIP3   OH248119   4.080   0.940  11.420 -0.8066 -0.7535  0.3092
 7975TIP3    H148120   4.072   0.919  11.513 -3.3955  0.8712  0.5440
 7975TIP3    H248121   4.159   0.994  11.414 -1.4309  0.4150  1.8570
 7976TIP3   OH248122   5.366   0.519  12.090 -0.4348 -0.1237  0.0963
 7976TIP3    H148123   5.378   0.612  12.071  0.0453  0.3147  2.2807
 7976TIP3    H248124   5.387   0.475  12.008 -0.1055  1.6553 -0.8223
 7977TIP3   OH248125   6.273   6.921  11.277 -0.2634 -0.1379 -0.2243
 7977TIP3    H148126   6.209   6.878  11.220  0.6414 -3.2468  0.8676
 7977TIP3    H248127   6.356   6.880  11.253  0.2045 -1.3163  2.9288
 7978TIP3   OH248128   3.771   5.788  11.615  0.3658 -0.2710  0.1538
 7978TIP3    H148129   3.817   5.722  11.563  0.2745  0.7452 -1.2788
 7978TIP3    H248130   3.682   5.753  11.624  0.5470 -0.7398  0.1490
 7979TIP3   OH248131   5.402   2.004  12.528  0.0837 -0.1936 -0.3868
 7979TIP3    H148132   5.352   2.083  12.546  0.1170 -0.5056  1.1672
 7979TIP3    H248133   5.486   2.017  12.572  0.3588 -0.8076 -0.7090
 7980TIP3   OH248134   1.874   7.287  11.673  0.0586 -0.4107 -0.1838
 7980TIP3    H148135   1.831   7.254  11.752 -0.6658 -1.3072 -0.9267
 7980TIP3    H248136   1.814   7.353  11.638  1.8974  2.5336  1.7738
 7981TIP3   OH248137   3.591   0.410  12.733  0.1139 -0.3227  0.3522
 7981TIP3    H148138   3.568   0.454  12.816  0.5838 -0.8326  0.7621
 7981TIP3    H248139   3.686   0.419  12.727 -0.1602  2.6592 -1.8226
 7982TIP3   OH248140   4.410   2.901  12.193  0.2240  0.2023  0.6872
 7982TIP3    H148141   4.330   2.901  12.246 -0.0591 -0.4305  0.2750
 7982TIP3    H248142   4.477   2.937  12.250  0.4478 -2.5363  2.3129
 7983TIP3   OH248143   1.904   6.974  12.442 -0.3772 -0.6777  0.1096
 7983TIP3    H148144   1.965   6.946  12.510 -0.4240 -1.4341 -0.1568
 7983TIP3    H248145   1.957   7.024  12.380  0.3257 -2.6584 -0.9586
 7984TIP3   OH248146   7.644   3.856  12.798 -0.5816  0.7296  0.4130
 7984TIP3    H148147   7.680   3.842  12.711 -1.6253  0.0457  0.0792
 7984TIP3    H248148   7.579   3.925  12.786  0.2772  1.6576  0.9346
 7985TIP3   OH248149   6.585   4.632  10.729 -0.8833 -0.0359 -0.1176
 7985TIP3    H148150   6.506   4.587  10.697 -1.0210  1.2136 -1.6710
 7985TIP3    H248151   6.646   4.627  10.656  0.9377 -1.8692  1.4165
 7986TIP3   OH248152   2.772   3.948  10.956  0.0056 -0.1152 -0.0798
 7986TIP3    H148153   2.680   3.971  10.948 -0.1058 -1.0607 -2.3205
 7986TIP3    H248154   2.779   3.904  11.041 -1.7943 -0.7318 -0.2097
 7987TIP3   OH248155   6.817   4.362  11.358 -0.2816 -0.8388 -0.9434
 7987TIP3    H148156   6.823   4.414  11.279 -1.7958  1.6548  0.4340
 7987TIP3    H248157   6.881   4.401  11.418 -1.3322 -0.6081  0.0677
 7988TIP3   OH248158   2.853   3.669  10.875 -0.1339 -0.2925 -0.0140
 7988TIP3    H148159   2.824   3.700  10.960  0.6324 -0.3004  0.2583
 7988TIP3    H248160   2.922   3.730  10.849  0.7013 -1.1667  0.0803
 7989TIP3   OH248161   7.108   1.631  12.678 -0.4244 -0.2203  0.5823
 7989TIP3    H148162   7.112   1.655  12.770  1.1313 -1.1049  0.7749
 7989TIP3    H248163   7.199   1.616  12.652 -0.8404 -0.1452 -1.0593
 7990TIP3   OH248164   4.170   1.367  11.250 -0.5717  0.4961 -0.3291
 7990TIP3    H148165   4.086   1.411  11.240 -0.3100  1.5453  1.6507
 7990TIP3    H248166   4.232   1.437  11.269  0.0937 -0.5492  1.6343
 7991TIP3   OH248167   6.923   4.816  11.210  0.2555  0.1591 -0.2255
 7991TIP3    H148168   6.907   4.903  11.174  1.4451  0.2077 -0.6778
 7991TIP3    H248169   6.952   4.763  11.136  4.0542  0.6056  0.6950
 7992TIP3   OH248170   0.845   1.348  12.065  0.4702  0.3037 -0.7097
 7992TIP3    H148171   0.924   1.376  12.018  0.6397  0.6559 -0.2238
 7992TIP3    H248172   0.857   1.383  12.153 -0.5328  0.9301 -0.8056
 7993TIP3   OH248173   4.257   5.798  12.412  0.9522 -0.4237  0.1423
 7993TIP3    H148174   4.244   5.876  12.359  0.8864 -1.7653 -1.9265
 7993TIP3    H248175   4.179   5.745  12.398  0.3979 -0.3503  2.5447
 7994TIP3   OH248176   5.017   5.668  11.682  0.3873  0.3319  0.2584
 7994TIP3    H148177   4.980   5.604  11.743  0.8758 -0.6393 -0.4342
 7994TIP3    H248178   5.026   5.748  11.734 -0.8565  0.0445  0.9613
 7995TIP3   OH248179   6.951   2.733  13.529 -0.1463 -0.4512  0.1947
 7995TIP3    H148180   6.967   2.782  13.448  3.3018 -1.5597  0.0687
 7995TIP3    H248181   6.941   2.642  13.500  1.1869 -0.8645  0.9704
 7996TIP3   OH248182   4.510   0.626  10.983 -0.5953 -0.7239  0.9942
 7996TIP3    H148183   4.541   0.541  10.951  0.3091 -0.3710  0.9167
 7996TIP3    H248184   4.585   0.684  10.974 -0.9772 -0.0941  1.7742
 7997TIP3   OH248185   4.227   2.621  13.098 -0.4196 -0.4199 -0.0176
 7997TIP3    H148186   4.317   2.594  13.117  0.5704  2.1944 -0.4549
 7997TIP3    H248187   4.199   2.564  13.027  0.6259 -1.7273  0.5707
 7998TIP3   OH248188   3.648   2.943  11.845 -0.7278 -0.2044  0.4446
 7998TIP3    H148189   3.561   2.906  11.830 -0.1425 -1.5046  0.0598
 7998TIP3    H248190   3.707   2.885  11.797  0.3908  0.4143  1.0274
 7999TIP3   OH248191   7.085   4.082  11.051  0.1238 -0.3766 -0.2558
 7999TIP3    H148192   7.110   4.025  10.978  0.9501 -0.9234  0.4391
 7999TIP3    H248193   7.089   4.171  11.015 -2.7424 -0.7410 -1.8482
 8000TIP3   OH248194   7.559   1.508  10.759  0.4709  0.0739 -0.6217
 8000TIP3    H148195   7.618   1.555  10.818  1.0585 -0.0871 -1.0762
 8000TIP3    H248196   7.473   1.517  10.800  0.7299  0.7196 -0.1970
 8001TIP3   OH248197   7.264   3.389  10.174 -0.1679  0.0870 -0.5707
 8001TIP3    H148198   7.173   3.394  10.204 -0.1266 -2.7463  0.3771
 8001TIP3    H248199   7.259   3.343  10.090  0.3754 -0.1626 -0.4709
 8002TIP3   OH248200   3.457   2.640  11.133 -0.0371 -0.2801  0.4269
 8002TIP3    H148201   3.391   2.683  11.078  0.4356 -1.1818 -0.8885
 8002TIP3    H248202   3.532   2.628  11.075  1.1986  0.4568  1.8084
 8003TIP3   OH248203   4.506   6.812  11.359  0.4467 -0.2171 -0.0856
 8003TIP3    H148204   4.550   6.780  11.280  0.1144  0.3423 -0.4995
 8003TIP3    H248205   4.457   6.736  11.392 -1.8190  0.3081 -2.0661
 8004TIP3   OH248206   1.759   4.583  13.226  0.4296 -0.3640  0.5512
 8004TIP3    H148207   1.813   4.549  13.155  0.4643  1.6837 -0.4706
 8004TIP3    H248208   1.757   4.677  13.211 -0.1320  0.0514  2.8931
 8005TIP3   OH248209   6.193   7.301  11.242 -0.0388  0.0601 -0.0835
 8005TIP3    H148210   6.124   7.305  11.176  0.6861  0.8979 -0.8175
 8005TIP3    H248211   6.147   7.304  11.326 -0.8990  0.3591 -0.5609
 8006TIP3   OH248212   3.940   1.069  10.977  0.4782 -0.3164 -0.4659
 8006TIP3    H148213   4.030   1.100  10.989  0.9555 -1.0141 -1.9734
 8006TIP3    H248214   3.921   1.084  10.884 -0.7597 -0.6981 -0.3007
 8007TIP3   OH248215   4.843   0.061  11.548  0.1261 -0.2546 -0.1126
 8007TIP3    H148216   4.929   0.023  11.564  0.3641  0.5113  0.5193
 8007TIP3    H248217   4.813   0.020  11.467  2.2451  1.3619 -1.8607
 8008TIP3   OH248218   1.465   4.698  10.880 -0.1970  0.2945  0.0080
 8008TIP3    H148219   1.409   4.767  10.917 -1.2012 -0.5336  0.0664
 8008TIP3    H248220   1.494   4.734  10.796 -0.3188  0.9805  0.2500
 8009TIP3   OH248221   4.200   3.677  11.635 -0.2796 -0.4258 -0.2918
 8009TIP3    H148222   4.180   3.617  11.706  0.1393 -0.5038 -0.2406
 8009TIP3    H248223   4.280   3.643  11.596 -0.8476 -0.7558 -1.2181
 8010TIP3   OH248224   6.629   6.504  13.134 -0.1034  0.7007 -0.5895
 8010TIP3    H148225   6.559   6.492  13.069 -0.1990 -1.5235 -0.1665
 8010TIP3    H248226   6.593   6.567  13.197 -3.7209 -3.4093  2.0257
 8011TIP3   OH248227   4.945   1.246  12.309  0.3969  0.6309  0.1474
 8011TIP3    H148228   4.927   1.155  12.333 -1.3843  1.0838  0.6994
 8011TIP3    H248229   4.999   1.280  12.381 -1.1907  0.7199  1.3737
 8012TIP3   OH248230   1.146   6.674  11.220 -0.7860  0.1474 -0.8772
 8012TIP3    H148231   1.105   6.709  11.141 -1.0628  1.4937 -0.1799
 8012TIP3    H248232   1.210   6.741  11.246 -1.8302  0.5376  0.8946
 8013TIP3   OH248233   4.030   7.214  12.841  0.2437 -0.1416  0.2974
 8013TIP3    H148234   4.120   7.228  12.869  0.0647  3.6971 -0.4479
 8013TIP3    H248235   3.992   7.158  12.909  2.7579 -0.5666  1.4676
 8014TIP3   OH248236   0.364   6.541  12.525 -0.3494 -0.1192  0.2699
 8014TIP3    H148237   0.430   6.562  12.591 -1.4557  0.8307  1.1252
 8014TIP3    H248238   0.356   6.620  12.472 -0.4079 -0.4263 -0.1956
 8015TIP3   OH248239   6.035   3.291  12.383  0.1164  0.0187 -0.6022
 8015TIP3    H148240   5.960   3.332  12.339 -0.5709  1.5154  1.7961
 8015TIP3    H248241   6.104   3.356  12.376  0.1608  0.0439  0.0236
 8016TIP3   OH248242   0.027   5.843  13.254  0.4900  0.1414 -0.3288
 8016TIP3    H148243   0.077   5.861  13.333  2.7424 -2.2755 -1.0817
 8016TIP3    H248244   0.006   5.749  13.259 -0.5117  0.2319 -1.9669
 8017TIP3   OH248245   2.984   4.908  11.899  0.2901 -0.3621  0.1847
 8017TIP3    H148246   3.073   4.941  11.902  0.7794 -1.2861 -2.0506
 8017TIP3    H248247   2.992   4.820  11.860 -1.6082 -0.3166 -0.4336
 8018TIP3   OH248248   3.497   1.626  11.427  0.3161 -0.0656  0.3587
 8018TIP3    H148249   3.472   1.536  11.407 -1.5448  0.6199 -0.6537
 8018TIP3    H248250   3.414   1.674  11.429  1.0569  1.3113  2.7196
 8019TIP3   OH248251   0.185   7.478  11.500  0.7005  0.0036 -0.0085
 8019TIP3    H148252   0.267   7.436  11.474 -0.1130 -1.7597  0.1339
 8019TIP3    H248253   0.210   7.540  11.569  1.8789 -0.6630  0.1784
 8020TIP3   OH248254   2.428   4.322  11.463 -0.5773  0.7336  0.6083
 8020TIP3    H148255   2.472   4.391  11.512 -0.6264  1.6933 -0.6421
 8020TIP3    H248256   2.499   4.267  11.430 -0.5533 -0.0498  1.8844
 8021TIP3   OH248257   5.397   5.862  13.151 -0.1491  0.2325 -0.2584
 8021TIP3    H148258   5.341   5.935  13.176 -0.7128 -0.2543 -0.0774
 8021TIP3    H248259   5.350   5.784  13.182  1.1082 -0.1375  0.8349
 8022TIP3   OH248260   3.864   4.396  12.804 -0.3138  0.1334  0.2795
 8022TIP3    H148261   3.857   4.466  12.739  0.8639  0.6021  0.6440
 8022TIP3    H248262   3.788   4.340  12.786 -1.9070  2.0578  0.6782
 8023TIP3   OH248263   0.258   2.431  12.956 -0.1735  0.7530  0.4591
 8023TIP3    H148264   0.312   2.418  12.878  1.3129  1.4457  1.3318
 8023TIP3    H248265   0.234   2.524  12.954 -0.1429  0.7694  0.8120
 8024TIP3   OH248266   5.659   0.591  12.650 -0.3465  0.1277  0.3750
 8024TIP3    H148267   5.715   0.621  12.721  0.6069 -2.0444  0.6240
 8024TIP3    H248268   5.595   0.534  12.692 -0.1703 -0.6702 -0.3978
 8025TIP3   OH248269   2.604   3.177  12.995  0.0462 -0.7871 -0.0136
 8025TIP3    H148270   2.688   3.218  13.014  0.1959 -1.1195  0.0488
 8025TIP3    H248271   2.553   3.246  12.953 -0.4443  0.1174  1.9405
 8026TIP3   OH248272   2.451   4.205  12.533 -0.1078 -0.2809 -0.1274
 8026TIP3    H148273   2.500   4.154  12.597  1.0241  0.6038 -0.2641
 8026TIP3    H248274   2.427   4.142  12.466  0.5554 -0.8040  0.1130
 8027TIP3   OH248275   7.334   7.433  11.607  0.1233  0.1960 -0.4484
 8027TIP3    H148276   7.292   7.348  11.602  2.0284 -0.7928 -0.7539
 8027TIP3    H248277   7.428   7.413  11.611  0.5855  2.0962  3.4268
 8028TIP3   OH248278   7.554   7.245  11.314 -0.2777 -0.0357  0.0565
 8028TIP3    H148279   7.504   7.246  11.233  1.0401 -1.7792 -0.8529
 8028TIP3    H248280   7.488   7.228  11.382 -1.0618 -1.6273 -1.0245
 8029TIP3   OH248281   0.646   6.041  11.564  0.6610 -0.4744 -0.8905
 8029TIP3    H148282   0.576   5.981  11.590 -1.0728  1.7684  0.0385
 8029TIP3    H248283   0.629   6.120  11.616  3.2511  0.5728 -1.4930
 8030TIP3   OH248284   3.879   4.295  11.493  0.5699  0.5896 -0.2933
 8030TIP3    H148285   3.860   4.201  11.499 -0.7605  0.7854 -1.1022
 8030TIP3    H248286   3.817   4.336  11.554  0.2779  1.0229 -0.8660
 8031TIP3   OH248287   0.617   3.999  11.375  0.8801 -0.3831  0.2582
 8031TIP3    H148288   0.705   3.991  11.339 -0.0351  0.0734 -2.2314
 8031TIP3    H248289   0.589   3.909  11.392  1.8543 -0.5179  1.2393
 8032TIP3   OH248290   6.600   5.243  10.790 -0.3903 -0.3315  0.0571
 8032TIP3    H148291   6.574   5.309  10.855 -1.4979 -0.1492 -0.5611
 8032TIP3    H248292   6.587   5.285  10.706  1.4608 -0.4164 -0.3196
 8033TIP3   OH248293   5.293   2.393  11.446  0.0334 -0.0902  0.0159
 8033TIP3    H148294   5.366   2.432  11.397  1.2134 -0.5829  1.3024
 8033TIP3    H248295   5.291   2.302  11.417 -1.3855  0.3695 -1.4629
 8034TIP3   OH248296   1.972   5.819  11.007  0.3443 -0.1280 -0.2934
 8034TIP3    H148297   1.914   5.890  11.036  0.0358  0.5012 -2.3378
 8034TIP3    H248298   2.019   5.855  10.932  2.1472 -1.2194  0.2329
 8035TIP3   OH248299   0.517   2.654  11.916 -0.4533 -0.7577  0.2728
 8035TIP3    H148300   0.451   2.590  11.890 -0.7304 -0.2676 -0.2754
 8035TIP3    H248301   0.485   2.689  11.999 -0.3276 -1.2931  0.5434
 8036TIP3   OH248302   0.834   6.235  13.334  0.0968  0.4575  1.0868
 8036TIP3    H148303   0.757   6.219  13.388  0.0646  0.6830  1.1114
 8036TIP3    H248304   0.897   6.277  13.393  0.8111 -1.0704  1.4570
 8037TIP3   OH248305   5.181   3.811  12.048  0.2043 -0.3377  0.1157
 8037TIP3    H148306   5.238   3.833  11.974 -2.6158  0.4595 -1.9753
 8037TIP3    H248307   5.148   3.724  12.028 -1.7493  0.4718 -0.4700
 8038TIP3   OH248308   0.472   3.795  12.224 -0.0357 -0.1168 -0.3951
 8038TIP3    H148309   0.407   3.802  12.154  0.8450  2.1936 -1.0706
 8038TIP3    H248310   0.499   3.704  12.223 -1.2643 -0.5046 -1.9287
 8039TIP3   OH248311   0.246   0.956  13.522 -0.0332  0.1932  0.6212
 8039TIP3    H148312   0.222   0.871  13.485 -0.3512  0.3821  0.3916
 8039TIP3    H248313   0.324   0.937  13.575  1.1996  0.1327 -1.1292
 8040TIP3   OH248314   0.157   7.452  12.126  0.3201  0.0873  0.5123
 8040TIP3    H148315   0.154   7.467  12.031  0.2225  2.4122  0.8195
 8040TIP3    H248316   0.079   7.399  12.144 -1.2663  1.9282 -0.4183
 8041TIP3   OH248317   4.321   5.762  10.588  0.2808 -0.2667 -0.2257
 8041TIP3    H148318   4.353   5.840  10.634 -2.0072 -0.7298  2.4505
 8041TIP3    H248319   4.254   5.796  10.528 -0.9499 -0.1355  1.1739
 8042TIP3   OH248320   3.102   1.044  12.007 -0.1948  0.2681 -0.1598
 8042TIP3    H148321   3.102   0.968  12.066  1.4067  1.3362  1.3213
 8042TIP3    H248322   3.103   1.006  11.919 -0.9818 -1.4037  0.5084
 8043TIP3   OH248323   4.587   4.894  13.029  0.0916  0.2665 -0.5352
 8043TIP3    H148324   4.493   4.910  13.040 -0.2614 -1.8193 -0.2254
 8043TIP3    H248325   4.628   4.975  13.060 -1.5329  0.4438  1.3861
 8044TIP3   OH248326   3.892   1.246  12.376  0.3253 -0.1265 -0.1898
 8044TIP3    H148327   3.873   1.297  12.298  1.3921  0.1707 -0.2708
 8044TIP3    H248328   3.846   1.163  12.363 -0.9046  0.5666 -0.3384
 8045TIP3   OH248329   0.192   3.273  13.096 -0.1201  0.3211  0.2385
 8045TIP3    H148330   0.116   3.331  13.087 -0.2938 -0.2017 -2.3953
 8045TIP3    H248331   0.175   3.202  13.033  2.0474 -0.3849  0.3807
 8046TIP3   OH248332   2.142   6.826  10.690 -0.2332 -0.3247  0.2654
 8046TIP3    H148333   2.212   6.784  10.640  0.9569  1.1733  0.5596
 8046TIP3    H248334   2.091   6.754  10.726 -0.4931 -1.4519 -2.1889
 8047TIP3   OH248335   5.362   0.409  12.564  0.2919  0.1295  0.1889
 8047TIP3    H148336   5.391   0.332  12.514  1.2676  0.5163  0.1279
 8047TIP3    H248337   5.305   0.374  12.632 -1.2847 -0.3970 -1.3306
 8048TIP3   OH248338   2.936   5.483  11.013  0.3475  0.3154 -0.0996
 8048TIP3    H148339   3.006   5.428  10.977  0.3451  0.3818 -0.2072
 8048TIP3    H248340   2.865   5.477  10.949  1.2571  2.4410 -1.4431
 8049TIP3   OH248341   6.725   3.893  11.363 -0.0790  0.4463 -0.8296
 8049TIP3    H148342   6.799   3.954  11.353  0.7085 -0.6022 -1.7056
 8049TIP3    H248343   6.735   3.858  11.451 -0.0460  0.9486 -0.6276
 8050TIP3   OH248344   1.514   1.702  10.554  0.0936  0.4354  0.2144
 8050TIP3    H148345   1.596   1.683  10.507 -0.1234  2.0283 -0.9068
 8050TIP3    H248346   1.542   1.742  10.636  0.5169  2.3248 -0.7681
 8051TIP3   OH248347   5.240   6.355  11.260  0.3445  0.0128 -0.4572
 8051TIP3    H148348   5.267   6.323  11.174  1.7027 -1.1618  0.3605
 8051TIP3    H248349   5.298   6.310  11.321 -0.5235  0.9042  1.0739
 8052TIP3   OH248350   7.108   1.567  10.294  0.7292 -0.0918  0.0734
 8052TIP3    H148351   7.026   1.602  10.328  0.7846 -1.4865  1.8229
 8052TIP3    H248352   7.175   1.629  10.325  0.3773  1.0160 -1.3118
 8053TIP3   OH248353   5.164   4.558  12.941 -0.2299  0.4012  0.4199
 8053TIP3    H148354   5.070   4.575  12.943 -0.3010  0.3512 -1.1724
 8053TIP3    H248355   5.204   4.639  12.973 -0.8128 -0.0074  2.2981
 8054TIP3   OH248356   4.823   0.660  12.155 -0.4545 -0.1021 -0.4237
 8054TIP3    H148357   4.887   0.727  12.129 -0.4733  0.5085  0.9960
 8054TIP3    H248358   4.876   0.588  12.189 -0.4570 -0.6372 -1.4913
 8055TIP3   OH248359   3.239   6.410  10.650  0.3969  0.8555 -0.0111
 8055TIP3    H148360   3.314   6.448  10.605  1.5264 -0.8779  0.2850
 8055TIP3    H248361   3.238   6.452  10.736  0.2570  1.7602 -0.4394
 8056TIP3   OH248362   6.307   1.492  10.546  0.1336 -0.4842 -0.0003
 8056TIP3    H148363   6.261   1.504  10.629 -0.0453 -1.0871 -0.0068
 8056TIP3    H248364   6.391   1.454  10.571  1.0678  1.5605  0.0978
 8057TIP3   OH248365   1.448   2.482  10.865 -0.5015 -0.1901  0.3084
 8057TIP3    H148366   1.431   2.575  10.846 -0.7235 -0.3845 -0.4717
 8057TIP3    H248367   1.536   2.467  10.833 -1.3976 -0.8854 -2.0568
 8058TIP3   OH248368   6.053   3.172  11.235  0.2309 -0.2466 -0.4501
 8058TIP3    H148369   6.079   3.244  11.178 -1.1179 -0.2470 -1.0854
 8058TIP3    H248370   6.063   3.208  11.324  4.1437 -0.8287 -0.4611
 8059TIP3   OH248371   2.212   6.807  12.108 -0.2778  0.1660 -0.2745
 8059TIP3    H148372   2.301   6.772  12.102 -0.3663 -0.3800  1.1258
 8059TIP3    H248373   2.204   6.836  12.199 -1.6292 -0.0489 -0.2996
 8060TIP3   OH248374   0.155   2.815  11.690 -0.4042  0.1775 -0.9030
 8060TIP3    H148375   0.175   2.739  11.637  0.6254 -0.5047  0.3968
 8060TIP3    H248376   0.187   2.890  11.640 -0.8523 -0.2870 -1.9064
 8061TIP3   OH248377   6.887   5.280  12.466  0.2493  0.4989  0.2111
 8061TIP3    H148378   6.859   5.331  12.389  1.4947  0.1847 -0.4700
 8061TIP3    H248379   6.843   5.196  12.456  0.5923  0.3769 -0.2829
 8062TIP3   OH248380   1.758   5.811  12.834  0.2815 -0.2009 -0.2566
 8062TIP3    H148381   1.777   5.866  12.910  1.5364 -0.2505 -0.5113
 8062TIP3    H248382   1.719   5.732  12.871  0.2311  0.0697  0.2773
 8063TIP3   OH248383   0.463   5.224  10.867  0.3496 -0.3296 -0.0114
 8063TIP3    H148384   0.383   5.269  10.840  0.9780 -0.9784 -3.4766
 8063TIP3    H248385   0.497   5.276  10.939 -1.8367  1.4744 -0.1656
 8064TIP3   OH248386   6.838   2.366  11.672  0.0196 -0.0144  0.1063
 8064TIP3    H148387   6.825   2.444  11.618 -1.4384 -1.0804 -1.1842
 8064TIP3    H248388   6.750   2.331  11.685  0.7776 -3.0348 -1.8488
 8065TIP3   OH248389   4.654   0.519  11.905  0.0442 -0.6138  0.5451
 8065TIP3    H148390   4.711   0.446  11.880  0.4066 -0.1266 -0.0711
 8065TIP3    H248391   4.589   0.524  11.835  1.5330  1.2624 -0.8189
 8066TIP3   OH248392   3.819   7.518  11.483  0.5985 -0.5700  0.1328
 8066TIP3    H148393   3.884   7.496  11.416 -0.6106 -0.0718 -1.2625
 8066TIP3    H248394   3.735   7.518  11.436 -0.3037 -0.2306  1.6618
 8067TIP3   OH248395   6.223   1.299  11.318  0.5128  0.1905  0.4073
 8067TIP3    H148396   6.199   1.226  11.261  0.6314  0.2902  0.2294
 8067TIP3    H248397   6.309   1.327  11.287 -0.4446  1.8263 -0.9883
 8068TIP3   OH248398   5.683   3.742  10.261  0.3343 -0.5893 -0.2500
 8068TIP3    H148399   5.624   3.796  10.208  2.5571  0.6923 -1.6136
 8068TIP3    H248400   5.706   3.798  10.335 -1.1627 -1.6170  1.0691
 8069TIP3   OH248401   3.089   6.564  13.107 -0.1518  0.1055  0.4060
 8069TIP3    H148402   3.135   6.643  13.133  0.0497 -0.2413  1.1119
 8069TIP3    H248403   3.089   6.567  13.011  0.4788  0.5974  0.4149
 8070TIP3   OH248404   4.736   1.246  12.134  0.2547  0.3907 -0.3196
 8070TIP3    H148405   4.686   1.165  12.145 -0.0891  0.7879  1.2542
 8070TIP3    H248406   4.820   1.229  12.177  1.5650 -0.2483 -2.8869
 8071TIP3   OH248407   1.597   4.311  13.355 -0.0958  0.5968  0.1748
 8071TIP3    H148408   1.646   4.378  13.403  1.2115  0.1926 -0.5407
 8071TIP3    H248409   1.505   4.334  13.370  0.2913  1.5821  1.2854
 8072TIP3   OH248410   4.718   6.302  11.918 -0.0057  0.0496 -0.4770
 8072TIP3    H148411   4.727   6.339  12.006 -0.3658  0.5167 -0.6295
 8072TIP3    H248412   4.623   6.299  11.904  0.0353 -0.5341 -0.6384
 8073TIP3   OH248413   3.320   2.495  11.314  0.0554  0.1517  0.4823
 8073TIP3    H148414   3.261   2.570  11.325  0.5038  1.0023 -2.2310
 8073TIP3    H248415   3.378   2.520  11.242  1.7911 -1.8829  1.0690
 8074TIP3   OH248416   6.774   3.800  11.640 -0.6459 -0.6466 -0.0127
 8074TIP3    H148417   6.853   3.832  11.684 -0.5108  0.5605 -1.0426
 8074TIP3    H248418   6.721   3.762  11.709  0.5785 -0.9416  0.7959
 8075TIP3   OH248419   2.754   3.256  11.307  0.3329 -0.9997 -0.3662
 8075TIP3    H148420   2.776   3.174  11.352  1.2648 -0.5655 -0.0052
 8075TIP3    H248421   2.837   3.286  11.270 -0.4233 -1.4685 -2.6546
 8076TIP3   OH248422   4.844   5.218  11.757 -0.2514  0.4198 -0.5382
 8076TIP3    H148423   4.875   5.299  11.798 -1.1235 -0.5717  2.3086
 8076TIP3    H248424   4.910   5.198  11.690  1.1130  2.3334  0.1639
 8077TIP3   OH248425   0.319   0.277  11.590 -0.2224 -0.5185 -0.4340
 8077TIP3    H148426   0.414   0.274  11.599 -0.1154  0.7221 -0.9403
 8077TIP3    H248427   0.286   0.265  11.679  0.3985 -0.8422 -0.2402
 8078TIP3   OH248428   7.353   1.904  13.488 -0.0973 -0.3662 -0.2321
 8078TIP3    H148429   7.299   1.887  13.411  1.5969 -1.6921 -1.1791
 8078TIP3    H248430   7.322   1.840  13.553  0.2500 -1.0843 -0.7536
 8079TIP3   OH248431   7.076   3.864  10.861 -0.1279  0.1241  0.0852
 8079TIP3    H148432   7.071   3.859  10.765  1.0711  1.8231 -0.1159
 8079TIP3    H248433   6.986   3.874  10.889 -0.4638 -0.0247 -0.9053
 8080TIP3   OH248434   1.521   3.050  11.594  0.1557  0.5117  0.2376
 8080TIP3    H148435   1.442   3.080  11.548  0.3909  0.7952  0.0156
 8080TIP3    H248436   1.574   3.008  11.527  0.4191  0.7648  0.2850
 8081TIP3   OH248437   5.679   0.106  13.001  0.0327  0.1777 -0.1391
 8081TIP3    H148438   5.729   0.160  13.062  0.4787 -0.9302  0.4984
 8081TIP3    H248439   5.588   0.117  13.029  0.2741 -0.7043  1.0749
 8082TIP3   OH248440   5.808   0.008  12.778  0.8025 -0.0074 -0.3655
 8082TIP3    H148441   5.755   0.041  12.850  2.9665  0.4897  1.0735
 8082TIP3    H248442   5.786   0.064  12.704 -0.1444  0.6316  0.3763
 8083TIP3   OH248443   1.408   0.564  11.039 -0.4065 -0.3065 -0.1803
 8083TIP3    H148444   1.481   0.626  11.035  0.1482 -0.8378  1.2037
 8083TIP3    H248445   1.370   0.577  11.125 -1.2205 -0.8725 -0.4413
 8084TIP3   OH248446   4.161   3.303  12.754 -0.3458 -0.6825  0.2786
 8084TIP3    H148447   4.246   3.266  12.730 -0.5892 -1.5334  0.6858
 8084TIP3    H248448   4.164   3.393  12.723  1.2374 -0.2737  1.5227
 8085TIP3   OH248449   3.393   7.351  11.717 -0.0449  0.0932 -0.0078
 8085TIP3    H148450   3.342   7.387  11.789 -0.2774  0.2899 -0.2716
 8085TIP3    H248451   3.439   7.426  11.680  1.4877 -0.2695  1.0649
 8086TIP3   OH248452   3.125   3.797  10.624  0.2138  0.0813 -0.0469
 8086TIP3    H148453   3.144   3.853  10.548  1.8681  1.0819  1.0311
 8086TIP3    H248454   3.045   3.833  10.662  0.8434  1.2835  0.1883
 8087TIP3   OH248455   3.974   5.875  11.763  0.1671  0.0189  0.2400
 8087TIP3    H148456   3.907   5.865  11.696  0.1630 -0.9711  0.3746
 8087TIP3    H248457   3.962   5.799  11.820  0.6789  0.4316  0.9061
 8088TIP3   OH248458   5.042   5.169  11.584  0.3277  0.2919 -0.5354
 8088TIP3    H148459   5.058   5.185  11.491  0.4591  0.0969 -0.5448
 8088TIP3    H248460   5.109   5.106  11.610 -1.0100 -1.3206 -0.8118
 8089TIP3   OH248461   0.133   4.002  10.598  0.0063 -0.0298  0.3272
 8089TIP3    H148462   0.163   4.081  10.643  0.5502  0.4910 -0.8904
 8089TIP3    H248463   0.044   3.987  10.631 -0.1302  1.1335  0.5243
 8090TIP3   OH248464   3.702   3.975  10.364  0.4156 -0.0342  0.6606
 8090TIP3    H148465   3.719   3.938  10.450 -0.0567 -1.2394  0.2538
 8090TIP3    H248466   3.717   3.903  10.303 -1.5285  0.1226 -0.0686
 8091TIP3   OH248467   1.611   5.104  11.714 -0.0324 -0.0021 -0.0584
 8091TIP3    H148468   1.628   5.093  11.620 -0.8706  0.0056 -0.2210
 8091TIP3    H248469   1.681   5.162  11.745  0.1316  0.1636 -0.7285
 8092TIP3   OH248470   3.898   4.717  11.429 -0.1337 -0.3064 -0.0901
 8092TIP3    H148471   3.838   4.789  11.448 -0.8063 -1.0372  0.6450
 8092TIP3    H248472   3.971   4.730  11.490 -0.3329 -0.3481  0.1558
 8093TIP3   OH248473   3.592   2.704  12.002 -0.3039 -0.3299 -0.0609
 8093TIP3    H148474   3.606   2.735  12.091 -0.4417  0.9934 -0.4864
 8093TIP3    H248475   3.501   2.727  11.983  0.2591  1.1366 -1.1920
 8094TIP3   OH248476   5.378   1.050  12.399  0.6611 -0.0619 -0.2801
 8094TIP3    H148477   5.466   1.084  12.388  0.4382  0.1417 -1.5624
 8094TIP3    H248478   5.325   1.127  12.420  0.4933  0.1154 -1.2862
 8095TIP3   OH248479   1.179   3.465  11.107 -0.0527 -0.1957 -0.0620
 8095TIP3    H148480   1.123   3.502  11.175  0.3627 -2.0091  1.3757
 8095TIP3    H248481   1.266   3.502  11.125 -0.1045 -0.0578 -0.0997
 8096TIP3   OH248482   4.742   1.859  11.126  0.6911  0.1783 -0.1484
 8096TIP3    H148483   4.790   1.934  11.162 -1.5070  2.9462 -2.5358
 8096TIP3    H248484   4.660   1.857  11.175  0.7323 -0.6921 -0.1057
 8097TIP3   OH248485   5.780   7.254  13.539  0.2385 -0.3832  0.2512
 8097TIP3    H148486   5.706   7.192  13.536  0.2672 -0.3942 -1.0877
 8097TIP3    H248487   5.740   7.339  13.524  0.3085 -0.1754  1.2050
 8098TIP3   OH248488   2.556   7.079  11.721 -0.2469 -0.0285 -0.3271
 8098TIP3    H148489   2.502   7.064  11.798 -0.8566  0.4646 -0.6561
 8098TIP3    H248490   2.553   7.173  11.706  1.8705  0.2267  0.4824
 8099TIP3   OH248491   4.768   4.012  11.310 -0.3919 -0.3698  0.2343
 8099TIP3    H148492   4.824   4.087  11.291 -1.1455  0.1499  0.0208
 8099TIP3    H248493   4.816   3.962  11.376 -0.1833  0.6659  0.8906
 8100TIP3   OH248494   1.954   6.363  10.850 -0.7624  0.6903 -0.8853
 8100TIP3    H148495   1.873   6.376  10.900 -0.7556  1.2462 -1.0090
 8100TIP3    H248496   1.987   6.279  10.880 -0.7279  1.0427  0.1021
 8101TIP3   OH248497   0.133   0.114  12.151 -0.5339 -0.1850 -0.2845
 8101TIP3    H148498   0.158   0.022  12.142 -1.0175 -0.2893 -0.6194
 8101TIP3    H248499   0.041   0.116  12.125 -0.6558  0.3185  0.1749
 8102TIP3   OH248500   4.089   6.855  12.628 -0.3460 -0.4590  0.1078
 8102TIP3    H148501   4.076   6.832  12.720 -1.8134 -0.6726 -0.1183
 8102TIP3    H248502   4.073   6.774  12.580  2.1344 -0.7836 -0.2765
 8103TIP3   OH248503   3.839   3.403  12.875  0.0310  0.1732 -0.0514
 8103TIP3    H148504   3.866   3.466  12.942  0.7420 -0.0029 -0.1714
 8103TIP3    H248505   3.788   3.455  12.813 -0.9310  0.2757  0.7935
 8104TIP3   OH248506   1.432   3.853  11.771 -0.6376  0.2917  0.1594
 8104TIP3    H148507   1.373   3.893  11.834  2.0387  0.3147  2.8631
 8104TIP3    H248508   1.520   3.873  11.803  0.8766 -1.7543 -2.2731
 8105TIP3   OH248509   3.978   3.543  11.531 -0.0773  0.5444  0.3049
 8105TIP3    H148510   4.019   3.457  11.525  0.6333  0.8238  0.9337
 8105TIP3    H248511   4.050   3.602  11.557 -0.4389  1.4125 -0.6160
 8106TIP3   OH248512   6.238   5.363  11.019  0.3059 -0.1979  0.3030
 8106TIP3    H148513   6.237   5.386  10.926  0.9783 -0.5859  0.1943
 8106TIP3    H248514   6.221   5.446  11.064  0.4497  0.0862 -0.1519
 8107TIP3   OH248515   0.619   6.584  12.736  0.1237  0.2274  0.2421
 8107TIP3    H148516   0.678   6.640  12.787 -2.0599  2.2418  0.7532
 8107TIP3    H248517   0.545   6.569  12.794 -0.8723 -0.3770 -1.1394
 8108TIP3   OH248518   0.913   2.865  11.806 -0.4242  0.6541 -0.1771
 8108TIP3    H148519   0.880   2.851  11.717  0.3563 -0.0387 -0.3675
 8108TIP3    H248520   1.005   2.886  11.795 -0.1754 -0.0403  0.4925
 8109TIP3   OH248521   2.776   5.653  11.946 -0.1360  0.1613 -0.0221
 8109TIP3    H148522   2.836   5.718  11.981  1.3859  0.2756 -2.5504
 8109TIP3    H248523   2.793   5.574  11.997  0.7306  0.7277  0.5850
 8110TIP3   OH248524   7.001   1.923  12.274 -0.1787 -0.9330  0.0478
 8110TIP3    H148525   6.937   1.967  12.329 -0.5816 -0.9765 -0.3804
 8110TIP3    H248526   6.952   1.852  12.232  0.3973 -1.6330  0.5292
 8111TIP3   OH248527   0.210   3.276  10.591  0.1755  0.0832  0.0758
 8111TIP3    H148528   0.138   3.339  10.598  1.6091  1.8625 -0.4268
 8111TIP3    H248529   0.187   3.206  10.653 -0.8701  1.6989  1.6111
 8112TIP3   OH248530   2.993   0.824  12.125  0.1660 -0.1499  0.2635
 8112TIP3    H148531   2.979   0.749  12.067  1.8622 -0.8590  0.7359
 8112TIP3    H248532   2.904   0.857  12.142 -0.6954 -2.4406  0.5680
 8113TIP3   OH248533   4.024   2.608  12.894 -0.4094 -0.2399 -0.0993
 8113TIP3    H148534   4.039   2.516  12.918 -0.6210  0.1373  1.6675
 8113TIP3    H248535   4.025   2.609  12.799  1.2457 -1.8066 -0.1506
 8114TIP3   OH248536   5.116   3.319  12.533 -0.1309 -0.1090  0.2501
 8114TIP3    H148537   5.199   3.331  12.486 -0.6460  0.4434 -0.5400
 8114TIP3    H248538   5.130   3.363  12.617  0.5888 -0.5689  0.3856
 8115TIP3   OH248539   1.506   6.798  12.106 -0.6114 -0.1797 -0.3828
 8115TIP3    H148540   1.568   6.792  12.179  1.3605  0.6996 -1.9062
 8115TIP3    H248541   1.494   6.707  12.077 -2.1782 -0.6678  1.5478
 8116TIP3   OH248542   3.652   0.025  12.700  0.5020  0.9413  0.0116
 8116TIP3    H148543   3.575   0.018  12.643  0.6394  0.6726 -0.1435
 8116TIP3    H248544   3.632   0.099  12.758 -0.2346  0.3657  0.5163
 8117TIP3   OH248545   3.164   1.771  10.532  0.2962 -0.6259  0.1836
 8117TIP3    H148546   3.214   1.690  10.541  0.8052 -0.3140  0.1870
 8117TIP3    H248547   3.227   1.840  10.548  0.0459 -0.2010 -0.6117
 8118TIP3   OH248548   0.901   0.730  10.929  0.1805  0.6650  0.6809
 8118TIP3    H148549   0.882   0.802  10.990  1.2248  2.5294 -1.0574
 8118TIP3    H248550   0.980   0.689  10.964 -0.9686 -0.3149  2.2179
 8119TIP3   OH248551   2.327   0.737  11.615 -0.5039 -0.2230 -0.0037
 8119TIP3    H148552   2.238   0.712  11.589 -0.1937  1.1369 -2.6520
 8119TIP3    H248553   2.314   0.791  11.693 -2.0192  0.0522 -0.4065
 8120TIP3   OH248554   6.534   7.455  12.219 -0.3948 -0.2759 -0.4669
 8120TIP3    H148555   6.499   7.376  12.179  0.9706 -0.5658 -1.1397
 8120TIP3    H248556   6.558   7.429  12.307 -2.3284  0.0725  0.2230
 8121TIP3   OH248557   6.544   0.395  13.344  0.3360  0.2878 -0.0739
 8121TIP3    H148558   6.472   0.336  13.322  1.0194 -0.6753  0.2161
 8121TIP3    H248559   6.551   0.390  13.440  0.9709  0.1443 -0.1236
 8122TIP3   OH248560   6.598   1.101  18.917 -0.1130  0.5702  0.2681
 8122TIP3    H148561   6.626   1.027  18.971 -1.5335  1.6465  2.6559
 8122TIP3    H248562   6.505   1.085  18.901 -0.3074  1.5461  0.3632
 8123TIP3   OH248563   2.622   6.074  11.071 -0.0132  0.1359 -0.5544
 8123TIP3    H148564   2.592   6.163  11.055 -0.3146 -0.0684 -1.1482
 8123TIP3    H248565   2.647   6.073  11.164 -0.9278  0.5689 -0.2956
 8124TIP3   OH248566   7.112   2.433  11.027 -0.3934  0.2858 -0.0389
 8124TIP3    H148567   7.053   2.414  10.954  0.7967 -0.7933 -0.7876
 8124TIP3    H248568   7.078   2.513  11.066 -2.2523 -0.2308 -0.5080
 8125TIP3   OH248569   5.838   1.001  10.431 -0.4010  0.0522  0.1590
 8125TIP3    H148570   5.819   1.070  10.368 -0.6095  0.6280  0.8427
 8125TIP3    H248571   5.754   0.979  10.469 -0.0258  1.2518  1.7991
 8126TIP3   OH248572   2.347   1.114  12.082 -0.6476  0.1398  0.3921
 8126TIP3    H148573   2.417   1.176  12.103 -0.0192 -0.4855  0.1939
 8126TIP3    H248574   2.389   1.028  12.088 -1.5762 -0.2847  0.9535
 8127TIP3   OH248575   3.658   6.413  12.960  0.4429  0.3083 -0.4065
 8127TIP3    H148576   3.708   6.415  12.879 -0.0283 -0.2608 -0.7129
 8127TIP3    H248577   3.588   6.350  12.945  1.5160 -1.3592  1.1354
 8128TIP3   OH248578   6.973   3.883  10.578 -0.2229  0.8601  0.4073
 8128TIP3    H148579   6.916   3.939  10.525  0.8211  0.5560 -1.1344
 8128TIP3    H248580   7.062   3.906  10.548  0.4180  0.7144  2.1101
 8129TIP3   OH248581   6.211   1.390  10.794 -0.6879  0.1149  0.4917
 8129TIP3    H148582   6.191   1.411  10.885  3.9636  1.4930  1.4865
 8129TIP3    H248583   6.272   1.316  10.799  0.1747  0.6306 -1.3866
 8130TIP3   OH248584   2.842   5.421  12.119  0.6182  0.6459  0.0368
 8130TIP3    H148585   2.764   5.366  12.129  0.6269  0.5210 -0.5505
 8130TIP3    H248586   2.838   5.481  12.194  0.1709  0.3831  0.2316
 8131TIP3   OH248587   3.629   6.299  10.255  0.2703 -0.2719  0.1415
 8131TIP3    H148588   3.670   6.226  10.209 -0.7678  0.6583 -2.4167
 8131TIP3    H248589   3.537   6.296  10.230 -0.3184  0.4918  1.9665
 8132TIP3   OH248590   6.173   4.274  11.385  0.1075 -0.5145  0.1858
 8132TIP3    H148591   6.106   4.230  11.332 -0.7371 -1.3150  1.8229
 8132TIP3    H248592   6.215   4.203  11.433  0.4427  0.2339  1.0169
 8133TIP3   OH248593   3.794   3.695  11.645 -0.3963 -0.0301  0.0242
 8133TIP3    H148594   3.872   3.665  11.598 -0.5381  0.3481 -0.4632
 8133TIP3    H248595   3.744   3.743  11.579 -0.6020  0.5091  0.5662
 8134TIP3   OH248596   3.185   7.211  17.305 -0.3213  0.1167  0.3715
 8134TIP3    H148597   3.115   7.223  17.370 -0.2448  1.7676  0.1739
 8134TIP3    H248598   3.140   7.187  17.225 -0.3948 -2.3730  1.0665
 8135TIP3   OH248599   0.893   7.214  11.689 -0.2060 -0.0377 -0.2137
 8135TIP3    H148600   0.878   7.147  11.623  0.4017  0.5049 -0.9227
 8135TIP3    H248601   0.838   7.287  11.661  3.8638  2.2759 -3.2641
 8136TIP3   OH248602   7.528   2.178  12.288 -0.0029  0.0330 -0.0046
 8136TIP3    H148603   7.597   2.142  12.344  0.6943 -0.8995 -1.3835
 8136TIP3    H248604   7.463   2.108  12.281 -0.2346  0.2542 -0.1110
 8137TIP3   OH248605   7.226   5.888  10.807 -0.1598  0.4026 -0.1761
 8137TIP3    H148606   7.299   5.915  10.752 -0.3172  0.7144 -0.2357
 8137TIP3    H248607   7.260   5.890  10.896  0.2150 -0.5031 -0.2942
 8138TIP3   OH248608   4.944   6.147  12.001  0.2798 -0.0845 -0.2626
 8138TIP3    H148609   4.944   6.219  12.064  1.1342 -0.3745  0.0795
 8138TIP3    H248610   4.863   6.159  11.951 -0.0509  0.5629  0.4104
 8139TIP3   OH248611   5.443   1.702  12.525  0.1943  0.0644  0.3192
 8139TIP3    H148612   5.414   1.793  12.525 -0.5822 -0.1825  0.3369
 8139TIP3    H248613   5.363   1.651  12.536  0.4659 -0.6771 -0.9886
 8140TIP3   OH248614   1.706   5.901  12.314  0.0622  0.0488  0.9745
 8140TIP3    H148615   1.730   5.883  12.404 -0.5126 -1.0969  0.9131
 8140TIP3    H248616   1.737   5.825  12.265  0.3438  0.6394  0.1995
 8141TIP3   OH248617   1.767   4.484  11.033  0.3807 -0.3035 -0.3013
 8141TIP3    H148618   1.815   4.468  11.114  1.0796 -0.6715 -0.7812
 8141TIP3    H248619   1.727   4.400  11.011 -0.0125 -0.1441 -0.2190
 8142TIP3   OH248620   0.198   1.484  11.905  0.0011 -0.1568  0.1134
 8142TIP3    H148621   0.206   1.438  11.989 -1.2808  0.2259  0.4715
 8142TIP3    H248622   0.256   1.560  11.914  0.2143 -0.3598  0.4892
 8143TIP3   OH248623   1.430   1.337  12.914 -0.3504 -0.2622 -0.1431
 8143TIP3    H148624   1.510   1.291  12.888  0.4213  2.0964 -2.4740
 8143TIP3    H248625   1.442   1.356  13.007  2.1470  0.5394 -0.5523
 8144TIP3   OH248626   2.663   1.738  10.609  0.0715 -0.0455 -0.2417
 8144TIP3    H148627   2.733   1.800  10.627  0.1203  0.0904 -0.8625
 8144TIP3    H248628   2.704   1.670  10.556 -0.5868  0.8456 -1.9985
 8145TIP3   OH248629   5.306   5.931  11.252  0.1984 -0.5797  0.2916
 8145TIP3    H148630   5.377   5.883  11.209  0.1981 -0.0623 -0.3032
 8145TIP3    H248631   5.339   5.948  11.340  0.3226 -1.3886  0.4150
 8146TIP3   OH248632   6.556   3.097  11.284  0.0538 -0.3176 -0.1605
 8146TIP3    H148633   6.624   3.138  11.231 -1.8822  1.0678 -1.7220
 8146TIP3    H248634   6.566   3.137  11.371  0.4323  0.8382 -0.7144
 8147TIP3   OH248635   2.064   1.530  12.512 -0.1819  0.3854 -0.2894
 8147TIP3    H148636   1.999   1.544  12.443  0.9025  0.1045 -1.3956
 8147TIP3    H248637   2.020   1.561  12.592 -1.6606  0.2237 -0.9955
 8148TIP3   OH248638   4.646   1.779  10.276 -0.5329  0.6293 -0.0341
 8148TIP3    H148639   4.721   1.837  10.288  1.1925 -1.2109 -1.2494
 8148TIP3    H248640   4.609   1.770  10.364  0.7005  1.5373  0.6227
 8149TIP3   OH248641   2.282   3.831  11.791  0.2525 -0.1539  0.3738
 8149TIP3    H148642   2.307   3.911  11.745  1.0464  0.0014  1.0545
 8149TIP3    H248643   2.299   3.760  11.729  1.5711  0.0243  0.5019
 8150TIP3   OH248644   2.431   4.193  11.164 -0.3190  0.0231 -0.4322
 8150TIP3    H148645   2.353   4.247  11.152 -0.9851 -1.0462 -1.0175
 8150TIP3    H248646   2.403   4.121  11.220 -0.2616 -1.3391 -2.0697
 8151TIP3   OH248647   5.951   3.303  10.325 -0.2602 -0.4913 -0.3552
 8151TIP3    H148648   5.908   3.381  10.360  1.0721 -0.7975  2.2072
 8151TIP3    H248649   5.878   3.246  10.299 -1.3678  0.1997  1.0590
 8152TIP3   OH248650   1.364   2.916  11.155  0.6211  0.2140 -0.4945
 8152TIP3    H148651   1.456   2.892  11.141  1.1240  1.4893  0.3895
 8152TIP3    H248652   1.366   3.012  11.165 -0.5966  0.1210  1.0514
 8153TIP3   OH248653   1.811   1.924  12.276  0.0832  0.4590  0.2795
 8153TIP3    H148654   1.869   1.992  12.310 -1.4328  2.1648 -0.3379
 8153TIP3    H248655   1.763   1.892  12.353 -1.0111  1.9774  0.2792
 8154TIP3   OH248656   2.609   3.678  11.821 -0.1602 -0.0660 -0.2815
 8154TIP3    H148657   2.698   3.690  11.856 -0.0127 -2.1814  0.2084
 8154TIP3    H248658   2.560   3.753  11.854  1.0816  0.3573  0.7027
 8155TIP3   OH248659   0.906   1.744  10.434  0.1238  0.7121 -0.0472
 8155TIP3    H148660   0.998   1.722  10.425  0.6944  2.5215  0.9192
 8155TIP3    H248661   0.898   1.833  10.399 -1.3299  0.4540 -0.4627
 8156TIP3   OH248662   5.875   4.608  11.325 -0.0379  0.5005 -0.1252
 8156TIP3    H148663   5.961   4.647  11.309  1.3520 -1.6365  1.4980
 8156TIP3    H248664   5.863   4.617  11.420 -1.0839 -0.2268 -0.1832
 8157TIP3   OH248665   5.137   5.939  11.788  0.0034  0.3001 -0.2353
 8157TIP3    H148666   5.222   5.894  11.782  0.0762  0.3139  0.5377
 8157TIP3    H248667   5.158   6.032  11.782  0.3260  0.4480  2.1014
 8158TIP3   OH248668   3.641   6.395  11.643  0.3301  0.0891 -0.0443
 8158TIP3    H148669   3.731   6.411  11.614  0.1182  0.7367 -0.3658
 8158TIP3    H248670   3.611   6.479  11.677 -0.4989  0.1656 -0.8971
 8159TIP3   OH248671   6.101   7.067  11.441  0.6810  0.0122 -0.5380
 8159TIP3    H148672   6.109   7.027  11.527  0.3447 -0.9725 -0.9514
 8159TIP3    H248673   6.160   7.016  11.385 -1.4956 -1.4941 -1.5945
 8160TIP3   OH248674   2.127   7.504  12.999 -0.5321  0.0870 -0.1751
 8160TIP3    H148675   2.101   7.505  13.091 -1.0028 -0.8994 -0.2836
 8160TIP3    H248676   2.098   7.418  12.967 -1.7856  0.9932 -1.6377
 8161TIP3   OH248677   1.544   5.807  11.234 -0.0263 -0.1355  0.4461
 8161TIP3    H148678   1.584   5.739  11.288 -0.0535 -0.5910 -0.0936
 8161TIP3    H248679   1.617   5.862  11.207  0.0764 -0.2860  0.4168
 8162TIP3   OH248680   1.398   3.202  11.287 -0.3234 -0.0998  0.1584
 8162TIP3    H148681   1.450   3.278  11.314  0.3389 -1.1434  1.9367
 8162TIP3    H248682   1.428   3.183  11.198  1.1151  0.3570  0.5187
 8163TIP3   OH248683   0.273   4.495  12.080  0.2982 -0.3947 -0.2615
 8163TIP3    H148684   0.284   4.448  11.997 -0.2461  0.1658 -0.6551
 8163TIP3    H248685   0.330   4.571  12.072  2.2039 -1.6047  0.9024
 8164TIP3   OH248686   2.206   1.451  10.324  0.0724  0.1126  0.2247
 8164TIP3    H148687   2.175   1.364  10.351  0.0609 -0.1973 -0.7700
 8164TIP3    H248688   2.295   1.437  10.293  0.4767  0.6539  1.0910
 8165TIP3   OH248689   5.161   4.885  11.336  0.0140 -0.0721  0.6121
 8165TIP3    H148690   5.147   4.907  11.244  0.4613 -1.6116  0.1399
 8165TIP3    H248691   5.254   4.863  11.341 -0.4969 -2.4372  0.8439
 8166TIP3   OH248692   2.645   2.963  11.174  0.1813  0.2125  0.1941
 8166TIP3    H148693   2.656   2.980  11.268 -0.3371  0.2640  0.2479
 8166TIP3    H248694   2.735   2.962  11.140  0.4328 -0.6472  0.8314
 8167TIP3   OH248695   3.423   3.427  12.115  0.4151  0.6074 -0.3677
 8167TIP3    H148696   3.418   3.409  12.208 -0.5785  1.8032 -0.1557
 8167TIP3    H248697   3.340   3.395  12.080  0.7378  0.2584 -0.8269
 8168TIP3   OH248698   5.388   4.733  12.251 -0.6344 -0.0355 -0.5966
 8168TIP3    H148699   5.345   4.818  12.247  0.4663  0.7127  1.7105
 8168TIP3    H248700   5.477   4.749  12.220 -0.1237 -0.0646  0.7762
 8169TIP3   OH248701   0.566   5.435  13.188 -0.2404 -0.0707  0.1673
 8169TIP3    H148702   0.507   5.468  13.255 -2.6370 -0.4066 -1.6783
 8169TIP3    H248703   0.542   5.481  13.108  0.1889 -2.1237 -1.2207
 8170TIP3   OH248704   3.618   2.363  10.245  0.2569  0.3917  0.0620
 8170TIP3    H148705   3.599   2.302  10.316  0.6093 -0.7579 -0.8076
 8170TIP3    H248706   3.547   2.351  10.183  1.1718 -0.3502 -0.8815
 8171TIP3   OH248707   4.380   4.046  11.677 -0.3001 -0.1906 -0.0440
 8171TIP3    H148708   4.443   3.995  11.729 -0.5018  0.4492  0.8430
 8171TIP3    H248709   4.435   4.100  11.620 -0.0789 -0.8425 -0.4719
 8172TIP3   OH248710   1.649   6.509  12.753 -0.1936  0.2737 -0.0432
 8172TIP3    H148711   1.698   6.505  12.836 -1.0713 -1.3771  0.4399
 8172TIP3    H248712   1.715   6.494  12.686  0.1816 -0.6329  0.5137
 8173TIP3   OH248713   6.351   5.394  12.849 -0.8700 -0.5190  0.1106
 8173TIP3    H148714   6.414   5.347  12.795 -0.4944 -0.5275  0.5500
 8173TIP3    H248715   6.384   5.385  12.939  0.4708  2.3986  0.0285
 8174TIP3   OH248716   4.014   6.737  12.908  0.9008 -0.1783  0.1610
 8174TIP3    H148717   4.060   6.681  12.846 -0.3118  1.1044 -2.0203
 8174TIP3    H248718   4.082   6.797  12.941  1.3218  0.0411 -1.0537
 8175TIP3   OH248719   7.093   5.638  12.012  0.3967 -0.2876  0.3067
 8175TIP3    H148720   7.037   5.561  12.008 -0.2049  0.1747 -1.7415
 8175TIP3    H248721   7.032   5.710  12.029  0.5100  0.0696 -0.7215
 8176TIP3   OH248722   5.608   7.345  11.079  0.5416 -0.4846 -0.3048
 8176TIP3    H148723   5.596   7.330  10.985  0.7580 -0.4759 -0.3342
 8176TIP3    H248724   5.527   7.388  11.107  1.0207  0.7666 -0.7571
 8177TIP3   OH248725   3.040   3.951  10.963 -0.1303  0.6353 -0.1855
 8177TIP3    H148726   3.038   3.866  11.007  0.9819 -0.4985 -2.1544
 8177TIP3    H248727   2.949   3.969  10.940 -0.2555 -0.5934 -0.7213
 8178TIP3   OH248728   3.002   6.909  11.551 -0.8469  0.4152  0.0777
 8178TIP3    H148729   3.027   6.871  11.467  2.7306 -1.6813  1.8624
 8178TIP3    H248730   3.023   7.002  11.543  1.9444 -0.2042 -0.6135
 8179TIP3   OH248731   1.630   0.570  12.046  0.6810  0.3656 -0.2935
 8179TIP3    H148732   1.672   0.492  12.010 -2.1361 -1.1158 -0.6176
 8179TIP3    H248733   1.608   0.546  12.136 -0.6199  0.5917 -0.5411
 8180TIP3   OH248734   5.680   2.418  12.887 -0.1780 -0.4646  0.1755
 8180TIP3    H148735   5.759   2.454  12.929 -0.9810  1.1159  0.4025
 8180TIP3    H248736   5.694   2.324  12.888  2.2410 -0.1904 -0.8328
 8181TIP3   OH248737   1.463   6.876  11.827 -0.0927  0.2383 -0.0829
 8181TIP3    H148738   1.538   6.819  11.844 -0.6341 -0.7734 -0.9935
 8181TIP3    H248739   1.427   6.894  11.914  0.9066  0.3438  0.3263
 8182TIP3   OH248740   2.203   1.844  11.302  0.2135 -0.0176  0.0504
 8182TIP3    H148741   2.155   1.794  11.368  2.2398 -1.2231  0.7068
 8182TIP3    H248742   2.187   1.936  11.324 -1.6368 -0.3544  0.2804
 8183TIP3   OH248743   3.395   6.963  11.115 -0.3023 -0.3944  0.0508
 8183TIP3    H148744   3.427   6.938  11.029 -1.0651  2.1764 -1.1060
 8183TIP3    H248745   3.334   6.894  11.140 -0.1350 -1.1528 -1.5378
 8184TIP3   OH248746   0.611   4.121  11.642  0.3061 -0.5242 -0.3951
 8184TIP3    H148747   0.679   4.106  11.707 -0.6636 -1.9857  0.3346
 8184TIP3    H248748   0.619   4.047  11.581  0.3567  0.1266 -1.1979
 8185TIP3   OH248749   5.392   2.802  13.012 -0.4129 -0.3561  0.2874
 8185TIP3    H148750   5.437   2.830  13.091 -0.1699 -1.3606  0.5166
 8185TIP3    H248751   5.408   2.873  12.949 -0.2276  0.2355  0.9841
 8186TIP3   OH248752   2.668   3.743  12.267  0.5984  0.8485 -0.0605
 8186TIP3    H148753   2.688   3.652  12.288  1.1033  1.2722  1.3958
 8186TIP3    H248754   2.574   3.744  12.249  0.5674  0.0765  0.0487
 8187TIP3   OH248755   4.183   2.967  11.071 -0.5489 -0.0475 -0.1593
 8187TIP3    H148756   4.214   3.013  11.149 -1.1548  1.2288 -0.6310
 8187TIP3    H248757   4.259   2.965  11.012 -0.2907 -0.3861  0.1839
 8188TIP3   OH248758   0.007   2.176  13.355 -0.1276  0.2221 -0.5586
 8188TIP3    H148759  -0.063   2.189  13.291  0.5499  0.6428 -1.2265
 8188TIP3    H248760   0.007   2.256  13.408 -1.6076 -0.6931  0.9046
 8189TIP3   OH248761   2.760   1.144  11.137  0.1855  0.3579  0.0708
 8189TIP3    H148762   2.748   1.073  11.074  0.5839  0.6522 -0.3435
 8189TIP3    H248763   2.844   1.124  11.179 -0.5892 -0.4392  1.3100
 8190TIP3   OH248764   5.079   4.585  11.894  0.0437  0.3586  0.7091
 8190TIP3    H148765   5.088   4.622  11.981 -2.6311  1.6164  0.5386
 8190TIP3    H248766   5.119   4.650  11.836 -0.9285  1.0101  0.7591
 8191TIP3   OH248767   5.592   7.617  12.418 -0.1085 -0.0778 -0.5187
 8191TIP3    H148768   5.576   7.635  12.511  0.1144  0.1580 -0.5250
 8191TIP3    H248769   5.611   7.523  12.415  2.0476  0.3044 -0.0155
 8192TIP3   OH248770   3.155   6.769  12.338 -0.3292  0.1048 -0.2760
 8192TIP3    H148771   3.084   6.829  12.313 -1.0675 -0.6503 -0.0326
 8192TIP3    H248772   3.144   6.694  12.280  0.3621  0.0287 -0.3206
 8193TIP3   OH248773   3.495   3.863  11.136 -0.3613 -0.0208 -0.1903
 8193TIP3    H148774   3.572   3.822  11.097 -0.1442  1.0789 -0.9635
 8193TIP3    H248775   3.439   3.884  11.061 -1.2491 -0.4593  0.3385
 8194TIP3   OH248776   5.619   4.679  11.266  0.5032  0.2881 -0.3862
 8194TIP3    H148777   5.604   4.771  11.283 -0.9736 -0.2208  1.3557
 8194TIP3    H248778   5.710   4.664  11.292  0.5196  1.0860  0.0436
 8195TIP3   OH248779   5.150   3.532  10.250 -0.2265 -0.4181  0.1939
 8195TIP3    H148780   5.146   3.623  10.281 -0.2350 -0.2626 -0.2514
 8195TIP3    H248781   5.090   3.485  10.308  0.2306 -0.2589  0.8107
 8196TIP3   OH248782   4.668   2.190  10.983 -0.7107 -0.5679  0.3605
 8196TIP3    H148783   4.674   2.285  10.973  0.9762 -0.6713  0.0749
 8196TIP3    H248784   4.691   2.154  10.897 -0.9678 -1.2354  0.5590
 8197TIP3   OH248785   0.989   6.841  12.556  0.8064  0.2850 -0.0915
 8197TIP3    H148786   0.976   6.777  12.485  1.0714  1.9675 -1.7312
 8197TIP3    H248787   1.084   6.851  12.563  0.7634  0.5486  0.1240
 8198TIP3   OH248788   2.919   6.524  10.457 -0.3868  0.4080  0.1996
 8198TIP3    H148789   3.008   6.518  10.422 -0.0091  0.6236  1.0914
 8198TIP3    H248790   2.888   6.434  10.459 -0.6900  0.4440 -1.3244
 8199TIP3   OH248791   6.885   0.327  12.036 -0.3132 -0.5134 -0.1052
 8199TIP3    H148792   6.809   0.362  11.987  0.6735  0.4006 -1.0449
 8199TIP3    H248793   6.848   0.296  12.118 -1.3071  3.3259  1.1506
 8200TIP3   OH248794   4.942   0.917  12.078  0.3685  0.4253 -0.6534
 8200TIP3    H148795   4.907   0.929  12.166  1.7364  0.4776 -0.0909
 8200TIP3    H248796   4.991   0.998  12.061 -0.2212  0.5833 -1.6322
 8201TIP3   OH248797   0.981   4.817  13.060 -0.2991  0.7589 -0.6190
 8201TIP3    H148798   1.041   4.768  13.116 -2.2085  0.2237  1.0709
 8201TIP3    H248799   1.036   4.882  13.017  1.2701  1.2806  1.9880
 8202TIP3   OH248800   4.904   6.142  11.472  0.2280  0.3785 -0.0222
 8202TIP3    H148801   4.896   6.199  11.395 -2.3717  0.4134  0.1780
 8202TIP3    H248802   4.909   6.054  11.436  3.2915  0.5500 -0.2964
 8203TIP3   OH248803   3.225   6.309  12.958  0.1137 -0.2588 -0.2888
 8203TIP3    H148804   3.169   6.251  12.908  0.1033 -0.1774 -0.3710
 8203TIP3    H248805   3.166   6.352  13.020 -0.3088  1.4624 -1.8140
 8204TIP3   OH248806   0.085   4.300  12.492  0.0372  0.5632 -0.1998
 8204TIP3    H148807   0.094   4.376  12.550  0.8098 -0.2392  0.7916
 8204TIP3    H248808   0.153   4.311  12.427  1.3257 -0.1169  0.9745
 8205TIP3   OH248809   4.665   6.309  12.531 -0.2209 -0.1465  0.0179
 8205TIP3    H148810   4.665   6.361  12.611 -1.1847 -1.6293  1.0167
 8205TIP3    H248811   4.757   6.306  12.505  0.1603  0.0589  1.2642
 8206TIP3   OH248812   6.097   7.054  11.954  0.3190 -0.4532  0.2384
 8206TIP3    H148813   6.118   7.098  12.036  0.6730 -1.4971  0.7360
 8206TIP3    H248814   6.174   6.999  11.937  1.0034  0.9827 -1.6909
 8207TIP3   OH248815   6.777   4.870  13.393 -0.4919 -0.1107 -0.0484
 8207TIP3    H148816   6.772   4.959  13.358  0.0868  1.5944  3.6222
 8207TIP3    H248817   6.737   4.877  13.480  0.8210 -3.1083  0.9255
 8208TIP3   OH248818   7.006   6.324  13.361 -0.1437 -0.0082  0.6449
 8208TIP3    H148819   7.088   6.373  13.371 -0.1977 -0.1372  1.8772
 8208TIP3    H248820   7.028   6.235  13.388 -0.5864 -0.1427  0.5739
 8209TIP3   OH248821   6.437   5.020  10.929 -0.6124 -0.6619  0.0512
 8209TIP3    H148822   6.352   5.022  10.885  0.1243 -0.1982 -1.4347
 8209TIP3    H248823   6.494   5.074  10.874  0.4090 -0.1375  1.5535
 8210TIP3   OH248824   0.070   1.254  11.478 -0.6996 -0.2191  0.4529
 8210TIP3    H148825   0.143   1.260  11.539 -0.7754 -0.1078  0.5325
 8210TIP3    H248826   0.077   1.332  11.423 -0.6500 -0.3029  0.3417
 8211TIP3   OH248827   1.253   2.140  11.085 -0.0336 -0.3607  0.4381
 8211TIP3    H148828   1.192   2.122  11.157  0.3866  0.5044  1.0265
 8211TIP3    H248829   1.239   2.232  11.064 -0.1482 -0.6066 -0.6016
 8212TIP3   OH248830   3.072   4.138  10.653  0.2977  0.1410 -0.4665
 8212TIP3    H148831   3.124   4.092  10.587  0.6619  1.1952 -0.9307
 8212TIP3    H248832   2.992   4.086  10.660  0.9058 -0.8428 -0.6049
 8213TIP3   OH248833   2.754   4.559  11.982 -0.1698 -0.2447  0.0034
 8213TIP3    H148834   2.815   4.490  11.956 -1.1961 -1.1476 -0.0841
 8213TIP3    H248835   2.749   4.552  12.078 -0.2071 -0.2277  0.0030
 8214TIP3   OH248836   7.190   4.574  10.563  0.5797 -0.2296  0.3903
 8214TIP3    H148837   7.201   4.668  10.579  0.9696  0.1204 -1.6455
 8214TIP3    H248838   7.266   4.534  10.604  0.5335  0.3619  1.0745
 8215TIP3   OH248839   6.051   0.743  12.269  0.5713 -0.1507 -0.0110
 8215TIP3    H148840   6.046   0.818  12.209  2.2988  0.1395  0.1780
 8215TIP3    H248841   5.959   0.722  12.288  0.0284  2.1262  0.1920
 8216TIP3   OH248842   6.710   3.153  10.982  0.5575 -0.0878  0.3686
 8216TIP3    H148843   6.777   3.085  10.972 -0.4508 -1.3392  1.6492
 8216TIP3    H248844   6.628   3.104  10.990 -0.3682  1.3592 -0.0307
 8217TIP3   OH248845   5.206   1.231  12.159  0.0698  0.9012 -0.4260
 8217TIP3    H148846   5.235   1.243  12.249  1.2419  0.4521 -0.7270
 8217TIP3    H248847   5.110   1.233  12.164  0.1264  1.4270  0.7398
 8218TIP3   OH248848   2.110   6.766  12.914  0.0004  0.5138  0.5399
 8218TIP3    H148849   2.097   6.860  12.906 -0.0666  0.4881  0.3426
 8218TIP3    H248850   2.047   6.738  12.981 -0.3296  0.5298  0.2341
 8219TIP3   OH248851   6.376   1.653  12.079  0.5771  0.5281 -0.1715
 8219TIP3    H148852   6.438   1.690  12.141 -0.3764 -1.2001  1.9492
 8219TIP3    H248853   6.303   1.622  12.133  0.9663 -3.7150 -1.6446
 8220TIP3   OH248854   0.336   2.588  11.032 -0.2995 -0.0044  0.3254
 8220TIP3    H148855   0.281   2.516  11.002  0.1760 -0.0038 -0.5906
 8220TIP3    H248856   0.321   2.592  11.127 -1.0063 -0.7224  0.2544
 8221TIP3   OH248857   3.122   0.448  11.298  0.0464 -0.0373 -0.0185
 8221TIP3    H148858   3.186   0.466  11.229  0.9270 -1.2537  0.4509
 8221TIP3    H248859   3.037   0.455  11.254  0.5292  0.5303 -0.9008
 8222TIP3   OH248860   6.335   2.472  12.013  0.2270  0.1533 -0.3659
 8222TIP3    H148861   6.372   2.547  11.967 -0.6488  0.9624  0.2004
 8222TIP3    H248862   6.385   2.467  12.095 -0.1651  0.5701 -0.0914
 8223TIP3   OH248863   7.084   5.807  10.494  0.5983 -0.4369  0.7581
 8223TIP3    H148864   7.168   5.792  10.538  0.3458  0.4834  1.5933
 8223TIP3    H248865   7.105   5.869  10.423  0.8575 -1.2871  0.0712
 8224TIP3   OH248866   0.292   4.409  11.405 -0.4543  0.2521 -0.6902
 8224TIP3    H148867   0.313   4.488  11.355 -0.1141 -0.1962 -1.2694
 8224TIP3    H248868   0.197   4.410  11.412 -0.3668  1.6191  0.8161
 8225TIP3   OH248869   0.920   0.306  12.348 -0.3057  0.1854 -0.5991
 8225TIP3    H148870   0.928   0.227  12.401 -0.0826  1.1938  0.9425
 8225TIP3    H248871   0.836   0.296  12.303  0.3572 -1.5353 -1.5213
 8226TIP3   OH248872   7.285   1.688  12.394  0.0420 -0.5864 -0.4331
 8226TIP3    H148873   7.374   1.676  12.361  0.1635  0.0140 -0.3345
 8226TIP3    H248874   7.282   1.779  12.422 -0.4571 -0.7368  0.0205
 8227TIP3   OH248875   5.182   0.388  13.243  0.1418  0.3652 -0.3553
 8227TIP3    H148876   5.157   0.479  13.260  2.6262  0.7353  2.1661
 8227TIP3    H248877   5.217   0.388  13.154 -1.1688  1.5565 -0.8923
 8228TIP3   OH248878   1.331   6.357  11.555  0.0426  0.0162 -0.0030
 8228TIP3    H148879   1.250   6.403  11.534 -0.5227 -1.7448 -2.0228
 8228TIP3    H248880   1.310   6.264  11.543  2.1571 -0.5409  0.1676
 8229TIP3   OH248881   3.964   3.677  11.040  0.8064 -0.1313  0.3557
 8229TIP3    H148882   3.964   3.583  11.024  2.7848  0.0965 -1.3589
 8229TIP3    H248883   4.033   3.690  11.105  1.6994  0.2745 -0.6505
 8230TIP3   OH248884   2.628   5.096  10.642  0.1994 -0.0417 -0.2115
 8230TIP3    H148885   2.586   5.028  10.695  2.0461 -0.9501  0.1934
 8230TIP3    H248886   2.708   5.054  10.610 -0.3465  0.8217 -2.9029
 8231TIP3   OH248887   4.818   0.848  11.283 -0.1051  0.5897  0.3743
 8231TIP3    H148888   4.875   0.840  11.359  0.5064  0.9550 -0.0355
 8231TIP3    H248889   4.867   0.808  11.212 -0.3456  0.9348  0.0079
 8232TIP3   OH248890   5.123   4.444  11.163 -0.0095 -0.2290  0.0178
 8232TIP3    H148891   5.158   4.399  11.086 -1.5684  0.2683 -1.0233
 8232TIP3    H248892   5.166   4.401  11.237  0.2265 -1.9173 -1.0418
 8233TIP3   OH248893   3.793   4.502  11.816 -0.1901  1.0195 -0.9093
 8233TIP3    H148894   3.883   4.470  11.821 -0.0077  1.6509  0.2066
 8233TIP3    H248895   3.748   4.439  11.760  0.6657  0.0441 -0.5342
 8234TIP3   OH248896   6.703   4.984  11.437  0.3198  0.4004  0.4139
 8234TIP3    H148897   6.743   4.999  11.351  0.4943  0.8203  0.5664
 8234TIP3    H248898   6.717   4.891  11.454 -1.1332 -0.0767 -0.7397
 8235TIP3   OH248899   4.485   7.062  11.958 -0.4410 -1.2062  0.5309
 8235TIP3    H148900   4.428   7.032  11.888 -0.1619  0.3554 -0.4089
 8235TIP3    H248901   4.556   7.108  11.914 -0.5466  0.3039  1.8377
 8236TIP3   OH248902   0.894   6.782  11.294  0.1644  1.0118  0.0547
 8236TIP3    H148903   0.885   6.870  11.256 -0.2964  2.4620  3.2165
 8236TIP3    H248904   0.985   6.758  11.277  0.0808  1.7127 -1.5656
 8237TIP3   OH248905   1.159   2.320  12.268  0.2490  0.2982 -0.0682
 8237TIP3    H148906   1.231   2.305  12.206  2.0141 -1.3069  2.2215
 8237TIP3    H248907   1.199   2.366  12.341 -1.2722  0.1638  0.8932
 8238TIP3   OH248908   4.827   0.654  12.943  0.9430  0.1937 -0.1132
 8238TIP3    H148909   4.747   0.604  12.960  1.8997 -1.3287  0.0961
 8238TIP3    H248910   4.802   0.745  12.959 -0.2683 -0.4110  1.7985
 8239TIP3   OH248911   5.211   2.608  12.968 -0.1992 -0.7891  0.1909
 8239TIP3    H148912   5.246   2.555  13.039 -1.2034 -1.4867  0.1855
 8239TIP3    H248913   5.241   2.697  12.988  0.1594 -1.0961  1.0781
 8240TIP3   OH248914   6.311   7.444  13.280  0.2962 -0.2377 -1.0850
 8240TIP3    H148915   6.321   7.520  13.223 -2.4004 -0.0412 -1.4242
 8240TIP3    H248916   6.303   7.481  13.368  1.1225 -0.3212 -0.9607
 8241TIP3   OH248917   2.055   4.014  11.015  0.3086  0.5571 -0.6687
 8241TIP3    H148918   1.961   4.008  10.999  0.2347  0.3085 -0.1704
 8241TIP3    H248919   2.081   4.098  10.977 -0.5848  1.7915  1.3082
 8242TIP3   OH248920   6.649   0.406  12.472 -0.0536 -0.3269 -0.1969
 8242TIP3    H148921   6.576   0.451  12.429 -0.6668 -1.2997 -0.2013
 8242TIP3    H248922   6.624   0.403  12.564 -0.1266 -0.8749 -0.2358
 8243TIP3   OH248923   2.797   1.461  10.202 -0.4421 -0.0439 -0.2027
 8243TIP3    H148924   2.873   1.433  10.151  0.6940  1.5944  0.5109
 8243TIP3    H248925   2.807   1.416  10.286  0.0406  0.5737  0.0766
 8244TIP3   OH248926   4.775   7.482  13.162 -0.0677  0.1518  0.0928
 8244TIP3    H148927   4.727   7.458  13.242  0.0303 -0.2549  0.0342
 8244TIP3    H248928   4.818   7.564  13.183  2.1996 -1.2698  1.4370
 8245TIP3   OH248929   3.675   4.182  12.762 -0.2070 -0.4246  0.6173
 8245TIP3    H148930   3.635   4.230  12.834 -0.4172 -1.0007  0.8866
 8245TIP3    H248931   3.695   4.095  12.798 -0.1030 -0.6431  0.0519
 8246TIP3   OH248932   0.301   1.892  13.043 -0.5886  0.8128  0.1648
 8246TIP3    H148933   0.289   1.961  13.109  0.6245  1.7715 -0.5934
 8246TIP3    H248934   0.274   1.933  12.961  1.9402  1.0537 -0.6037
 8247TIP3   OH248935   7.601   1.929  10.489  0.6054 -0.1897 -0.3930
 8247TIP3    H148936   7.548   1.876  10.547  0.4906 -1.3210 -1.4864
 8247TIP3    H248937   7.673   1.872  10.463  2.0862  1.1207  0.6041
 8248TIP3   OH248938   3.146   7.406  12.977 -0.6659  0.2089 -0.4353
 8248TIP3    H148939   3.057   7.382  12.954 -1.0051 -0.9123  1.7426
 8248TIP3    H248940   3.138   7.448  13.063  0.9676 -1.0735  0.4148
 8249TIP3   OH248941   2.407   6.089  10.855  0.3535  0.0390 -0.0895
 8249TIP3    H148942   2.456   6.100  10.937  0.1230 -1.3110  0.2504
 8249TIP3    H248943   2.330   6.039  10.881 -0.0765  0.2120 -1.0237
 8250TIP3   OH248944   3.618   6.219  10.719  0.2252  0.1693  1.1249
 8250TIP3    H148945   3.673   6.282  10.672  0.1217 -0.3875  0.2116
 8250TIP3    H248946   3.543   6.206  10.662 -0.0400 -0.3305  1.5789
 8251TIP3   OH248947   6.453   0.533  12.329  0.0088  0.0664 -0.1426
 8251TIP3    H148948   6.396   0.607  12.350  0.8496  0.6018  0.3359
 8251TIP3    H248949   6.503   0.563  12.253  0.2970 -0.0388  0.0040
 8252TIP3   OH248950   5.314   2.268  12.543 -0.3059  0.0372 -0.3498
 8252TIP3    H148951   5.298   2.340  12.604  0.9861 -0.2905  0.4082
 8252TIP3    H248952   5.326   2.312  12.458  0.0156  0.6715  0.0179
 8253TIP3   OH248953   7.367   4.976  12.351 -0.3119 -0.2821  0.1523
 8253TIP3    H148954   7.364   4.919  12.427  1.3136 -0.2176  0.2986
 8253TIP3    H248955   7.447   4.951  12.305  0.2949  1.6626  0.0539
 8254TIP3   OH248956   4.426   2.272  11.527  0.4287  0.0884  0.0329
 8254TIP3    H148957   4.429   2.366  11.542 -1.4985  0.0268  1.0650
 8254TIP3    H248958   4.477   2.259  11.447  0.1000  2.0987 -0.5550
 8255TIP3   OH248959   5.503   4.595  11.573  0.3867  0.2525 -0.5050
 8255TIP3    H148960   5.594   4.576  11.549 -0.0309 -2.0782 -0.5038
 8255TIP3    H248961   5.469   4.646  11.500  1.5520  0.7353 -0.7350
 8256TIP3   OH248962   5.171   0.752  11.776 -0.1082  0.3433  0.2848
 8256TIP3    H148963   5.254   0.708  11.754 -0.4885  0.3756 -1.3165
 8256TIP3    H248964   5.187   0.845  11.759 -0.8123  0.2194 -1.3153
 8257TIP3   OH248965   5.915   0.515  11.289 -0.1772  0.5500 -0.1168
 8257TIP3    H148966   5.918   0.463  11.369  0.0035  0.8764  0.0884
 8257TIP3    H248967   5.981   0.475  11.232 -0.9622 -0.2806 -0.4755
 8258TIP3   OH248968   0.262   4.651  11.225  0.1671  0.0605  0.1821
 8258TIP3    H148969   0.347   4.690  11.205  0.3611  0.8400  2.3631
 8258TIP3    H248970   0.198   4.712  11.187  0.5290  1.0844  1.1835
 8259TIP3   OH248971   1.110   0.784  10.529  0.4176 -0.3467 -0.3900
 8259TIP3    H148972   1.019   0.782  10.558 -0.0015  2.2104 -1.3243
 8259TIP3    H248973   1.105   0.797  10.434  1.7332  0.4940 -0.3639
 8260TIP3   OH248974   5.197   3.978  12.406 -0.0462 -0.2487  0.1962
 8260TIP3    H148975   5.196   3.887  12.377 -0.7430 -0.1487 -0.1231
 8260TIP3    H248976   5.142   3.978  12.485 -0.7760  0.0461 -0.3039
 8261TIP3   OH248977   2.710   2.077  12.074 -0.5370  0.0453 -0.2220
 8261TIP3    H148978   2.772   2.071  12.146  0.8567 -0.2998 -1.4012
 8261TIP3    H248979   2.638   2.018  12.099  0.8541 -1.6397 -0.0078
 8262TIP3   OH248980   4.115   6.660  12.451 -0.0092  0.2171 -0.0506
 8262TIP3    H148981   4.196   6.687  12.407  1.6767 -1.6103  1.7047
 8262TIP3    H248982   4.117   6.564  12.449 -1.3084  0.1120  1.4129
 8263TIP3   OH248983   5.760   6.211  12.014 -0.0130 -0.0093  0.0617
 8263TIP3    H148984   5.851   6.219  11.986  0.1668  1.9586  1.0415
 8263TIP3    H248985   5.709   6.250  11.943  0.0275  0.1902  0.1410
 8264TIP3   OH248986   2.004   3.465  11.388  0.4031 -0.4764  0.1337
 8264TIP3    H148987   2.026   3.403  11.458 -0.8970 -0.1309  0.8861
 8264TIP3    H248988   1.909   3.464  11.384  0.4408 -1.5504 -2.6417
 8265TIP3   OH248989   3.731   7.293  11.293  0.2110  0.5675  0.0903
 8265TIP3    H148990   3.817   7.282  11.334 -0.8690 -2.1831  1.9215
 8265TIP3    H248991   3.680   7.343  11.357  0.2059  1.5290 -0.6522
 8266TIP3   OH248992   6.804   3.866  10.915  0.1743 -0.8371 -0.3892
 8266TIP3    H148993   6.749   3.944  10.903  0.1135 -0.8323 -0.0868
 8266TIP3    H248994   6.762   3.817  10.986 -0.6305 -1.9037 -1.5700
 8267TIP3   OH248995   7.121   6.082  11.556 -0.1163 -0.1991  0.0966
 8267TIP3    H148996   7.061   6.090  11.482  0.8259 -0.5003 -0.7090
 8267TIP3    H248997   7.189   6.148  11.540 -0.2073  0.1254  0.9921
 8268TIP3   OH248998   3.468   1.065  11.991 -0.4079  0.2863  0.4610
 8268TIP3    H148999   3.436   0.979  12.017  1.4644  0.1391  2.5331
 8268TIP3    H249000   3.529   1.091  12.060  0.4407  2.5100 -0.9828
 8269TIP3   OH249001   0.146   6.676  11.127  0.2810  0.9727 -0.4145
 8269TIP3    H149002   0.197   6.742  11.079 -0.4441  1.4635 -0.5312
 8269TIP3    H249003   0.146   6.707  11.217  0.5568  0.7421 -0.3373
 8270TIP3   OH249004   2.020   5.364  12.639 -0.8013  0.0895  0.5280
 8270TIP3    H149005   2.025   5.282  12.687  0.2686 -0.2352 -0.1195
 8270TIP3    H249006   2.111   5.389  12.623 -1.1118  0.3277 -1.0756
 8271TIP3   OH249007   7.282   1.563  10.777 -0.3550  0.4222 -0.1572
 8271TIP3    H149008   7.235   1.498  10.829 -0.0479 -0.9601 -1.5636
 8271TIP3    H249009   7.213   1.611  10.731 -0.4901 -0.1405 -0.5400
 8272TIP3   OH249010   7.003   1.083  13.358 -0.5660 -0.3251  0.3116
 8272TIP3    H149011   6.977   1.090  13.449 -0.7308  0.5920  0.2023
 8272TIP3    H249012   7.063   1.008  13.355  0.0432  0.1086  1.3048
 8273TIP3   OH249013   5.185   6.016  12.504  0.5534  0.4361  0.1500
 8273TIP3    H149014   5.233   6.090  12.541  0.4559  1.7119 -2.1280
 8273TIP3    H249015   5.245   5.942  12.510  0.0649  0.1455  4.0105
 8274TIP3   OH249016   6.996   6.977  12.279 -0.0581  0.2206 -0.0661
 8274TIP3    H149017   6.967   6.904  12.224  0.4192 -0.4011  0.4935
 8274TIP3    H249018   6.937   7.049  12.256  0.5093  0.1755 -1.8437
 8275TIP3   OH249019   0.538   0.344  11.937  0.5166 -0.1473 -0.5628
 8275TIP3    H149020   0.597   0.268  11.930  0.4592 -0.0880 -1.8025
 8275TIP3    H249021   0.590   0.417  11.905  1.0820  0.6717  1.9860
 8276TIP3   OH249022   3.059   3.080  12.637 -0.0595 -0.2844  0.2078
 8276TIP3    H149023   3.135   3.093  12.581 -0.4846  4.7235  0.3835
 8276TIP3    H249024   2.987   3.066  12.576  0.1121  1.0898 -0.3449
 8277TIP3   OH249025   7.078   5.641  10.727 -0.1136 -0.3409 -0.9388
 8277TIP3    H149026   7.150   5.580  10.745 -1.4422 -1.4594  1.0877
 8277TIP3    H249027   7.108   5.725  10.762 -0.6136 -1.3484  2.2768
 8278TIP3   OH249028   3.476   7.242  12.449  0.1005 -0.3742 -0.0806
 8278TIP3    H149029   3.496   7.207  12.536 -0.7049  2.0139  1.1595
 8278TIP3    H249030   3.556   7.227  12.398  0.6360 -1.6825  1.0964
 8279TIP3   OH249031   4.171   1.776  11.417  0.1568 -0.1464  0.0310
 8279TIP3    H149032   4.154   1.785  11.323  1.0601  2.4834  0.0293
 8279TIP3    H249033   4.227   1.850  11.438  1.1947 -1.5018  2.4003
 8280TIP3   OH249034   3.030   6.470  11.024 -0.1850  0.3177  0.0561
 8280TIP3    H149035   3.046   6.485  10.931 -0.6489 -1.2624 -0.3067
 8280TIP3    H249036   3.117   6.465  11.063  0.0135  0.5846 -0.3510
 8281TIP3   OH249037   2.552   5.736  10.713 -0.2175  0.1044 -0.2068
 8281TIP3    H149038   2.481   5.716  10.773  1.9169 -3.9049  1.3852
 8281TIP3    H249039   2.571   5.829  10.728 -3.3814  0.6544  1.1138
 8282TIP3   OH249040   3.826   6.670  11.985  0.6038  0.3364 -0.0058
 8282TIP3    H149041   3.840   6.629  12.070  0.5925  0.6791  0.1616
 8282TIP3    H249042   3.750   6.726  11.997 -0.1846 -0.5768 -0.5885
 8283TIP3   OH249043   2.291   0.961  11.787 -0.1825  0.1317 -0.3538
 8283TIP3    H149044   2.256   1.018  11.719 -0.7575  0.3234  0.0976
 8283TIP3    H249045   2.370   1.006  11.818 -1.1673  1.2305  0.7041
 8284TIP3   OH249046   3.863   3.038  12.033 -0.1672 -0.1832  0.5771
 8284TIP3    H149047   3.800   3.009  11.966  0.8776  0.2584 -0.6266
 8284TIP3    H249048   3.808   3.073  12.103 -1.3611 -2.1898  0.7386
 8285TIP3   OH249049   0.409   2.379  12.097 -0.8195  0.2256 -0.3797
 8285TIP3    H149050   0.395   2.307  12.159  1.0454  0.6096  0.5577
 8285TIP3    H249051   0.498   2.367  12.066 -0.1690  2.5361  0.3922
 8286TIP3   OH249052   7.457   0.807  12.746 -0.2493  0.2720  0.3126
 8286TIP3    H149053   7.548   0.793  12.720  0.4488  1.5064  1.8912
 8286TIP3    H249054   7.432   0.889  12.704 -0.3136  0.4028  0.6001
 8287TIP3   OH249055   6.945   5.437  11.894 -0.2530 -0.2971  0.2964
 8287TIP3    H149056   6.956   5.343  11.879 -0.2625 -0.0857 -1.1287
 8287TIP3    H249057   6.987   5.479  11.819 -1.3850  0.8104  0.2505
 8288TIP3   OH249058   0.337   4.979  10.984 -0.7398  0.2208 -0.4499
 8288TIP3    H149059   0.379   5.055  10.941 -0.4235  0.6313  0.5522
 8288TIP3    H249060   0.397   4.956  11.055 -1.8005  0.2872  0.4966
 8289TIP3   OH249061   0.992   6.479  10.983 -0.1065  0.0970 -0.6229
 8289TIP3    H149062   0.930   6.480  11.056 -0.0738 -0.3535 -0.5871
 8289TIP3    H249063   1.023   6.569  10.976  1.5525 -0.2594  1.3296
 8290TIP3   OH249064   4.197   3.375  11.351 -0.0656 -0.2402 -0.3317
 8290TIP3    H149065   4.290   3.358  11.335 -0.3623 -2.3625 -0.1033
 8290TIP3    H249066   4.155   3.290  11.341 -1.8396  0.4521  0.6959
 8291TIP3   OH249067   6.346   2.843  11.847 -0.0246  0.1850 -0.0207
 8291TIP3    H149068   6.262   2.838  11.802  0.6653  1.4421 -1.5676
 8291TIP3    H249069   6.411   2.827  11.778  1.1355  3.7784  0.0337
 8292TIP3   OH249070   5.912   7.592  12.097  0.2738  0.0704  0.0283
 8292TIP3    H149071   5.872   7.614  12.181  1.9039  1.1477  0.5906
 8292TIP3    H249072   5.860   7.639  12.032 -0.2166  0.2954  0.5791
 8293TIP3   OH249073   5.949   0.256  10.906  0.1200 -0.4990  0.4624
 8293TIP3    H149074   5.884   0.208  10.957  1.3384 -1.6082  1.0217
 8293TIP3    H249075   6.006   0.295  10.971  0.7088 -0.5245 -0.0320
 8294TIP3   OH249076   6.575   2.017  11.733 -0.5710  0.0176 -0.4972
 8294TIP3    H149077   6.631   2.028  11.810  0.3708 -0.2693 -1.1242
 8294TIP3    H249078   6.590   2.096  11.681 -0.4101 -0.2694 -0.8848
 8295TIP3   OH249079   3.239   3.427  13.255  0.1420  0.3387 -0.7245
 8295TIP3    H149080   3.249   3.427  13.350 -0.9368  1.0012 -0.5953
 8295TIP3    H249081   3.305   3.365  13.224 -0.7355 -1.3632  0.6094
 8296TIP3   OH249082   3.391   4.173  11.103  0.1404 -0.1250 -0.3883
 8296TIP3    H149083   3.320   4.185  11.041  0.9492  2.9336 -0.9051
 8296TIP3    H249084   3.398   4.257  11.148  2.8404 -0.5747  0.2458
 8297TIP3   OH249085   5.808   3.390  12.265 -0.0947  0.5290 -0.0431
 8297TIP3    H149086   5.790   3.314  12.209 -1.4220  0.3878  0.5323
 8297TIP3    H249087   5.725   3.407  12.309  0.5918  1.4099  0.9510
 8298TIP3   OH249088   7.024   1.692  11.904  0.0445  0.0846  0.0579
 8298TIP3    H149089   7.108   1.722  11.937  1.3903 -2.1640 -1.0801
 8298TIP3    H249090   7.017   1.601  11.933 -2.7272  0.6034  1.3712
 8299TIP3   OH249091   1.986   0.597  12.634  1.1086 -0.0782  0.3306
 8299TIP3    H149092   2.025   0.599  12.547  1.2140  0.7284  0.3919
 8299TIP3    H249093   1.967   0.688  12.654  0.0254 -0.3632  0.6787
 8300TIP3   OH249094   6.044   4.914  13.184 -0.3337  0.3768  0.2065
 8300TIP3    H149095   5.967   4.923  13.128  0.4318  1.3562 -0.7196
 8300TIP3    H249096   6.071   5.004  13.203  0.5285  0.0471  0.6017
 8301TIP3   OH249097   2.932   0.607  11.781  0.3860 -0.0130 -0.0225
 8301TIP3    H149098   2.937   0.622  11.687 -1.2342 -0.4165 -0.2022
 8301TIP3    H249099   2.858   0.660  11.810  2.0854  1.7524  1.4231
 8302TIP3   OH249100   7.415   6.986  12.454 -0.4795 -0.1141 -0.1829
 8302TIP3    H149101   7.332   7.023  12.485  0.6637  1.2173  1.5158
 8302TIP3    H249102   7.399   6.963  12.363 -2.2148  1.7394 -0.4277
 8303TIP3   OH249103   4.154   4.332  12.142 -0.1123  0.1937 -0.3528
 8303TIP3    H149104   4.066   4.324  12.179  0.5442  1.4293  1.6914
 8303TIP3    H249105   4.182   4.242  12.127 -1.4909 -0.2415 -0.4598
 8304TIP3   OH249106   2.941   7.262  11.040  0.5030  0.6464 -0.0220
 8304TIP3    H149107   2.893   7.257  10.957 -2.9229  2.0763  1.6609
 8304TIP3    H249108   3.014   7.321  11.023  1.4325 -1.0568 -2.5639
 8305TIP3   OH249109   5.227   1.175  11.449 -0.1360  0.2075 -0.1491
 8305TIP3    H149110   5.156   1.194  11.511  1.7778 -0.2184  2.3397
 8305TIP3    H249111   5.250   1.260  11.412 -1.1847  0.5069 -0.1520
 8306TIP3   OH249112   5.073   1.868  11.830 -0.5880  0.8928 -0.1013
 8306TIP3    H149113   5.016   1.889  11.756 -0.4121 -2.4941 -1.3936
 8306TIP3    H249114   5.029   1.797  11.876  0.6408  1.0294  1.3771
 8307TIP3   OH249115   1.187   7.056  11.026 -0.2723 -0.4846 -0.1856
 8307TIP3    H149116   1.123   7.016  11.086  1.0108 -1.1987  0.7527
 8307TIP3    H249117   1.266   7.002  11.036  1.0364  1.3850 -0.0269
 8308TIP3   OH249118   5.822   6.935  11.461  0.1470 -0.3621 -0.8709
 8308TIP3    H149119   5.769   7.012  11.445  1.0907  0.1719 -1.5175
 8308TIP3    H249120   5.912   6.964  11.446  0.6797 -1.1102  0.6796
 8309TIP3   OH249121   4.592   1.168  10.873  0.1710  0.1734 -0.6120
 8309TIP3    H149122   4.588   1.112  10.795 -0.6997  0.6783 -0.9443
 8309TIP3    H249123   4.518   1.140  10.926  0.6716 -0.0591 -0.0307
 8310TIP3   OH249124   0.013   4.321  10.623 -0.5328  0.3368 -0.7069
 8310TIP3    H149125   0.005   4.388  10.555 -1.1093  1.3034  0.2869
 8310TIP3    H249126   0.103   4.288  10.614 -0.2555  1.2176 -1.2364
 8311TIP3   OH249127   7.475   1.923  12.583 -0.3016  0.5991 -0.1979
 8311TIP3    H149128   7.528   1.997  12.552  0.3525  0.8836  1.4598
 8311TIP3    H249129   7.525   1.845  12.556 -1.4192  0.6678 -2.6989
 8312TIP3   OH249130   0.343   2.989  13.186 -0.3222 -0.2928  0.1635
 8312TIP3    H149131   0.272   2.932  13.157  0.9602 -2.4510  1.0227
 8312TIP3    H249132   0.422   2.948  13.152  0.7695  0.1997  1.9912
 8313TIP3   OH249133   1.182   4.171  12.921 -0.0439 -0.3506  0.2665
 8313TIP3    H149134   1.222   4.156  12.835 -1.9656 -0.0706 -0.7233
 8313TIP3    H249135   1.094   4.202  12.902 -0.4823 -0.1461  2.3564
 8314TIP3   OH249136   2.536   2.475  10.867 -0.0216  0.3089  0.1338
 8314TIP3    H149137   2.577   2.393  10.894 -2.5899 -0.5966  1.7056
 8314TIP3    H249138   2.567   2.540  10.930  1.2947  0.3741 -0.5547
 8315TIP3   OH249139   4.071   4.884  12.220 -0.7556  0.2468  0.3879
 8315TIP3    H149140   4.073   4.969  12.176  1.5195 -0.0762 -0.2615
 8315TIP3    H249141   4.034   4.825  12.156  0.0159  0.2980 -0.1195
 8316TIP3   OH249142   0.194   7.205  12.609  0.3147 -0.6878 -0.4864
 8316TIP3    H149143   0.228   7.277  12.555  0.8651  0.3720  1.1688
 8316TIP3    H249144   0.126   7.165  12.556 -0.9792  1.9415 -0.9741
 8317TIP3   OH249145   7.667   5.849  11.083  0.0595  0.1647  0.3421
 8317TIP3    H149146   7.655   5.908  11.009  0.1067  0.8734  0.8830
 8317TIP3    H249147   7.601   5.780  11.071 -0.6730  0.8753  0.2260
 8318TIP3   OH249148   5.900   5.438  11.013  0.5255 -0.0076 -0.4247
 8318TIP3    H149149   5.953   5.429  10.934  1.1281 -1.6155  0.1072
 8318TIP3    H249150   5.842   5.361  11.011  0.2633  0.1536  0.4930
 8319TIP3   OH249151   1.243   6.397  11.132  0.1608 -0.4492 -0.1177
 8319TIP3    H149152   1.205   6.481  11.107  1.9356 -0.0419 -1.7299
 8319TIP3    H249153   1.286   6.414  11.216 -0.3861 -0.0600  0.0930
 8320TIP3   OH249154   2.779   6.471  12.752  0.5489  0.8387  0.1522
 8320TIP3    H149155   2.858   6.517  12.780 -0.0243  2.2189 -0.4083
 8320TIP3    H249156   2.739   6.529  12.687 -0.5593 -0.1542 -0.0914
 8321TIP3   OH249157   7.204   4.446  11.733  0.0189  0.6384 -0.1006
 8321TIP3    H149158   7.200   4.374  11.797  2.2373  0.3732 -0.1720
 8321TIP3    H249159   7.278   4.423  11.677 -0.4656  2.0285 -1.3704
 8322TIP3   OH249160   5.286   1.959  10.384  0.2225  0.1188 -0.4018
 8322TIP3    H149161   5.363   1.905  10.402 -0.3874 -0.0567  2.0773
 8322TIP3    H249162   5.321   2.040  10.348  1.5527 -0.0845  0.3706
 8323TIP3   OH249163   1.326   3.143  12.780 -0.4897  0.0382 -0.3377
 8323TIP3    H149164   1.263   3.122  12.849  0.6199  0.4109  0.8545
 8323TIP3    H249165   1.408   3.159  12.828  0.7736 -1.4285 -1.8806
 8324TIP3   OH249166   6.185   7.024  12.455  0.0304  0.3931  0.1848
 8324TIP3    H149167   6.147   6.946  12.496  1.0358 -0.9142 -1.2299
 8324TIP3    H249168   6.115   7.089  12.456 -0.9039 -0.5882  1.2363
 8325TIP3   OH249169   4.760   3.841  10.851  0.6406  0.0029  0.0028
 8325TIP3    H149170   4.769   3.817  10.943 -1.2012  0.1468  0.2624
 8325TIP3    H249171   4.710   3.770  10.812  2.7027 -0.8151 -1.2920
 8326TIP3   OH249172   0.659   2.317  12.030  0.0483 -0.8875 -0.3652
 8326TIP3    H149173   0.714   2.388  11.998  0.5594 -1.1996 -0.1807
 8326TIP3    H249174   0.641   2.264  11.952 -0.6187 -0.3748 -0.5717
 8327TIP3   OH249175   1.697   0.342  11.891 -0.3024  0.3927 -0.6501
 8327TIP3    H149176   1.692   0.286  11.813  1.4741 -1.6532  0.5978
 8327TIP3    H249177   1.630   0.308  11.949 -0.6435  0.9677 -0.7002
 8328TIP3   OH249178   2.247   3.785  11.018  0.3101  0.4434  0.1037
 8328TIP3    H149179   2.193   3.861  11.040  0.2019  0.4235 -0.0959
 8328TIP3    H249180   2.209   3.714  11.069  0.2842  0.4753  0.1298
 8329TIP3   OH249181   3.234   5.194  11.904 -0.1681  0.3255  0.2339
 8329TIP3    H149182   3.260   5.104  11.882 -0.9356  0.2935 -0.5842
 8329TIP3    H249183   3.260   5.246  11.828 -1.2849  0.5057 -0.0425
 8330TIP3   OH249184   2.746   1.975  11.358 -0.1461 -0.6993  0.0505
 8330TIP3    H149185   2.777   1.920  11.430 -0.9343 -1.1498  0.0542
 8330TIP3    H249186   2.666   2.015  11.391  0.2342  0.1985 -0.0799
 8331TIP3   OH249187   3.177   1.265  11.868  0.6958  0.1689  0.0585
 8331TIP3    H149188   3.204   1.326  11.936  2.8808 -2.0400  1.3512
 8331TIP3    H249189   3.119   1.203  11.913 -0.3584  0.4343 -0.8831
 8332TIP3   OH249190   6.574   2.393  10.210 -0.2476 -0.1243  0.4304
 8332TIP3    H149191   6.516   2.456  10.252 -0.2467 -0.5629  1.1101
 8332TIP3    H249192   6.662   2.420  10.237 -0.1499  0.3988 -0.4033
 8333TIP3   OH249193   6.084   6.878  11.077 -0.0628 -0.1304 -0.0014
 8333TIP3    H149194   5.990   6.889  11.063  0.3978  1.2273 -2.8608
 8333TIP3    H249195   6.106   6.798  11.030  0.1148 -0.9024  1.3641
 8334TIP3   OH249196   4.471   2.723  12.715  0.0565  0.5100  0.1725
 8334TIP3    H149197   4.547   2.751  12.664 -0.2244 -1.8231 -1.6890
 8334TIP3    H249198   4.409   2.691  12.649 -0.5581 -2.1493  1.9134
 8335TIP3   OH249199   0.860   3.473  13.061  0.1388  0.1104 -0.3714
 8335TIP3    H149200   0.785   3.465  13.003  0.0439  0.5125 -0.3086
 8335TIP3    H249201   0.821   3.485  13.148  0.2420  1.6786 -0.5067
 8336TIP3   OH249202   7.585   5.346  17.216  0.2597 -0.1345  0.0666
 8336TIP3    H149203   7.509   5.296  17.247  0.6892 -0.3969  0.7340
 8336TIP3    H249204   7.548   5.422  17.172 -0.4180 -1.1439 -1.1605
 8337TIP3   OH249205   5.244   0.648  12.674 -0.0194 -0.6861 -0.0414
 8337TIP3    H149206   5.319   0.594  12.650 -0.4196 -1.7612  0.9807
 8337TIP3    H249207   5.276   0.704  12.745  0.8954  1.8005 -2.2546
 8338TIP3   OH249208   4.206   5.856  12.016 -0.0074  0.0210 -0.3483
 8338TIP3    H149209   4.144   5.783  12.008  1.6777 -1.6931  1.1016
 8338TIP3    H249210   4.289   5.820  11.986  0.5237  1.9552 -1.3167
 8339TIP3   OH249211   4.514   5.108  12.446  1.0158  0.4927 -0.0304
 8339TIP3    H149212   4.568   5.046  12.397  1.4917  0.6234  0.3189
 8339TIP3    H249213   4.559   5.118  12.530 -0.0192 -0.0677  0.6165
 8340TIP3   OH249214   2.628   6.385  11.292 -0.3568 -0.4949  0.6536
 8340TIP3    H149215   2.711   6.422  11.262 -0.5349 -1.8257 -1.7351
 8340TIP3    H249216   2.608   6.317  11.228 -3.5652  0.1346  0.8401
 8341TIP3   OH249217   7.565   4.454  12.826  0.4132 -0.2408 -1.1951
 8341TIP3    H149218   7.615   4.411  12.895 -0.4405 -0.4396 -0.6822
 8341TIP3    H249219   7.530   4.533  12.868 -1.0498 -0.9382 -1.0459
 8342TIP3   OH249220   7.594   6.199  12.532  0.4761 -0.0233  0.2741
 8342TIP3    H149221   7.672   6.255  12.535 -0.4355  1.2633  0.8234
 8342TIP3    H249222   7.521   6.261  12.521 -0.3486 -1.2879 -2.0564
 8343TIP3   OH249223   1.220   2.841  10.924  0.2498 -0.0452 -1.0202
 8343TIP3    H149224   1.252   2.852  11.014 -3.4881 -1.2599  0.6411
 8343TIP3    H249225   1.153   2.909  10.915 -0.3062 -0.7571 -2.4300
 8344TIP3   OH249226   1.034   5.261  12.136  0.3305  0.0197 -0.3185
 8344TIP3    H149227   1.012   5.247  12.044 -0.3513  0.3177 -0.2092
 8344TIP3    H249228   0.949   5.277  12.179  0.5035 -1.3020  0.5700
 8345TIP3   OH249229   0.872   0.563  12.146 -0.4572 -0.5531 -0.3656
 8345TIP3    H149230   0.910   0.531  12.064  0.9676 -1.1971  0.5259
 8345TIP3    H249231   0.785   0.596  12.120  0.2677  0.0136 -2.2628
 8346TIP3   OH249232   0.487   3.524  10.572 -0.3927 -0.1288 -0.5991
 8346TIP3    H149233   0.487   3.436  10.535  0.0138  0.1133 -1.1883
 8346TIP3    H249234   0.397   3.537  10.603 -1.3693  0.4348 -3.4096
 8347TIP3   OH249235   0.901   4.721  11.385  0.2933 -0.3103  0.0623
 8347TIP3    H149236   0.957   4.798  11.380 -0.4183  0.1995 -0.2762
 8347TIP3    H249237   0.959   4.648  11.366  0.8669  0.1943 -0.1681
 8348TIP3   OH249238   0.007   2.233  18.829 -0.1751 -0.4292  0.8043
 8348TIP3    H149239   0.062   2.194  18.897 -0.6933 -2.0477  0.3233
 8348TIP3    H249240  -0.075   2.254  18.874 -0.1149 -0.4482  0.9235
 8349TIP3   OH249241   2.490   5.389  10.753 -0.4410  0.3001  0.0950
 8349TIP3    H149242   2.519   5.299  10.737  2.4248  0.7079  2.1463
 8349TIP3    H249243   2.553   5.443  10.706 -0.6740  1.2517  0.8524
 8350TIP3   OH249244   6.937   7.579  11.724  0.0229 -0.0507 -0.6037
 8350TIP3    H149245   7.021   7.625  11.733 -1.1860  2.1197  0.3507
 8350TIP3    H249246   6.871   7.645  11.748 -1.8421 -2.3200  0.9489
 8351TIP3   OH249247   0.686   4.230  12.063  0.7120  0.8286 -0.4249
 8351TIP3    H149248   0.743   4.230  12.139  1.1971  0.1487 -0.7825
 8351TIP3    H249249   0.607   4.185  12.092  0.2357  1.9838  0.1418
 8352TIP3   OH249250   5.141   2.685  10.689  0.4246  0.4844  0.2659
 8352TIP3    H149251   5.230   2.667  10.658  0.4138  1.3846 -0.3403
 8352TIP3    H249252   5.101   2.736  10.618 -0.1592  1.1579  1.0568
 8353TIP3   OH249253   6.517   7.088  11.293  0.1255  0.0512  0.1726
 8353TIP3    H149254   6.427   7.073  11.323 -0.1412  0.6663 -0.2795
 8353TIP3    H249255   6.519   7.050  11.205  0.3981 -0.2429  0.3079
 8354TIP3   OH249256   2.720   6.107  11.326  0.3921 -0.2181 -0.0930
 8354TIP3    H149257   2.717   6.159  11.406  2.7497 -0.7548  0.4109
 8354TIP3    H249258   2.794   6.048  11.338  1.4844  0.3790 -3.0668
 8355TIP3   OH249259   2.820   3.986  12.054  0.2926 -0.1978  0.1508
 8355TIP3    H149260   2.811   4.063  12.111 -1.0489  1.3031 -1.9423
 8355TIP3    H249261   2.729   3.960  12.035  0.7311 -1.4649 -0.2785
 8356TIP3   OH249262   7.045   3.566  11.072 -0.1439  0.3211 -0.0025
 8356TIP3    H149263   7.022   3.497  11.135  0.8521  0.2849  0.3346
 8356TIP3    H249264   6.971   3.568  11.011 -0.8948  0.0073  0.8690
 8357TIP3   OH249265   1.306   0.530  13.521  0.0818 -0.3310 -0.0877
 8357TIP3    H149266   1.384   0.586  13.528 -0.3079  0.0410  1.5769
 8357TIP3    H249267   1.263   0.560  13.441  0.9877  0.3078 -0.3638
 8358TIP3   OH249268   4.658   2.153  12.379 -1.2613  0.9453  0.2640
 8358TIP3    H149269   4.633   2.104  12.457  0.0862  0.5519  0.4667
 8358TIP3    H249270   4.624   2.241  12.394  0.3755  1.3386  2.0762
 8359TIP3   OH249271   5.428   7.315  11.975  0.4761  0.5266  0.2639
 8359TIP3    H149272   5.382   7.293  12.056  2.1144  1.8240  1.6528
 8359TIP3    H249273   5.514   7.274  11.985  0.8837  1.1422 -0.5694
 8360TIP3   OH249274   6.851   0.210  11.014  0.1798 -0.3010 -0.8337
 8360TIP3    H149275   6.790   0.138  11.029  1.3152 -1.1060  0.0721
 8360TIP3    H249276   6.857   0.254  11.099  3.6184 -2.4814  0.2555
 8361TIP3   OH249277   2.271   0.710  12.638 -0.1421  0.1139  0.0176
 8361TIP3    H149278   2.365   0.724  12.625  0.4720 -0.0782  3.3877
 8361TIP3    H249279   2.240   0.677  12.554  3.0601 -1.0326 -0.8688
 8362TIP3   OH249280   2.974   3.033  10.851 -0.3730  0.5107  0.3173
 8362TIP3    H149281   2.966   3.026  10.946  0.5404 -0.7614  0.3235
 8362TIP3    H249282   2.888   3.007  10.818 -0.5345  0.4395  0.7880
 8363TIP3   OH249283   5.724   3.193  12.107 -0.7556  0.3827  0.6147
 8363TIP3    H149284   5.737   3.099  12.094  0.0697  0.5829 -0.0730
 8363TIP3    H249285   5.683   3.222  12.026 -2.0602  0.4320  1.2695
 8364TIP3   OH249286   2.317   0.132  11.233 -0.4721  0.0593 -0.4446
 8364TIP3    H149287   2.318   0.226  11.252  1.4473 -0.1240  0.5584
 8364TIP3    H249288   2.261   0.095  11.302 -0.6641  0.3732 -0.4258
 8365TIP3   OH249289   0.292   2.040  11.086 -0.1081 -0.1143  0.2078
 8365TIP3    H149290   0.218   2.015  11.142 -0.1694 -1.3246 -0.3771
 8365TIP3    H249291   0.346   1.960  11.082  0.0206  0.0343 -1.2527
 8366TIP3   OH249292   3.952   3.109  11.028  0.6522  0.1062  0.4173
 8366TIP3    H149293   4.027   3.052  11.048  0.0631 -1.4942 -1.5072
 8366TIP3    H249294   3.883   3.080  11.088  0.1371 -1.8349 -0.9854
 8367TIP3   OH249295   0.791   7.151  12.726 -0.3685 -0.1790  0.3876
 8367TIP3    H149296   0.698   7.141  12.747 -0.3047 -4.0220 -0.5276
 8367TIP3    H249297   0.791   7.202  12.645 -1.4416  1.7841  1.5230
 8368TIP3   OH249298   1.530   6.981  10.901  0.0620  0.2527  0.2067
 8368TIP3    H149299   1.463   6.915  10.918  0.1666  0.1865  0.3668
 8368TIP3    H249300   1.606   6.932  10.870 -0.4584  0.4603 -1.4801
 8369TIP3   OH249301   0.443   1.809  12.480 -0.4231 -0.2486 -0.4107
 8369TIP3    H149302   0.455   1.762  12.563  4.4404  0.9892 -0.1314
 8369TIP3    H249303   0.364   1.862  12.494 -0.9944 -1.6651  2.5715
 8370TIP3   OH249304   4.580   7.242  11.256 -0.0557 -0.4444 -0.0486
 8370TIP3    H149305   4.632   7.180  11.307 -0.5654 -0.0560  0.9706
 8370TIP3    H249306   4.508   7.266  11.314 -1.4238 -1.0230 -1.4532
 8371TIP3   OH249307   4.778   5.766  12.155 -0.3353  0.2037  0.2745
 8371TIP3    H149308   4.730   5.795  12.233 -0.1768  2.4354 -0.3866
 8371TIP3    H249309   4.763   5.836  12.091 -1.3615 -2.0590 -2.1182
 8372TIP3   OH249310   7.084   2.297  12.695  0.0970  0.0152  0.3974
 8372TIP3    H149311   7.114   2.387  12.692  0.3738 -0.0845 -0.0045
 8372TIP3    H249312   7.098   2.269  12.785  0.9215  0.0708  0.2937
 8373TIP3   OH249313   1.231   2.472  10.416  0.1609 -0.5366  0.4117
 8373TIP3    H149314   1.191   2.442  10.335 -0.6823 -1.1066  1.0290
 8373TIP3    H249315   1.309   2.417  10.426  2.0149  1.5119 -1.5230
 8374TIP3   OH249316   1.010   3.754  11.693  0.7126 -0.1366  0.1341
 8374TIP3    H149317   1.018   3.779  11.601  0.3584  1.7577  0.5817
 8374TIP3    H249318   1.056   3.822  11.741 -0.6510 -0.1035  1.4683
 8375TIP3   OH249319   3.427   5.665  12.646  0.6868  0.4857 -0.0076
 8375TIP3    H149320   3.517   5.674  12.677  0.3459  2.4859  0.4896
 8375TIP3    H249321   3.374   5.669  12.726  0.0845  0.6065 -0.4100
 8376TIP3   OH249322   6.301   4.265  11.690 -0.8501 -0.4729  0.1830
 8376TIP3    H149323   6.306   4.360  11.697 -1.4228 -0.3435 -1.0491
 8376TIP3    H249324   6.390   4.237  11.668 -1.0490 -0.0530 -1.2020
 8377TIP3   OH249325   1.167   1.115  11.555 -0.1772  0.1972 -0.3029
 8377TIP3    H149326   1.230   1.067  11.502 -1.1253 -0.9739 -0.4401
 8377TIP3    H249327   1.118   1.168  11.493  1.0175  1.5374 -0.1248
 8378TIP3   OH249328   6.441   0.639  12.974  0.1059 -0.2719  0.0596
 8378TIP3    H149329   6.450   0.544  12.972 -1.2536 -0.4284 -1.9560
 8378TIP3    H249330   6.347   0.654  12.987  0.0215  0.7145 -1.3494
 8379TIP3   OH249331   0.217   1.572  10.868  0.0106 -0.1874  0.1242
 8379TIP3    H149332   0.170   1.490  10.884 -1.7296  0.3338 -1.8109
 8379TIP3    H249333   0.203   1.624  10.946  1.1835 -1.6865  1.4080
 8380TIP3   OH249334   0.722   4.730  13.151 -0.0375 -0.4133  0.4062
 8380TIP3    H149335   0.803   4.761  13.111 -0.4128 -1.2040 -1.0743
 8380TIP3    H249336   0.655   4.791  13.120 -0.3002 -0.9177 -0.0443
 8381TIP3   OH249337   1.697   1.059  11.479  0.2284  0.1855 -0.3111
 8381TIP3    H149338   1.659   1.027  11.561  0.4594  0.9401  0.0954
 8381TIP3    H249339   1.687   1.154  11.483  0.8410  0.2782 -0.8584
 8382TIP3   OH249340   2.933   2.990  11.121 -0.3927  0.2691 -0.2407
 8382TIP3    H149341   2.967   2.902  11.137  1.2979  0.5444 -1.9857
 8382TIP3    H249342   2.967   3.043  11.193  0.2378 -0.1131 -0.2516
 8383TIP3   OH249343   2.040   4.575  10.940 -0.0010 -0.2902 -0.3663
 8383TIP3    H149344   2.021   4.540  10.853 -1.3696 -2.4395  0.7099
 8383TIP3    H249345   1.961   4.557  10.991  1.3714 -0.6761  1.7697
 8384TIP3   OH249346   1.010   7.499  11.250  0.0786  0.0094  0.2520
 8384TIP3    H149347   1.027   7.459  11.165 -0.1797  0.5013 -0.0330
 8384TIP3    H249348   0.916   7.488  11.263  0.0540  0.2726  0.2990
 8385TIP3   OH249349   0.351   4.172  11.581 -0.2657 -0.1719  0.2838
 8385TIP3    H149350   0.421   4.123  11.623 -0.4339 -1.9742 -1.3801
 8385TIP3    H249351   0.393   4.253  11.551  1.0723 -1.0944 -0.4480
 8386TIP3   OH249352   2.368   4.121  12.249  0.4856  0.2371 -0.2305
 8386TIP3    H149353   2.375   4.058  12.178  0.1368  0.5985 -0.5850
 8386TIP3    H249354   2.421   4.195  12.220  0.7332  0.1913  0.0987
 8387TIP3   OH249355   7.168   4.231  10.508  0.5398 -0.1128  0.0986
 8387TIP3    H149356   7.173   4.271  10.594 -0.0217 -1.6556  0.8780
 8387TIP3    H249357   7.101   4.281  10.461 -0.4480 -0.3975  1.1861
 8388TIP3   OH249358   4.978   1.771  12.929 -0.7536  0.1047  0.0174
 8388TIP3    H149359   4.981   1.681  12.963 -1.2437 -0.4100 -1.2061
 8388TIP3    H249360   5.062   1.782  12.884  0.2460  1.0757  2.0111
 8389TIP3   OH249361   4.015   5.336  12.167 -0.1248 -0.3417 -0.0896
 8389TIP3    H149362   4.045   5.259  12.119 -1.2596 -0.6641 -0.2884
 8389TIP3    H249363   4.017   5.309  12.259 -1.1745 -0.8433 -0.2070
 8390TIP3   OH249364   1.348   5.914  12.456 -0.3728  0.7755 -1.2523
 8390TIP3    H149365   1.410   5.951  12.394 -0.4871 -1.2957 -2.7226
 8390TIP3    H249366   1.402   5.888  12.531  0.0707  1.5603 -1.2889
 8391TIP3   OH249367   2.849   5.027  13.069 -0.5649 -0.3724 -0.3742
 8391TIP3    H149368   2.795   5.094  13.109  1.0062 -0.7354  2.7044
 8391TIP3    H249369   2.787   4.961  13.036 -2.0169  0.3812  0.7646
 8392TIP3   OH249370   3.067   2.225  12.397 -0.1246  0.5351 -0.1214
 8392TIP3    H149371   3.124   2.175  12.454 -0.3590  0.5186  0.0986
 8392TIP3    H249372   3.050   2.307  12.444 -1.2472  0.0474  0.3572
 8393TIP3   OH249373   7.199   6.655  12.210  0.5475 -0.2947  0.1165
 8393TIP3    H149374   7.189   6.641  12.305  1.5169  2.5612  0.7359
 8393TIP3    H249375   7.114   6.688  12.182  0.9359  1.1143  0.5188
 8394TIP3   OH249376   6.504   2.154  12.338  0.3243 -0.8640 -0.0490
 8394TIP3    H149377   6.416   2.153  12.376  0.6626  1.2164  0.9335
 8394TIP3    H249378   6.524   2.062  12.322 -2.4594 -1.3451 -1.4025
 8395TIP3   OH249379   1.025   0.510  11.107  0.0524 -0.1701  0.0103
 8395TIP3    H149380   0.975   0.432  11.085  0.6502 -0.3040 -0.9466
 8395TIP3    H249381   1.099   0.478  11.159  1.6619 -0.6402 -2.3884
 8396TIP3   OH249382   5.027   3.033  12.560 -0.1216 -1.0492  0.7925
 8396TIP3    H149383   5.096   3.053  12.622  0.1784  2.8212 -0.5293
 8396TIP3    H249384   4.979   3.115  12.549 -3.3279 -2.8634 -0.3552
 8397TIP3   OH249385   5.598   7.448  11.524  0.2661  0.7124 -0.0617
 8397TIP3    H149386   5.660   7.375  11.524  0.2968  0.6439 -2.6934
 8397TIP3    H249387   5.645   7.520  11.482 -0.7321  1.3151 -0.1721
 8398TIP3   OH249388   1.559   5.260  11.388  0.2588  0.2484 -0.0470
 8398TIP3    H149389   1.506   5.322  11.438  0.4337 -1.6420  2.6404
 8398TIP3    H249390   1.612   5.316  11.331  0.1399  2.5761  1.9560
 8399TIP3   OH249391   0.316   2.985  11.964 -0.3039  0.4843  0.2681
 8399TIP3    H149392   0.256   3.048  12.002 -1.3925  1.3732 -2.6203
 8399TIP3    H249393   0.271   2.900  11.973  0.0295  0.4684  1.9526
 8400TIP3   OH249394   6.949   3.403  10.428 -0.5020  0.5892  0.1441
 8400TIP3    H149395   6.924   3.494  10.446 -2.1982 -0.0316  1.1118
 8400TIP3    H249396   6.987   3.373  10.511  1.9003  0.9248 -0.7282
 8401TIP3   OH249397   3.691   4.065  10.704 -0.0916 -0.3050  0.0715
 8401TIP3    H149398   3.641   4.062  10.786  0.1791 -0.8474  0.2157
 8401TIP3    H249399   3.655   4.141  10.658  0.8416  1.0081  1.4036
 8402TIP3   OH249400   7.404   6.856  12.207 -0.0353 -0.1024  0.3368
 8402TIP3    H149401   7.351   6.777  12.201  3.0875 -2.4311  0.6810
 8402TIP3    H249402   7.482   6.830  12.257  1.5790  2.9466 -0.2902
 8403TIP3   OH249403   5.794   4.949  11.035 -0.0084  0.0964 -0.2994
 8403TIP3    H149404   5.768   4.944  11.127  0.7672  0.1714 -0.0708
 8403TIP3    H249405   5.717   4.920  10.987 -0.4705  0.1885  0.3667
 8404TIP3   OH249406   4.836   0.131  12.229 -0.0714 -0.6765 -0.2873
 8404TIP3    H149407   4.746   0.100  12.218 -1.2043  1.3685  1.9390
 8404TIP3    H249408   4.857   0.174  12.146 -0.4813 -2.5381 -1.4148
 8405TIP3   OH249409   0.956   3.164  11.150 -0.7572 -0.5464  0.0138
 8405TIP3    H149410   0.885   3.225  11.129  0.5326  0.7701 -0.7789
 8405TIP3    H249411   1.024   3.184  11.085  1.8415  0.9330  2.9011
 8406TIP3   OH249412   1.830   0.978  12.908 -0.5210 -0.6358 -0.5985
 8406TIP3    H149413   1.902   0.941  12.857  0.0498 -0.5446  0.1319
 8406TIP3    H249414   1.832   0.930  12.991  1.2555  1.9972  1.0484
 8407TIP3   OH249415   0.057   5.677  12.635 -0.0151  0.0709  0.6055
 8407TIP3    H149416   0.127   5.631  12.680 -0.6072 -0.6475  0.8098
 8407TIP3    H249417   0.045   5.630  12.553 -0.6068 -0.1395  0.8048
 8408TIP3   OH249418   0.932   0.881  12.957 -0.0929  0.1585  0.2850
 8408TIP3    H149419   0.971   0.889  13.044 -2.0918 -0.0619  1.2545
 8408TIP3    H249420   0.840   0.902  12.970 -0.1789  1.5971 -2.0705
 8409TIP3   OH249421   4.181   1.810  13.246  0.2364  0.5133 -0.1330
 8409TIP3    H149422   4.100   1.859  13.229 -0.1865 -0.1693 -0.1566
 8409TIP3    H249423   4.247   1.852  13.190 -0.7245 -0.6072 -2.2218
 8410TIP3   OH249424   2.886   2.633  12.195  0.1408 -0.4752  0.3484
 8410TIP3    H149425   2.950   2.579  12.149  1.3852  1.6083 -0.5299
 8410TIP3    H249426   2.921   2.643  12.283 -0.3403 -1.4528  0.6606
 8411TIP3   OH249427   4.995   2.923  10.883 -0.4620  0.0951  0.4142
 8411TIP3    H149428   5.003   2.985  10.955  0.5468 -0.9311  1.2293
 8411TIP3    H249429   5.079   2.929  10.838  1.4665 -3.5588  2.9940
 8412TIP3   OH249430   7.518   4.236  13.385 -0.5874 -0.2950  0.0496
 8412TIP3    H149431   7.595   4.268  13.339 -2.4762  2.5887 -1.4377
 8412TIP3    H249432   7.484   4.166  13.329 -0.9665  0.8621 -1.2222
 8413TIP3   OH249433   0.685   6.995  11.663  0.1566  0.3038  0.1513
 8413TIP3    H149434   0.608   6.986  11.607  0.2385  2.1315 -0.3183
 8413TIP3    H249435   0.739   6.918  11.643 -0.3239  0.3593 -1.4763
 8414TIP3   OH249436   1.552   2.429  12.229 -0.2250  0.0158  0.5457
 8414TIP3    H149437   1.520   2.492  12.294 -0.0170 -0.1121  0.7743
 8414TIP3    H249438   1.549   2.345  12.274 -0.0067 -0.0627  0.4157
 8415TIP3   OH249439   5.651   4.087  12.632  0.1886 -0.1014 -0.2749
 8415TIP3    H149440   5.659   4.178  12.603  0.4857  0.1001  0.4292
 8415TIP3    H249441   5.566   4.059  12.599 -0.2677  0.6905  0.2098
 8416TIP3   OH249442   0.569   2.522  12.317 -0.6194  0.0797  0.0572
 8416TIP3    H149443   0.502   2.491  12.256 -0.6683 -0.7568  0.5315
 8416TIP3    H249444   0.521   2.541  12.398 -0.3593 -0.0297  0.2372
 8417TIP3   OH249445   1.760   1.078  11.016  0.1601  0.7780 -0.6400
 8417TIP3    H149446   1.715   1.101  10.935 -0.0424  1.3478 -0.3715
 8417TIP3    H249447   1.698   1.103  11.085  0.1401 -0.1275 -0.3204
 8418TIP3   OH249448   0.464   1.302  11.262 -0.3642  0.2125  0.1290
 8418TIP3    H149449   0.451   1.263  11.348 -0.8277 -0.5605 -0.2702
 8418TIP3    H249450   0.558   1.302  11.248 -0.3816 -1.5542 -0.1858
 8419TIP3   OH249451   1.975   5.693  12.020 -0.1123  0.1544  0.1194
 8419TIP3    H149452   1.934   5.608  12.035 -0.2927  0.1372 -0.4459
 8419TIP3    H249453   1.905   5.747  11.984 -0.0891  0.6462  0.7921
 8420TIP3   OH249454   0.606   2.518  10.317  0.5529  0.1040  0.1379
 8420TIP3    H149455   0.641   2.431  10.336  0.2561  0.1125  0.7576
 8420TIP3    H249456   0.518   2.501  10.282 -0.2642  0.1872  1.9960
 8421TIP3   OH249457   2.932   2.553  11.569 -0.4055 -0.1317  0.2845
 8421TIP3    H149458   2.856   2.497  11.582  0.7794 -1.4412  2.0761
 8421TIP3    H249459   2.929   2.616  11.641  1.3130 -1.5753  1.6942
 8422TIP3   OH249460   2.424   5.722  11.111  0.4293  0.7232 -0.5813
 8422TIP3    H149461   2.514   5.745  11.132  0.7200 -0.6101 -0.3152
 8422TIP3    H249462   2.431   5.662  11.037 -0.0607 -1.2253  0.8724
 8423TIP3   OH249463   6.138   5.367  11.364 -0.0018 -0.2663  0.0009
 8423TIP3    H149464   6.222   5.414  11.364 -0.5650  0.7702 -0.6611
 8423TIP3    H249465   6.131   5.331  11.453 -0.0849  1.9303  0.9443
 8424TIP3   OH249466   2.083   6.151  10.995  0.2952 -0.4280 -0.1089
 8424TIP3    H149467   2.160   6.105  11.028  0.6948  0.2890 -0.0316
 8424TIP3    H249468   2.048   6.198  11.071 -0.7479 -1.4514  0.0730
 8425TIP3   OH249469   2.494   5.522  13.371  0.2723 -0.3568  0.0006
 8425TIP3    H149470   2.467   5.505  13.461 -1.1666  0.6763 -0.2061
 8425TIP3    H249471   2.423   5.484  13.318  0.4336  0.2313 -0.6421
 8426TIP3   OH249472   0.769   2.461  10.857 -0.1257 -0.2254  0.1345
 8426TIP3    H149473   0.727   2.546  10.856  0.4848  0.0914 -1.2387
 8426TIP3    H249474   0.852   2.475  10.903  1.4431  0.7394 -2.7430
 8427TIP3   OH249475   2.497   0.968  10.574 -0.4243  0.2622 -0.6937
 8427TIP3    H149476   2.591   0.981  10.569 -0.1785 -1.3635 -0.9183
 8427TIP3    H249477   2.479   0.898  10.511 -1.7485  0.3951 -0.4925
 8428TIP3   OH249478   3.064   2.951  11.553  0.1932 -0.2564  0.5163
 8428TIP3    H149479   3.119   3.005  11.610  1.0055 -0.5820  0.0661
 8428TIP3    H249480   3.104   2.864  11.557 -0.1179 -0.4297 -0.0508
 8429TIP3   OH249481   7.342   0.687  11.228 -0.1119 -0.5064 -0.1433
 8429TIP3    H149482   7.326   0.613  11.287  0.3803 -0.5092 -0.0142
 8429TIP3    H249483   7.265   0.688  11.171 -1.0877  0.1471  1.1476
 8430TIP3   OH249484   3.237   1.568  12.334  0.2569  0.2091  0.6919
 8430TIP3    H149485   3.212   1.628  12.264 -0.1127  0.1247  0.7474
 8430TIP3    H249486   3.319   1.603  12.368  1.4718 -0.7927 -1.0290
 8431TIP3   OH249487   3.335   0.342  10.705 -0.0941  0.0613  0.2248
 8431TIP3    H149488   3.282   0.287  10.647 -1.4217  1.3818  0.1286
 8431TIP3    H249489   3.271   0.390  10.758  0.8501  3.2164 -1.2711
 8432TIP3   OH249490   4.374   6.485  12.558  0.5439  0.4323 -0.9996
 8432TIP3    H149491   4.320   6.410  12.533 -0.9937  0.7182  1.2039
 8432TIP3    H249492   4.405   6.464  12.646 -0.3298  2.5456 -0.1219
 8433TIP3   OH249493   2.614   2.357  12.138  0.1280  0.1345  0.1057
 8433TIP3    H149494   2.638   2.267  12.114  1.8745  0.2964  1.0633
 8433TIP3    H249495   2.671   2.378  12.212  0.3774  2.3304 -0.6217
 8434TIP3   OH249496   3.095   6.623  12.752  0.0920  0.0192 -0.0467
 8434TIP3    H149497   3.108   6.703  12.701  1.0548  0.7055  1.2149
 8434TIP3    H249498   3.180   6.579  12.748 -0.4996 -1.0966 -0.9340
 8435TIP3   OH249499   6.582   1.855  12.336 -0.6579  0.0521  0.2796
 8435TIP3    H149500   6.639   1.848  12.260 -0.3528  1.6700  0.3165
 8435TIP3    H249501   6.632   1.816  12.408  0.5845  1.7302  0.3790
 8436TIP3   OH249502   1.151   4.610  11.681 -0.0628  0.0877  0.4344
 8436TIP3    H149503   1.206   4.534  11.704  0.4469 -0.1505 -1.4155
 8436TIP3    H249504   1.209   4.668  11.633 -1.1357  0.3771 -0.5597
 8437TIP3   OH249505   5.695   3.951  10.958 -0.0590 -0.1474  0.5750
 8437TIP3    H149506   5.649   3.929  11.038  0.2732  0.0869  0.8321
 8437TIP3    H249507   5.658   3.893  10.892 -0.9365  0.2495  0.7107
 8438TIP3   OH249508   5.531   1.745  13.053  0.3711  0.2386 -0.0933
 8438TIP3    H149509   5.499   1.747  12.963  0.1516  0.9547 -0.0035
 8438TIP3    H249510   5.588   1.822  13.060 -0.2519  0.6538  0.6059
 8439TIP3   OH249511   1.457   2.297  10.486  0.7488 -0.4076  0.0332
 8439TIP3    H149512   1.527   2.341  10.535  1.2664 -0.4986 -0.6017
 8439TIP3    H249513   1.491   2.208  10.472  0.3403 -0.5656  0.0509
 8440TIP3   OH249514   5.152   5.558  12.457  0.1271  0.3382  0.6462
 8440TIP3    H149515   5.122   5.582  12.369  2.3497  1.5347  0.1286
 8440TIP3    H249516   5.105   5.618  12.515 -0.4140  0.4174  0.1340
 8441TIP3   OH249517   4.352   4.473  12.249  0.1606  0.2434  0.7089
 8441TIP3    H149518   4.284   4.432  12.195 -0.6509  1.5680  0.6648
 8441TIP3    H249519   4.386   4.402  12.304 -1.7218 -0.3306  1.1998
 8442TIP3   OH249520   2.100   1.793  10.644 -0.1581 -0.0307  0.4453
 8442TIP3    H149521   2.185   1.753  10.628 -1.1847 -3.2663  2.1679
 8442TIP3    H249522   2.102   1.819  10.736 -0.0021  2.9252 -0.3011
 8443TIP3   OH249523   7.318   2.017  12.331  0.2213  0.3589 -0.0271
 8443TIP3    H149524   7.286   2.006  12.421  2.0725 -1.8260  0.4674
 8443TIP3    H249525   7.239   2.035  12.279 -1.2137 -0.6815  1.6843
 8444TIP3   OH249526   0.812   2.547  10.494  0.2146 -0.3518  0.3437
 8444TIP3    H149527   0.738   2.570  10.437 -1.2482 -1.8281  1.5710
 8444TIP3    H249528   0.854   2.631  10.513 -1.3396  0.5727 -0.1338
 8445TIP3   OH249529   0.412   3.249  11.500 -0.0746 -0.2166  0.1355
 8445TIP3    H149530   0.401   3.226  11.592  1.2512 -0.1727  0.3244
 8445TIP3    H249531   0.372   3.335  11.492 -1.4306 -0.8135  0.3459
 8446TIP3   OH249532   7.585   5.449  12.520 -0.6603 -0.6238  0.3497
 8446TIP3    H149533   7.507   5.505  12.514  0.5855  1.1632  0.1707
 8446TIP3    H249534   7.630   5.463  12.437  0.7351 -0.2327  1.1460
 8447TIP3   OH249535   0.957   7.058  11.197 -0.6517  0.2272 -0.7810
 8447TIP3    H149536   0.907   7.137  11.176 -0.6077  0.7028  0.7537
 8447TIP3    H249537   1.013   7.084  11.270 -0.5609 -1.1920 -0.3066
 8448TIP3   OH249538   6.376   0.886  12.767  0.0056  0.3861 -0.2147
 8448TIP3    H149539   6.412   0.909  12.681  1.0071  1.0897  0.3703
 8448TIP3    H249540   6.428   0.937  12.829  0.0009 -0.9075  0.8972
 8449TIP3   OH249541   1.423   3.645  12.066 -0.2515  0.1248 -0.6303
 8449TIP3    H149542   1.505   3.651  12.016  0.4111 -0.3756  0.3719
 8449TIP3    H249543   1.430   3.564  12.115 -1.2694  0.1797 -0.3686
 8450TIP3   OH249544   0.397   5.563  11.529 -0.0211 -0.4424  0.1037
 8450TIP3    H149545   0.455   5.514  11.587 -0.8465 -2.2397 -0.5058
 8450TIP3    H249546   0.456   5.598  11.461  0.4610 -1.8129 -0.2318
 8451TIP3   OH249547   3.868   6.921  11.270  0.6432 -0.2049  0.4680
 8451TIP3    H149548   3.898   6.904  11.359 -0.6724 -1.2226  0.7522
 8451TIP3    H249549   3.794   6.981  11.280  0.9478  0.2551 -0.0015
 8452TIP3   OH249550   7.476   0.280  12.046  0.2529  0.0978  0.6259
 8452TIP3    H149551   7.488   0.185  12.051  0.3364 -0.0019 -0.9380
 8452TIP3    H249552   7.487   0.310  12.136  3.1065 -1.0548  0.7752
 8453TIP3   OH249553   0.935   2.826  12.741  0.3117 -0.0108  0.2772
 8453TIP3    H149554   0.961   2.741  12.778  0.6981  0.1449  0.3695
 8453TIP3    H249555   0.864   2.856  12.797 -0.5256 -0.7406 -0.3601
 8454TIP3   OH249556   3.438   0.305  13.176  0.2875  0.5202 -0.5122
 8454TIP3    H149557   3.363   0.364  13.188  1.8288  2.1032  3.1094
 8454TIP3    H249558   3.417   0.228  13.228  0.1513 -0.2195 -1.6252
 8455TIP3   OH249559   0.871   2.744  11.531  0.2067  0.1398 -0.3779
 8455TIP3    H149560   0.818   2.670  11.560 -0.6447  1.1228  0.6943
 8455TIP3    H249561   0.815   2.790  11.468 -0.0613  0.9279  0.4148
 8456TIP3   OH249562   4.084   4.118  11.315  0.3104 -0.0181 -0.1464
 8456TIP3    H149563   4.044   4.063  11.382  0.1789  0.2099 -0.0352
 8456TIP3    H249564   4.125   4.190  11.364  0.7404 -0.1755 -0.2685
 8457TIP3   OH249565   0.209   7.202  11.664  0.0872  1.3590  0.2865
 8457TIP3    H149566   0.296   7.187  11.628 -0.2630  0.4321 -0.2002
 8457TIP3    H249567   0.154   7.216  11.587 -0.0488  2.8582  0.6241
 8458TIP3   OH249568   7.341   0.870  10.914 -0.7474  0.0311 -1.0120
 8458TIP3    H149569   7.366   0.815  10.988  0.1157  1.2810 -0.3203
 8458TIP3    H249570   7.254   0.840  10.890 -1.5387  0.3032  1.2566
 8459TIP3   OH249571   2.522   0.867  11.141 -0.2668  0.5279  0.1465
 8459TIP3    H149572   2.511   0.962  11.138 -0.3183  0.5416  0.5823
 8459TIP3    H249573   2.616   0.853  11.139 -0.2430  0.6127  0.4961
 8460TIP3   OH249574   4.784   3.772  11.126  0.4285 -0.1412 -0.4409
 8460TIP3    H149575   4.776   3.844  11.189  1.1876 -0.3353 -0.1205
 8460TIP3    H249576   4.859   3.722  11.156  0.4791 -0.5340 -1.2081
 8461TIP3   OH249577   2.914   1.637  12.373 -0.5273  0.5319  0.2815
 8461TIP3    H149578   2.838   1.587  12.404 -0.4357  0.8607  1.0474
 8461TIP3    H249579   2.877   1.708  12.322 -0.7111  0.4178  0.2540
 8462TIP3   OH249580   5.100   5.250  11.319 -0.0953  0.2235  0.7900
 8462TIP3    H149581   5.136   5.331  11.281  1.7282  0.3948  2.6979
 8462TIP3    H249582   5.073   5.199  11.243 -0.5418  2.2633 -0.5207
 8463TIP3   OH249583   7.449   4.242  12.163 -0.1333  0.6472 -0.1959
 8463TIP3    H149584   7.441   4.321  12.216 -0.6400  0.0111  0.7018
 8463TIP3    H249585   7.534   4.204  12.188  0.0341  0.8121 -0.5043
 8464TIP3   OH249586   1.459   6.538  12.027 -0.2951 -0.4122  0.3300
 8464TIP3    H149587   1.482   6.488  12.105  1.4315 -0.6142 -0.2720
 8464TIP3    H249588   1.460   6.473  11.956 -2.2133 -0.3125  0.1418
 8465TIP3   OH249589   1.342   4.414  11.719 -0.0802  0.0865  0.0372
 8465TIP3    H149590   1.435   4.391  11.723  0.3863  1.9408  2.0174
 8465TIP3    H249591   1.306   4.381  11.801 -1.5140 -1.7189 -1.2600
 8466TIP3   OH249592   2.059   4.070  11.509  0.2217 -0.1056 -0.8001
 8466TIP3    H149593   2.117   4.146  11.521  1.1306 -0.4733 -2.5209
 8466TIP3    H249594   2.008   4.066  11.590  0.8106  1.7712 -0.2697
 8467TIP3   OH249595   6.619   5.651  11.279 -0.0648 -0.3656  0.0982
 8467TIP3    H149596   6.686   5.699  11.231  1.4783  0.4507  2.8544
 8467TIP3    H249597   6.667   5.584  11.327 -1.6206 -1.6353 -0.0537
 8468TIP3   OH249598   7.099   6.567  11.472  0.3134 -0.0469  0.2405
 8468TIP3    H149599   7.193   6.566  11.491  0.5564  1.5470 -0.7011
 8468TIP3    H249600   7.075   6.660  11.474 -1.2080 -0.4146  0.2438
 8469TIP3   OH249601   2.462   0.658  11.928  0.0786 -0.3355  0.6185
 8469TIP3    H149602   2.404   0.717  11.975  0.0092 -1.2041  1.6463
 8469TIP3    H249603   2.406   0.587  11.898 -0.3775  1.2623 -2.8813
 8470TIP3   OH249604   0.989   5.309  11.866  0.1795  0.1309  0.2149
 8470TIP3    H149605   0.920   5.374  11.882  0.6637  0.3815  1.3742
 8470TIP3    H249606   0.968   5.273  11.780 -1.2437  0.4014  0.4223
 8471TIP3   OH249607   6.697   2.741  10.359 -0.0049 -0.1261 -0.3629
 8471TIP3    H149608   6.730   2.688  10.287 -0.2985 -0.5667 -0.1801
 8471TIP3    H249609   6.705   2.684  10.436 -0.0182  0.2118 -0.1082
 8472TIP3   OH249610   7.669   2.842  12.274  0.2443 -0.3788  0.4024
 8472TIP3    H149611   7.648   2.824  12.183 -0.2801  0.3198  0.3778
 8472TIP3    H249612   7.702   2.759  12.308  2.1373 -0.1994 -0.8760
 8473TIP3   OH249613   6.339   4.526  10.696 -0.3439  0.3072 -0.2068
 8473TIP3    H149614   6.330   4.435  10.726 -2.9050  0.6868  0.4404
 8473TIP3    H249615   6.391   4.519  10.617  1.6700 -1.4086  1.1416
 8474TIP3   OH249616   2.133   1.468  11.358 -0.5068  0.5215  0.1954
 8474TIP3    H149617   2.212   1.424  11.327 -0.0901  0.8066  0.8325
 8474TIP3    H249618   2.081   1.398  11.399 -0.8872  0.2149 -0.7974
 8475TIP3   OH249619   2.891   4.468  12.493  0.7310 -0.3842  0.1129
 8475TIP3    H149620   2.882   4.456  12.587 -0.7170 -0.4011 -0.0066
 8475TIP3    H249621   2.888   4.379  12.457  0.7539 -0.3424  0.0070
 8476TIP3   OH249622   0.717   5.827  10.792 -0.0377  0.0110 -0.2245
 8476TIP3    H149623   0.754   5.740  10.806  1.3003  0.5997  0.0804
 8476TIP3    H249624   0.751   5.879  10.864 -0.8722  0.7816 -0.3727
 8477TIP3   OH249625   4.893   0.270  10.950  0.1583  0.0787  0.6306
 8477TIP3    H149626   4.822   0.302  11.006 -1.2087  0.0031 -0.9751
 8477TIP3    H249627   4.968   0.326  10.972 -0.4345  0.2730  2.2575
 8478TIP3   OH249628   7.442   0.678  11.714 -0.2911 -0.1184  0.2212
 8478TIP3    H149629   7.449   0.727  11.796 -2.5365  1.4685 -0.4446
 8478TIP3    H249630   7.527   0.689  11.672  0.5152 -0.0250  1.8231
 8479TIP3   OH249631   3.989   7.602  13.161  0.0987  0.5491 -0.2655
 8479TIP3    H149632   4.037   7.685  13.162 -2.6528  2.3318 -1.8411
 8479TIP3    H249633   3.915   7.617  13.220  0.2247 -1.2912  0.4062
 8480TIP3   OH249634   5.096   5.028  12.664 -0.0712  0.6948 -0.7514
 8480TIP3    H149635   5.011   5.010  12.705 -0.4157  1.7778 -0.9656
 8480TIP3    H249636   5.160   4.985  12.722 -0.6320  1.2949  0.3476
 8481TIP3   OH249637   0.618   5.059  12.268  0.5669 -0.6089 -0.4342
 8481TIP3    H149638   0.709   5.066  12.298  1.1531 -0.8081 -2.0849
 8481TIP3    H249639   0.566   5.062  12.349  1.9727  0.4743  0.4788
 8482TIP3   OH249640   7.284   3.092  11.869  0.5933 -0.1687 -0.6545
 8482TIP3    H149641   7.263   3.018  11.927  1.6826  0.7896  1.0520
 8482TIP3    H249642   7.201   3.115  11.828 -0.4158 -0.3503  1.2033
 8483TIP3   OH249643   7.602   6.585  12.037  0.2069  0.2743 -0.0852
 8483TIP3    H149644   7.569   6.503  12.073  0.3684  0.2114 -0.0807
 8483TIP3    H249645   7.615   6.641  12.114 -2.1184  1.1341 -0.2330
 8484TIP3   OH249646   7.651   1.682  12.595  0.0180 -0.3773  0.1146
 8484TIP3    H149647   7.693   1.661  12.512  0.5179 -0.8649  0.4765
 8484TIP3    H249648   7.724   1.696  12.656 -0.2475 -3.0644  1.2110
 8485TIP3   OH249649   6.666   1.998  11.048  0.2284  0.3048  0.6483
 8485TIP3    H149650   6.623   2.053  10.982 -1.5048  1.1304  2.3395
 8485TIP3    H249651   6.720   1.937  10.998 -3.5184 -1.3495 -1.7815
 8486TIP3   OH249652   6.785   3.387  11.806  0.1147 -0.5555 -0.0318
 8486TIP3    H149653   6.768   3.293  11.817 -0.7739 -0.6194 -1.5977
 8486TIP3    H249654   6.825   3.393  11.719  1.1379  0.4277  0.4879
 8487TIP3   OH249655   3.226   3.083  13.516  0.1417 -0.4112 -0.4301
 8487TIP3    H149656   3.179   3.042  13.588 -0.6089  1.8127  0.4488
 8487TIP3    H249657   3.174   3.062  13.438 -1.2044  0.2749  0.2432
 8488TIP3   OH249658   0.245   3.923  13.553 -0.0985  0.3348 -0.2548
 8488TIP3    H149659   0.276   3.918  13.643  0.1488 -0.9193 -0.3874
 8488TIP3    H249660   0.298   3.992  13.512  0.8552 -0.1423  0.1589
 8489TIP3   OH249661   6.191   0.285  11.490  0.1397 -0.4435 -0.2505
 8489TIP3    H149662   6.237   0.240  11.561 -0.0806 -1.0574 -0.4876
 8489TIP3    H249663   6.199   0.225  11.415  1.2720  0.6607 -1.0479
 8490TIP3   OH249664   0.981   5.134  10.503 -0.1581  0.4874 -0.0137
 8490TIP3    H149665   0.952   5.203  10.561 -2.3618  0.1018 -0.5876
 8490TIP3    H249666   1.000   5.059  10.560  0.6745  1.0340  0.4471
 8491TIP3   OH249667   2.165   2.680  11.261 -0.0480 -0.5695  0.0035
 8491TIP3    H149668   2.225   2.735  11.211  1.5557  0.9188  3.2589
 8491TIP3    H249669   2.079   2.697  11.221  0.7177  2.5605 -0.6114
 8492TIP3   OH249670   2.800   2.399  12.380  0.5334  0.6246  0.0528
 8492TIP3    H149671   2.803   2.415  12.475  2.3008 -1.7744  0.4767
 8492TIP3    H249672   2.834   2.480  12.342  0.1152  1.5092  1.4421
 8493TIP3   OH249673   0.075   2.591  12.285 -0.5608 -0.8522 -0.3384
 8493TIP3    H149674   0.137   2.529  12.324 -1.5939 -1.3060  0.6349
 8493TIP3    H249675   0.076   2.570  12.192  1.2690 -0.3668 -0.4658
 8494TIP3   OH249676   1.402   3.488  12.502 -0.4136  0.0343  0.0047
 8494TIP3    H149677   1.345   3.565  12.494  0.8688  0.8998 -1.2267
 8494TIP3    H249678   1.474   3.505  12.442  1.0185 -1.1714  1.3065
 8495TIP3   OH249679   6.800   5.081  11.175  0.7151 -0.1464 -0.1258
 8495TIP3    H149680   6.816   5.172  11.147 -0.3487  0.7423  1.9482
 8495TIP3    H249681   6.711   5.062  11.144  0.5918 -0.1483  0.2266
 8496TIP3   OH249682   2.237   2.681  12.603 -0.2587  0.0790  0.6570
 8496TIP3    H149683   2.180   2.664  12.528  1.2525  1.6044 -0.9390
 8496TIP3    H249684   2.311   2.621  12.591 -0.7283 -0.7516  1.8121
 8497TIP3   OH249685   6.695   3.355  10.479  0.6717 -0.5904  0.3584
 8497TIP3    H149686   6.702   3.368  10.574  1.0244 -0.0110  0.2597
 8497TIP3    H249687   6.782   3.375  10.446  0.3145  0.0995 -0.1867
 8498TIP3   OH249688   3.667   6.548  12.354  0.0380 -0.0441  0.1178
 8498TIP3    H149689   3.607   6.572  12.424 -0.7240 -0.9410 -0.1971
 8498TIP3    H249690   3.649   6.455  12.339 -0.4890  0.3305 -1.8922
 8499TIP3   OH249691   5.255   6.174  12.861  0.4655  0.3362 -0.5147
 8499TIP3    H149692   5.171   6.205  12.827 -0.8947 -1.6930  0.8599
 8499TIP3    H249693   5.313   6.177  12.785 -1.2616  0.2505 -1.9036
 8500TIP3   OH249694   6.284   1.994  11.363  0.4549 -0.2714  0.1692
 8500TIP3    H149695   6.355   1.955  11.312  0.2664 -1.2514  0.6221
 8500TIP3    H249696   6.302   1.968  11.454 -0.6842 -0.8788  0.2444
 8501TIP3   OH249697   2.819   1.797  12.815  0.0340 -0.0036 -0.1679
 8501TIP3    H149698   2.814   1.858  12.741 -0.4839 -0.1970 -0.2979
 8501TIP3    H249699   2.759   1.833  12.880 -1.9469 -1.4714 -1.0733
 8502TIP3   OH249700   6.567   3.633  11.771 -0.4709 -0.5816 -0.0187
 8502TIP3    H149701   6.585   3.540  11.759 -0.4377 -0.3376 -2.3346
 8502TIP3    H249702   6.542   3.664  11.684 -0.0022  1.6887  0.5874
 8503TIP3   OH249703   5.808   2.048  11.138  0.4602  0.0038  0.5412
 8503TIP3    H149704   5.865   2.125  11.145 -0.7786  0.8990  1.1378
 8503TIP3    H249705   5.868   1.974  11.136  1.7080  1.0032 -0.5566
 8504TIP3   OH249706   2.857   5.398  12.775 -0.0119  0.0220  0.1755
 8504TIP3    H149707   2.929   5.402  12.839 -0.0742 -0.6283  0.2852
 8504TIP3    H249708   2.809   5.318  12.796 -1.3307  0.9118  0.6889
 8505TIP3   OH249709   1.889   0.254  12.066  0.0195 -0.1186  0.2614
 8505TIP3    H149710   1.826   0.279  11.998  0.2778  1.5678  0.6014
 8505TIP3    H249711   1.927   0.337  12.095  1.4926 -0.9940  0.9469
 8506TIP3   OH249712   5.895   2.393  10.606  0.4175  0.1583  0.7274
 8506TIP3    H149713   5.832   2.328  10.637  1.8697 -1.6586  0.0576
 8506TIP3    H249714   5.901   2.457  10.678 -0.2957 -0.9933  1.8558
 8507TIP3   OH249715   5.165   2.011  11.196  0.3621  0.3062 -0.0660
 8507TIP3    H149716   5.176   1.945  11.127 -0.3231 -0.8793  0.9203
 8507TIP3    H249717   5.074   2.041  11.186 -0.2044 -0.8915  1.1475
 8508TIP3   OH249718   3.331   2.345  10.755 -0.2596  0.2344 -0.4496
 8508TIP3    H149719   3.322   2.424  10.702 -1.3482  1.0617  0.9129
 8508TIP3    H249720   3.424   2.344  10.781 -0.6238  2.2771  1.2455
 8509TIP3   OH249721   5.553   1.594  11.564 -0.2733 -0.2772  0.5505
 8509TIP3    H149722   5.460   1.616  11.567 -0.2363  0.2432 -1.1687
 8509TIP3    H249723   5.590   1.637  11.641 -1.1730  0.9792  0.3074
 8510TIP3   OH249724   1.117   0.510  10.586  0.3467 -0.1134  0.2371
 8510TIP3    H149725   1.100   0.600  10.559 -1.5699 -0.5473 -0.2052
 8510TIP3    H249726   1.130   0.515  10.680 -2.0025  0.4344  0.6010
 8511TIP3   OH249727   2.162   1.845  12.532 -0.4666  0.2111 -0.3225
 8511TIP3    H149728   2.196   1.802  12.610 -0.8738 -1.1245 -0.8678
 8511TIP3    H249729   2.067   1.839  12.540 -0.5174  0.3547 -0.7735
 8512TIP3   OH249730   6.662   4.732  11.671 -0.2782  0.0501  0.6561
 8512TIP3    H149731   6.573   4.767  11.677 -0.7818 -0.9909 -0.5202
 8512TIP3    H249732   6.661   4.674  11.595  1.0185 -1.1097  1.4669
 8513TIP3   OH249733   6.914   5.165  12.874  0.5676  0.2363  0.0572
 8513TIP3    H149734   6.951   5.229  12.813  1.2720 -0.1408  0.0737
 8513TIP3    H249735   6.990   5.129  12.920  0.1203 -0.1209  0.5363
 8514TIP3   OH249736   5.697   5.625  10.896  0.0985 -0.1328 -0.0744
 8514TIP3    H149737   5.759   5.697  10.908 -0.1511  0.0848 -0.0869
 8514TIP3    H249738   5.721   5.562  10.964  0.4727 -0.1473 -0.2175
 8515TIP3   OH249739   5.098   7.582  12.028  0.1394  0.3543  0.1080
 8515TIP3    H149740   5.073   7.652  11.968  1.3326  0.1586 -0.6412
 8515TIP3    H249741   5.193   7.585  12.031  0.1850 -0.8663  0.5005
 8516TIP3   OH249742   2.403   5.115  11.222  0.7615 -0.4246  0.0790
 8516TIP3    H149743   2.326   5.136  11.169  0.8332 -0.5470 -0.0742
 8516TIP3    H249744   2.464   5.186  11.203  1.1743 -0.9962 -0.7800
 8517TIP3   OH249745   6.865   5.240  11.503  0.0434 -0.1122  0.6649
 8517TIP3    H149746   6.956   5.210  11.499  0.3294  0.8478 -0.9072
 8517TIP3    H249747   6.815   5.161  11.524  0.7390 -1.9425 -3.4653
 8518TIP3   OH249748   4.911   0.442  12.350 -0.2835  0.1296  0.6078
 8518TIP3    H149749   5.000   0.433  12.384  0.6713  1.9863 -1.1657
 8518TIP3    H249750   4.910   0.390  12.270 -0.6041  0.5737  0.3180
 8519TIP3   OH249751   2.229   4.986  12.383 -0.0470  0.3393 -0.8549
 8519TIP3    H149752   2.261   4.974  12.473 -0.2372 -0.7183 -0.9250
 8519TIP3    H249753   2.309   4.996  12.331  0.3032 -2.7146 -1.0900
 8520TIP3   OH249754   1.987   0.213  11.088  0.0274  0.0424 -0.7294
 8520TIP3    H149755   2.025   0.145  11.145 -0.5722  0.4015  0.1266
 8520TIP3    H249756   1.933   0.164  11.026  0.4283 -0.3364 -0.7838
 8521TIP3   OH249757   2.327   4.938  12.670  0.3521  0.3857  0.2596
 8521TIP3    H149758   2.238   4.962  12.698  0.8952  1.5910  1.0695
 8521TIP3    H249759   2.349   4.862  12.723 -0.3645 -0.2279 -0.2991
 8522TIP3   OH249760   0.812   1.676  10.744  0.4385 -0.1761  0.0616
 8522TIP3    H149761   0.743   1.629  10.698  0.9827 -1.0566  0.1093
 8522TIP3    H249762   0.799   1.654  10.836  0.7886 -0.3750  0.0678
 8523TIP3   OH249763   7.007   3.525  11.877 -0.1935  0.2914  0.0493
 8523TIP3    H149764   7.064   3.505  11.802  1.4599  2.5587  0.5736
 8523TIP3    H249765   6.925   3.480  11.858  1.3029 -2.0242 -1.4221
 8524TIP3   OH249766   7.614   0.944  11.535  0.3610 -0.6077 -0.1627
 8524TIP3    H149767   7.648   0.972  11.620  2.0276 -0.9461 -0.6886
 8524TIP3    H249768   7.612   0.848  11.541  0.3703 -0.6282 -0.4738
 8525TIP3   OH249769   1.989   4.961  10.971  0.3142  0.6458 -0.2313
 8525TIP3    H149770   2.012   5.049  10.941  2.0837  0.6003  0.8742
 8525TIP3    H249771   2.073   4.915  10.978 -0.5318 -0.9838 -0.2817
 8526TIP3   OH249772   1.297   1.526  10.647 -0.7350  0.4293  0.3399
 8526TIP3    H149773   1.211   1.513  10.607 -0.6727 -2.4536  0.9149
 8526TIP3    H249774   1.346   1.577  10.582 -2.2709  0.5057 -0.8245
 8527TIP3   OH249775   6.848   2.209  11.986  0.4617 -0.1334 -0.0707
 8527TIP3    H149776   6.861   2.118  11.959 -1.9533  0.2968 -3.3474
 8527TIP3    H249777   6.803   2.203  12.070  1.0146 -1.9310  0.1416
 8528TIP3   OH249778   5.321   1.789  11.332  0.3148  0.1660 -0.0401
 8528TIP3    H149779   5.269   1.869  11.327  0.0076 -0.1112 -2.3243
 8528TIP3    H249780   5.259   1.723  11.364 -1.0518 -0.2667 -3.1821
 8529TIP3   OH249781   3.219   0.055  12.997  0.1686 -0.0798  0.1288
 8529TIP3    H149782   3.123   0.050  12.996  0.0887  0.7347  1.2962
 8529TIP3    H249783   3.238   0.145  12.970  0.7812 -1.1050 -3.3073
 8530TIP3   OH249784   6.516   6.175  11.360 -0.3057  0.3536 -0.0977
 8530TIP3    H149785   6.512   6.081  11.342 -3.7367  0.3092  0.2201
 8530TIP3    H249786   6.598   6.204  11.320  1.3774 -2.8927  0.6595
 8531TIP3   OH249787   1.903   7.443  12.119  0.2036  0.3569  0.2023
 8531TIP3    H149788   1.981   7.446  12.176 -0.1622 -0.6555  0.7876
 8531TIP3    H249789   1.845   7.379  12.162 -0.2682 -0.1013 -1.0848
 8532TIP3   OH249790   7.138   5.443  12.360  0.5454  0.4526  0.2636
 8532TIP3    H149791   7.068   5.387  12.394  0.7621 -0.4843 -0.7572
 8532TIP3    H249792   7.209   5.383  12.340  1.9034  1.4481  1.8044
 8533TIP3   OH249793   7.395   3.384  13.177  0.1595 -0.1574  0.2235
 8533TIP3    H149794   7.381   3.472  13.142 -0.2513  0.0474  0.8840
 8533TIP3    H249795   7.359   3.388  13.266  0.5036 -0.8780  0.3990
 8534TIP3   OH249796   1.848   1.866  11.258  0.6586  0.2417 -0.4533
 8534TIP3    H149797   1.882   1.935  11.201  1.4154 -1.4343 -2.1555
 8534TIP3    H249798   1.917   1.854  11.323 -0.2849  2.2864  1.0378
 8535TIP3   OH249799   0.522   1.235  10.564  0.3059  0.5926  0.2932
 8535TIP3    H149800   0.467   1.312  10.549 -0.3439 -0.0947 -1.0912
 8535TIP3    H249801   0.475   1.185  10.631 -0.9843 -0.1353 -1.0843
 8536TIP3   OH249802   0.782   6.354  10.809  0.2269 -0.3120  0.5009
 8536TIP3    H149803   0.709   6.416  10.815  0.4036 -0.0574  0.0962
 8536TIP3    H249804   0.850   6.392  10.863  1.0738  0.9189 -1.3323
 8537TIP3   OH249805   3.206   5.296  12.499 -0.1166  0.0794 -0.8680
 8537TIP3    H149806   3.116   5.316  12.475 -1.1402 -2.7432  0.2803
 8537TIP3    H249807   3.204   5.282  12.594  1.4559 -0.3534 -0.8635
 8538TIP3   OH249808   1.002   6.342  12.407  0.3250 -0.2348  0.2345
 8538TIP3    H149809   0.916   6.335  12.449  0.9524  1.8089  2.0670
 8538TIP3    H249810   1.028   6.252  12.390 -3.2814 -0.9476 -2.9744
 8539TIP3   OH249811   4.843   6.632  11.174 -0.5965  0.3468 -0.3330
 8539TIP3    H149812   4.868   6.603  11.262 -2.8316 -0.4525  0.0904
 8539TIP3    H249813   4.870   6.561  11.116 -0.8495  0.0032 -0.0332
 8540TIP3   OH249814   0.623   3.915  10.344  0.2133 -0.0743  0.1776
 8540TIP3    H149815   0.587   3.834  10.307  0.0532  0.0411  0.0795
 8540TIP3    H249816   0.713   3.893  10.366 -0.4648 -0.9914  2.3271
 8541TIP3   OH249817   6.116   2.881  11.353  0.2626 -0.0715  0.5498
 8541TIP3    H149818   6.036   2.880  11.299  0.4891 -2.3879  0.1471
 8541TIP3    H249819   6.183   2.919  11.296 -0.4064  1.5002  0.7474
 8542TIP3   OH249820   2.243   4.657  12.392  0.3864 -0.3357  0.3527
 8542TIP3    H149821   2.246   4.561  12.395 -0.1130 -0.3604  0.2467
 8542TIP3    H249822   2.332   4.684  12.372  0.1143 -0.8536 -1.7845
 8543TIP3   OH249823   2.971   7.311  12.082  0.1034  0.3941 -0.1698
 8543TIP3    H149824   2.952   7.308  11.988  0.4739 -2.2973 -0.2236
 8543TIP3    H249825   3.065   7.299  12.089  0.0315  0.1604  0.5460
 8544TIP3   OH249826   2.210   0.080  10.785 -0.3456 -0.1796  0.2432
 8544TIP3    H149827   2.140   0.144  10.800  0.4015  0.5433  0.7626
 8544TIP3    H249828   2.291   0.131  10.794  0.2599 -1.1208  0.2553
 8545TIP3   OH249829   6.693   2.568  11.310  0.4715  0.6722 -0.4948
 8545TIP3    H149830   6.705   2.650  11.262 -0.4921  2.3359  1.9226
 8545TIP3    H249831   6.755   2.572  11.382  0.7290 -0.9935 -0.5686
 8546TIP3   OH249832   6.703   1.137  11.613 -0.1778  0.1148  0.1601
 8546TIP3    H149833   6.766   1.177  11.551  1.5554 -2.1550  0.3295
 8546TIP3    H249834   6.672   1.211  11.666 -2.4539  2.3820 -3.8421
 8547TIP3   OH249835   6.482   0.039  11.147  0.5382  0.5361  0.1856
 8547TIP3    H149836   6.436  -0.041  11.171  1.7792 -0.3756 -0.4208
 8547TIP3    H249837   6.566   0.010  11.112  2.1841  2.1584  2.4697
 8548TIP3   OH249838   5.008   4.979  11.100  0.2359  0.2319 -0.1883
 8548TIP3    H149839   4.920   5.016  11.109  0.2455  0.5430 -1.1637
 8548TIP3    H249840   5.058   5.050  11.059  1.0365  0.1879  0.7103
 8549TIP3   OH249841   6.689   3.628  12.029  0.5196  0.0997  0.0938
 8549TIP3    H149842   6.640   3.659  11.953 -0.7514  0.1212  0.8948
 8549TIP3    H249843   6.706   3.536  12.011  1.3376  0.4083 -0.7724
 8550TIP3   OH249844   6.985   1.237  18.022  0.2983 -0.0892 -0.2118
 8550TIP3    H149845   6.992   1.204  17.932  3.5866  0.4568 -0.2610
 8550TIP3    H249846   6.934   1.170  18.068  0.6191 -1.6008 -1.9430
 8551TIP3   OH249847   6.762   7.189  11.391 -0.1017 -0.2597 -0.1741
 8551TIP3    H149848   6.691   7.136  11.356 -0.5141  0.0150  0.2378
 8551TIP3    H249849   6.728   7.279  11.389 -0.6368 -0.3537  2.0905
 8552TIP3   OH249850   5.425   1.589  11.114 -0.2842 -0.0645  0.4009
 8552TIP3    H149851   5.334   1.562  11.128 -0.2509 -0.7101 -0.5543
 8552TIP3    H249852   5.446   1.642  11.191 -1.8195  1.0268  0.1198
 8553TIP3   OH249853   6.338   7.244  11.491  0.1788 -0.1448 -0.4377
 8553TIP3    H149854   6.275   7.180  11.458  1.9534 -1.3978 -1.5624
 8553TIP3    H249855   6.351   7.305  11.418  0.3428  0.0418 -0.2537
 8554TIP3   OH249856   2.139   6.830  13.226  0.4986 -0.1056  0.6011
 8554TIP3    H149857   2.102   6.849  13.312  1.4008  0.4911  0.8670
 8554TIP3    H249858   2.063   6.827  13.167 -0.1240 -0.5106  1.4074
 8555TIP3   OH249859   0.169   5.278  10.748 -0.5551  0.0162 -0.0667
 8555TIP3    H149860   0.082   5.309  10.722 -0.1014  1.5542  0.1378
 8555TIP3    H249861   0.208   5.352  10.795  1.0797 -0.4306 -0.6427
 8556TIP3   OH249862   7.159   6.469  10.577 -0.3026 -0.1336 -0.5844
 8556TIP3    H149863   7.171   6.397  10.514  2.4767 -0.1191 -0.2010
 8556TIP3    H249864   7.234   6.462  10.636 -1.6699  1.1869  1.4389
 8557TIP3   OH249865   3.188   4.007  11.731 -0.4689 -0.6133  0.2202
 8557TIP3    H149866   3.137   4.053  11.797  1.7872  0.7442  1.1603
 8557TIP3    H249867   3.239   3.943  11.780  2.2014  1.2776  0.1161
 8558TIP3   OH249868   6.801   4.599  10.905  0.3421 -0.4669  0.0869
 8558TIP3    H149869   6.853   4.679  10.896  0.8137 -0.6187  1.2240
 8558TIP3    H249870   6.717   4.621  10.867  0.4142  0.6404  0.5174
 8559TIP3   OH249871   6.837   5.115  10.851  1.1787  0.8032  0.1386
 8559TIP3    H149872   6.860   5.182  10.916  0.5037  2.1005 -0.9029
 8559TIP3    H249873   6.756   5.148  10.811 -0.3795 -1.6864  1.0232
 8560TIP3   OH249874   2.936   0.252  11.113 -0.2148  0.0517 -0.3101
 8560TIP3    H149875   2.939   0.222  11.203  0.9402 -2.1481 -1.0111
 8560TIP3    H249876   3.028   0.264  11.088 -0.5643  2.3332 -0.7125
 8561TIP3   OH249877   0.600   3.791  10.903  0.6230 -0.1612 -0.3834
 8561TIP3    H149878   0.615   3.872  10.952  0.0373  0.3352 -0.9968
 8561TIP3    H249879   0.650   3.803  10.822  0.2654 -0.2723 -0.6188
 8562TIP3   OH249880   6.297   4.182  18.254  0.2261 -0.1878  0.3642
 8562TIP3    H149881   6.242   4.143  18.185  1.8441 -0.8642 -0.6103
 8562TIP3    H249882   6.340   4.107  18.295  1.6839  0.4021 -0.0290
 8563TIP3   OH249883   3.872   5.166  11.310 -0.2043 -0.2803 -0.3043
 8563TIP3    H149884   3.894   5.203  11.395  0.6479 -2.1661  0.3383
 8563TIP3    H249885   3.844   5.241  11.258 -0.4065  0.9662  1.5095
 8564TIP3   OH249886   3.834   5.467  12.423 -0.2074 -0.4458  0.5736
 8564TIP3    H149887   3.858   5.376  12.405 -1.9412 -0.6943 -0.8000
 8564TIP3    H249888   3.752   5.480  12.375 -0.1907  1.7491  1.0312
 8565TIP3   OH249889   1.194   6.779  10.764 -0.6076 -0.3538 -0.6145
 8565TIP3    H149890   1.188   6.849  10.699  1.2711  0.5529  0.1142
 8565TIP3    H249891   1.227   6.704  10.716 -3.3115 -1.0529 -1.5605
 8566TIP3   OH249892   1.434   5.392  12.250  0.3783  0.4548 -0.3134
 8566TIP3    H149893   1.341   5.412  12.263  0.7440  1.4723  0.9153
 8566TIP3    H249894   1.435   5.334  12.173 -1.3101 -0.1073  0.0399
 8567TIP3   OH249895   2.740   5.984  12.881 -0.1113 -0.9245 -0.1668
 8567TIP3    H149896   2.697   6.064  12.850 -2.0508 -1.8360  0.0853
 8567TIP3    H249897   2.763   6.003  12.972 -2.4141 -1.3153  0.5492
 8568TIP3   OH249898   6.406   2.525  10.408 -0.6199 -0.2982 -0.0439
 8568TIP3    H149899   6.330   2.507  10.353  0.3185 -0.5512 -1.2982
 8568TIP3    H249900   6.403   2.619  10.424 -0.3077 -0.0155 -1.4832
 8569TIP3   OH249901   3.995   7.444  11.237  0.5837  0.0692 -0.2484
 8569TIP3    H149902   3.981   7.534  11.207  2.0654 -0.1057 -1.5999
 8569TIP3    H249903   4.017   7.395  11.157  1.6136 -1.0844  0.6950
 8570TIP3   OH249904   4.578   0.782  12.220 -0.2431  0.8037  0.2680
 8570TIP3    H149905   4.668   0.757  12.243 -0.3848  0.3323  0.3002
 8570TIP3    H249906   4.582   0.797  12.125 -0.6483 -1.5031 -0.1730
 8571TIP3   OH249907   4.570   5.629  11.777 -0.0039  0.1610 -1.0397
 8571TIP3    H149908   4.644   5.596  11.727  1.5664  0.0986  1.1656
 8571TIP3    H249909   4.610   5.674  11.852 -2.1749  1.8574 -0.7852
 8572TIP3   OH249910   3.277   6.316  10.983 -0.8681 -0.0904  0.1385
 8572TIP3    H149911   3.310   6.395  11.026  0.0068  0.5822 -1.6706
 8572TIP3    H249912   3.355   6.273  10.948 -1.6642  0.7869 -3.0204
 8573TIP3   OH249913   6.287   4.832  11.910 -0.3556  0.1534 -0.1680
 8573TIP3    H149914   6.298   4.914  11.958  0.6836 -0.2195  0.2764
 8573TIP3    H249915   6.227   4.780  11.963 -2.5157  1.2838 -1.3673
 8574TIP3   OH249916   2.482   3.238  12.359 -0.1477  0.1990  0.1845
 8574TIP3    H149917   2.445   3.307  12.414 -0.4608  0.9436 -0.9266
 8574TIP3    H249918   2.434   3.159  12.384 -2.4775  1.0925 -1.1019
 8575TIP3   OH249919   3.839   1.676  12.968 -0.0848 -0.2818 -0.0471
 8575TIP3    H149920   3.771   1.738  12.941  1.0347  0.8706 -0.3361
 8575TIP3    H249921   3.920   1.728  12.968  0.8727 -1.7199 -0.1375
 8576TIP3   OH249922   0.707   4.517  12.051  0.1773 -0.2085 -0.2413
 8576TIP3    H149923   0.621   4.542  12.017 -0.1549 -0.2363  0.5500
 8576TIP3    H249924   0.707   4.422  12.048  0.4410 -0.1935 -0.8526
 8577TIP3   OH249925   2.594   2.127  12.623  0.7253  0.2155  0.4423
 8577TIP3    H149926   2.568   2.068  12.553  2.0628  1.7205 -1.4311
 8577TIP3    H249927   2.674   2.088  12.659  2.9222  1.7737 -2.2780
 8578TIP3   OH249928   0.686   1.460  10.630 -0.0644  0.2733 -0.7154
 8578TIP3    H149929   0.662   1.369  10.614 -1.1401  0.2164  0.9360
 8578TIP3    H249930   0.678   1.503  10.545 -0.7906 -0.9119 -1.2663
 8579TIP3   OH249931   2.727   4.978  11.550  0.0771  0.4548  0.7576
 8579TIP3    H149932   2.639   4.962  11.514  0.0694  1.6775  0.1720
 8579TIP3    H249933   2.732   4.923  11.628 -1.5175  0.9617  1.2527
 8580TIP3   OH249934   5.410   2.270  12.273  0.5560  0.1354  0.4246
 8580TIP3    H149935   5.442   2.335  12.210  0.6987 -0.8148 -0.4976
 8580TIP3    H249936   5.331   2.234  12.233  1.1384 -1.1134  0.3536
 8581TIP3   OH249937   1.027   6.902  12.831  0.3584  0.1469  0.7082
 8581TIP3    H149938   0.998   6.888  12.741 -1.3647  1.6430  0.9771
 8581TIP3    H249939   0.956   6.867  12.885  1.7045 -1.4429  1.5719
 8582TIP3   OH249940   0.543   0.059  11.008  0.0978  0.7579  0.0770
 8582TIP3    H149941   0.598   0.102  10.943 -0.1918  0.7119 -0.2005
 8582TIP3    H249942   0.483   0.005  10.957 -1.0033  1.7361  0.3067
 8583TIP3   OH249943   3.198   7.680  12.113  0.0530  0.8165  0.1108
 8583TIP3    H149944   3.111   7.720  12.115  0.2719  1.2771  0.6268
 8583TIP3    H249945   3.202   7.627  12.192  0.3874  1.1086  0.2894
 8584TIP3   OH249946   1.714   0.858  12.057 -0.0086  0.0792  1.0529
 8584TIP3    H149947   1.671   0.773  12.043 -1.9435  1.0959  0.4516
 8584TIP3    H249948   1.750   0.852  12.145 -2.7987 -0.3237  2.2634
 8585TIP3   OH249949   2.704   6.885  11.371  0.0359  0.2071 -0.0614
 8585TIP3    H149950   2.698   6.827  11.295 -0.3867  0.2759 -0.0845
 8585TIP3    H249951   2.753   6.961  11.338 -1.5113  0.9606 -0.7453
 8586TIP3   OH249952   6.704   0.818  12.486  0.0764  0.5251  0.0291
 8586TIP3    H149953   6.748   0.872  12.421  1.4968  0.1925  0.6917
 8586TIP3    H249954   6.618   0.859  12.496  0.8954  2.3227  0.0866
 8587TIP3   OH249955   1.314   1.070  13.096  0.3895 -0.1742 -0.0214
 8587TIP3    H149956   1.225   1.065  13.132 -0.8464  1.7796 -2.4650
 8587TIP3    H249957   1.337   0.979  13.076 -0.9641 -0.7351  0.8408
 8588TIP3   OH249958   6.156   0.442  12.328  0.2984 -0.0615  0.2115
 8588TIP3    H149959   6.221   0.509  12.304  0.2851 -0.3282 -0.5756
 8588TIP3    H249960   6.187   0.362  12.286 -0.0659 -0.3976  0.5732
 8589TIP3   OH249961   0.076   5.040  12.638 -0.4315  0.8423 -0.3627
 8589TIP3    H149962   0.070   5.008  12.728 -1.9681  1.2699 -0.2947
 8589TIP3    H249963   0.170   5.037  12.618 -0.1972 -0.4843  0.7859
 8590TIP3   OH249964   7.645   0.506  11.035 -0.2374  0.5610 -0.2912
 8590TIP3    H149965   7.557   0.468  11.039 -0.6585  1.5419  0.0527
 8590TIP3    H249966   7.642   0.579  11.097  0.7428  0.7681 -0.4809
 8591TIP3   OH249967   0.450   5.857  11.598 -0.4965  0.0955 -0.1669
 8591TIP3    H149968   0.423   5.772  11.563  0.6290  0.4451 -2.0353
 8591TIP3    H249969   0.436   5.850  11.692 -4.2619 -0.7149 -0.6394
 8592TIP3   OH249970   6.465   1.752  10.437  0.2966 -0.0051  0.4112
 8592TIP3    H149971   6.539   1.700  10.469  0.0135  0.0429  1.1635
 8592TIP3    H249972   6.392   1.691  10.434  0.4423 -0.1356 -0.6715
 8593TIP3   OH249973   3.490   5.432  12.832 -0.5387 -0.1805  0.3706
 8593TIP3    H149974   3.558   5.432  12.765 -0.9011  0.2610 -0.0040
 8593TIP3    H249975   3.527   5.480  12.905  0.1503 -1.3223  0.8019
 8594TIP3   OH249976   4.244   5.124  12.540  0.7859  0.2497 -0.2066
 8594TIP3    H149977   4.216   5.033  12.532  0.1886  0.5052 -1.1463
 8594TIP3    H249978   4.338   5.122  12.517  0.9543 -0.2324  0.5098
 8595TIP3   OH249979   2.199   2.282  11.115 -0.6754 -0.1155 -0.0859
 8595TIP3    H149980   2.242   2.365  11.097 -2.0900  0.7232  0.1913
 8595TIP3    H249981   2.127   2.305  11.174 -0.6880 -1.6452  0.5482
 8596TIP3   OH249982   3.385   4.855  11.073  0.1946  0.0234 -0.6062
 8596TIP3    H149983   3.432   4.878  10.992 -0.3050  0.1683 -0.8548
 8596TIP3    H249984   3.361   4.939  11.112  1.9196  0.0158  0.5898
 8597TIP3   OH249985   0.715   3.884  12.163  0.0384  0.4769 -0.0848
 8597TIP3    H149986   0.724   3.871  12.068  1.0931 -0.8303  0.1691
 8597TIP3    H249987   0.630   3.845  12.184 -1.2391  2.6596 -0.7581
 8598TIP3   OH249988   4.207   1.191  11.657 -0.0605  0.0130  0.5647
 8598TIP3    H149989   4.185   1.098  11.658  0.0759 -0.0311  2.2684
 8598TIP3    H249990   4.122   1.236  11.656 -0.1481 -0.0654 -1.8266
 8599TIP3   OH249991   3.957   2.776  12.144  0.4049 -0.1065 -0.1356
 8599TIP3    H149992   3.922   2.761  12.056  1.0055 -2.0781 -0.0809
 8599TIP3    H249993   3.925   2.864  12.168  1.0629  0.9011 -2.6790
 8600TIP3   OH249994   4.890   0.708  11.720  0.4547  0.3015  0.0274
 8600TIP3    H149995   4.976   0.704  11.762  1.3036  0.7580 -1.5846
 8600TIP3    H249996   4.853   0.791  11.749  0.1801 -0.2400  1.3394
 8601TIP3   OH249997   1.605   6.148  11.843  0.0889 -0.3303 -0.3254
 8601TIP3    H149998   1.532   6.086  11.841  0.4827 -0.8056 -0.2961
 8601TIP3    H249999   1.646   6.133  11.928 -1.6462  2.1680  1.0632
 8602TIP3   OH250000   7.002   5.897  11.996  0.2846  0.0796 -0.2473
 8602TIP3    H150001   7.047   5.876  11.914  0.8976 -0.3745  0.2009
 8602TIP3    H250002   6.962   5.983  11.979  3.3945  1.7471  0.1208
 8603TIP3   OH250003   2.235   3.372  12.431 -0.2199 -0.2485  0.2584
 8603TIP3    H150004   2.278   3.450  12.395 -0.2262 -0.4320 -0.1471
 8603TIP3    H250005   2.185   3.405  12.506 -1.9983  0.5380 -1.2041
 8604TIP3   OH250006   2.671   7.606  10.803  0.0312  0.7536  0.1492
 8604TIP3    H150007   2.591   7.635  10.760 -0.6122  0.3844  1.0767
 8604TIP3    H250008   2.647   7.525  10.849  1.7090 -1.1735 -2.1276
 8605TIP3   OH250009   5.062   4.037  12.160 -0.2937 -0.0506  0.6051
 8605TIP3    H150010   5.116   3.975  12.112 -1.0747 -1.8948  2.0286
 8605TIP3    H250011   5.107   4.049  12.244 -0.6869  0.5189  0.7418
 8606TIP3   OH250012   0.100   1.603  12.357  0.4000 -0.1486 -0.1986
 8606TIP3    H150013   0.102   1.508  12.355 -0.5890 -0.1845  0.1320
 8606TIP3    H250014   0.071   1.628  12.269 -0.2341 -0.1825  0.0031
 8607TIP3   OH250015   7.250   0.307  10.770  0.0595  0.2222  0.1907
 8607TIP3    H150016   7.171   0.355  10.796  1.1623  1.9424  0.5451
 8607TIP3    H250017   7.319   0.373  10.771  1.6774 -1.4110  0.7330
 8608TIP3   OH250018   0.496   1.596  10.847  0.3696  0.4334  0.1897
 8608TIP3    H150019   0.490   1.605  10.752  0.8558  0.1295  0.1277
 8608TIP3    H250020   0.406   1.583  10.876  0.0230  1.9850 -0.0729
 8609TIP3   OH250021   7.117   4.298  11.288  0.1730 -0.7122 -0.3142
 8609TIP3    H150022   7.108   4.378  11.236  0.8468 -0.5640 -0.2094
 8609TIP3    H250023   7.101   4.326  11.378 -0.5997 -0.8939 -0.3875
 8610TIP3   OH250024   2.770   0.040  10.376 -0.1257  0.4658 -0.3194
 8610TIP3    H150025   2.703  -0.027  10.363  0.3524  0.1470 -1.2927
 8610TIP3    H250026   2.737   0.094  10.447 -0.9664 -0.2448 -0.1504
 8611TIP3   OH250027   4.906   3.394  11.777 -0.1578  1.1981  0.2493
 8611TIP3    H150028   4.834   3.355  11.827 -0.1772  1.8225  0.7249
 8611TIP3    H250029   4.903   3.487  11.800  1.4358  1.0799  1.0677
 8612TIP3   OH250030   4.342   2.941  11.303  0.2545 -0.0087 -0.0838
 8612TIP3    H150031   4.386   2.857  11.318 -1.5191 -0.9110  0.3500
 8612TIP3    H250032   4.302   2.963  11.387 -0.5336  0.5130 -0.5778
 8613TIP3   OH250033   1.859   6.946  11.168 -0.1062  0.4480  0.0322
 8613TIP3    H150034   1.945   6.927  11.206 -0.8685 -2.3649  0.5954
 8613TIP3    H250035   1.801   6.952  11.244 -0.5975  1.3998 -0.4021
 8614TIP3   OH250036   2.671   6.222  11.593  0.6253 -0.2307 -0.4336
 8614TIP3    H150037   2.690   6.315  11.591  0.3257 -0.1739 -1.6844
 8614TIP3    H250038   2.710   6.190  11.674  0.1664  1.0964  0.3305
 8615TIP3   OH250039   0.279   2.073  12.528  0.1399 -0.6078 -0.1087
 8615TIP3    H150040   0.338   2.063  12.603  0.2973  1.1451  0.0441
 8615TIP3    H250041   0.327   2.130  12.468 -0.5725 -0.8384 -0.9111
 8616TIP3   OH250042   6.297   5.053  12.091 -0.3401 -0.4322 -0.3954
 8616TIP3    H150043   6.347   5.086  12.166 -0.0814  0.5751 -0.9937
 8616TIP3    H250044   6.239   5.126  12.067  0.1284 -0.4496 -1.6533
 8617TIP3   OH250045   5.790   0.673  11.107  0.1886 -0.4189  0.1107
 8617TIP3    H150046   5.708   0.628  11.089 -0.1607 -0.2388  1.2267
 8617TIP3    H250047   5.835   0.617  11.170  0.1901  0.2992  0.7565
 8618TIP3   OH250048   2.212   4.420  12.100  0.4153  0.0651 -0.1104
 8618TIP3    H150049   2.256   4.505  12.094  0.6806 -0.0476  0.2274
 8618TIP3    H250050   2.120   4.440  12.084  0.9102 -0.1043 -3.8831
 8619TIP3   OH250051   4.031   4.876  12.783 -0.2833  0.2525 -0.8058
 8619TIP3    H150052   3.954   4.884  12.839  0.2542  1.4100 -0.1954
 8619TIP3    H250053   4.002   4.823  12.708 -1.3507 -0.2531 -0.0533
 8620TIP3   OH250054   4.873   1.218  10.982  0.6771  0.5666  0.6134
 8620TIP3    H150055   4.782   1.190  10.967  0.5501  0.0057  2.2171
 8620TIP3    H250056   4.866   1.311  11.003  0.4364  0.4712  0.9666
 8621TIP3   OH250057   1.721   0.579  12.359 -0.5504 -0.4211 -0.0612
 8621TIP3    H150058   1.792   0.553  12.300  0.8450 -2.7483  2.4188
 8621TIP3    H250059   1.657   0.508  12.352  0.1503 -1.3257  1.9130
 8622TIP3   OH250060   1.665   6.430  10.989 -0.3854 -0.4885 -0.2207
 8622TIP3    H150061   1.619   6.480  11.057 -0.4214 -0.3307 -0.3605
 8622TIP3    H250062   1.633   6.340  11.000 -1.2968 -0.2527 -0.7897
 8623TIP3   OH250063   1.273   3.238  11.890  0.6858  0.1782 -0.0710
 8623TIP3    H150064   1.292   3.282  11.973  1.6181  0.1696 -0.2693
 8623TIP3    H250065   1.350   3.184  11.873 -0.3842 -1.4456  0.0967
 8624TIP3   OH250066   1.032   6.986  11.501 -0.6445 -0.3245  0.1858
 8624TIP3    H150067   1.113   6.986  11.552 -1.1497  0.8767  1.0433
 8624TIP3    H250068   0.980   6.915  11.539 -1.1461  0.7545  1.6339
 8625TIP3   OH250069   2.792   2.414  12.645 -0.0998  0.2355 -0.4678
 8625TIP3    H150070   2.824   2.343  12.699 -0.6845 -0.6214 -1.2210
 8625TIP3    H250071   2.816   2.494  12.693  0.8793 -0.4464  0.2045
 8626TIP3   OH250072   7.242   5.107  11.870  0.4213  0.0558 -0.5418
 8626TIP3    H150073   7.175   5.051  11.830  0.7084 -0.5864 -0.1470
 8626TIP3    H250074   7.320   5.091  11.818  0.9515 -1.2279  0.5809
 8627TIP3   OH250075   4.923   2.882  12.357  0.2630  0.7603 -0.5105
 8627TIP3    H150076   4.877   2.802  12.384  0.1131  0.7737 -0.7228
 8627TIP3    H250077   4.959   2.918  12.438 -0.3617  0.9141 -0.3011
 8628TIP3   OH250078   5.826   5.026  12.349  0.3642 -0.3745  0.1506
 8628TIP3    H150079   5.816   5.092  12.280  0.9090  0.0414  0.4588
 8628TIP3    H250080   5.743   5.028  12.397  0.8891  1.1702  1.0811
 8629TIP3   OH250081   2.893   7.239  10.755  0.6224  0.2863 -0.2353
 8629TIP3    H150082   2.894   7.334  10.744 -0.9279  0.1783 -1.5269
 8629TIP3    H250083   2.953   7.206  10.688  0.5216  0.3153 -0.3402
 8630TIP3   OH250084   3.249   2.225  11.703  0.0008 -0.8602 -0.3328
 8630TIP3    H150085   3.182   2.180  11.651 -0.2648 -2.7548  1.5038
 8630TIP3    H250086   3.311   2.156  11.725  2.0047  0.6350 -1.0394
 8631TIP3   OH250087   5.254   0.792  12.415  0.2159  0.0427 -0.3980
 8631TIP3    H150088   5.272   0.886  12.423  0.8289 -0.1290  0.3014
 8631TIP3    H250089   5.220   0.767  12.500 -1.5873 -0.0404 -1.1084
 8632TIP3   OH250090   6.907   0.335  11.286 -0.0888 -0.1770 -0.6904
 8632TIP3    H150091   6.885   0.245  11.311  1.2459 -0.0564  1.1731
 8632TIP3    H250092   6.997   0.328  11.253 -0.1712  0.3880 -1.0297
 8633TIP3   OH250093   3.717   5.923  12.560  0.5364 -1.0111  0.1773
 8633TIP3    H150094   3.663   5.888  12.632  1.6548 -1.6598  0.7210
 8633TIP3    H250095   3.702   5.862  12.488 -0.1503 -0.6761  0.0229
 8634TIP3   OH250096   3.543   7.607  12.321 -0.2837  0.8422 -0.4723
 8634TIP3    H150097   3.527   7.534  12.260 -0.9163 -0.0493  0.7274
 8634TIP3    H250098   3.529   7.569  12.408 -0.0993  2.2756  0.2018
 8635TIP3   OH250099   1.466   4.927  12.053  0.2485  0.5007  0.1524
 8635TIP3    H150100   1.468   4.868  11.977  0.0351  1.6116 -0.7354
 8635TIP3    H250101   1.374   4.947  12.066  0.4235  1.9768 -0.6411
 8636TIP3   OH250102   0.201   6.415  12.077 -0.2982 -0.3369 -0.0228
 8636TIP3    H150103   0.233   6.491  12.028 -1.2398 -0.3063 -0.6181
 8636TIP3    H250104   0.169   6.355  12.009 -1.5615 -0.3299  0.5515
 8637TIP3   OH250105   7.377   4.185  11.308 -0.4527  0.5539 -0.1050
 8637TIP3    H150106   7.409   4.214  11.394 -0.8493 -1.1321  0.6428
 8637TIP3    H250107   7.284   4.208  11.307 -0.8093 -0.7893  0.5601
 8638TIP3   OH250108   6.464   5.887  11.987  0.4569 -0.2945  0.1421
 8638TIP3    H150109   6.445   5.822  11.920 -0.3175  1.0375 -0.9932
 8638TIP3    H250110   6.545   5.928  11.958 -0.4054  0.9722 -0.5714
 8639TIP3   OH250111   1.939   7.378  10.344  0.1740 -0.3673 -0.1640
 8639TIP3    H150112   1.890   7.302  10.313 -0.7186 -0.3753  1.1802
 8639TIP3    H250113   1.944   7.437  10.269  0.2051 -1.4146 -1.0020
 8640TIP3   OH250114   2.208   3.939  12.620 -0.7933  0.3913 -0.3264
 8640TIP3    H150115   2.229   3.923  12.712  0.5537  2.0397 -0.3147
 8640TIP3    H250116   2.292   3.940  12.575 -1.4120 -0.1002 -1.5447
 8641TIP3   OH250117   4.198   5.484  11.661  0.0819  0.4936 -0.0875
 8641TIP3    H150118   4.257   5.414  11.689  0.2140 -0.5691 -2.7231
 8641TIP3    H250119   4.254   5.545  11.612 -0.4596  1.1599  0.1076
 8642TIP3   OH250120   1.951   2.225  10.842  0.5117  0.6009  0.2585
 8642TIP3    H150121   1.989   2.313  10.833 -0.0944  0.6381 -4.2797
 8642TIP3    H250122   2.003   2.171  10.782 -0.0295 -1.8797  1.8975
 8643TIP3   OH250123   3.552   3.417  10.953 -0.2476  0.7204 -0.2140
 8643TIP3    H150124   3.621   3.398  11.017 -0.6289  0.2104  0.0485
 8643TIP3    H250125   3.598   3.419  10.869  0.2651  1.4369  0.0713
 8644TIP3   OH250126   6.541   7.615  10.752 -0.4643  0.7539 -0.0716
 8644TIP3    H150127   6.632   7.616  10.724  0.0203  0.6752  1.3893
 8644TIP3    H250128   6.511   7.705  10.742 -0.5815  0.5680 -1.5777
 8645TIP3   OH250129   4.937   4.960  12.874  0.1132 -0.0413 -0.6012
 8645TIP3    H150130   4.974   4.986  12.959  1.2936 -3.9844  0.3279
 8645TIP3    H250131   4.847   4.992  12.876  0.3905  0.7850  1.7548
 8646TIP3   OH250132   7.439   1.584  11.887  0.3862 -0.4583  0.8411
 8646TIP3    H150133   7.529   1.604  11.859  0.6108  0.0948  1.9009
 8646TIP3    H250134   7.427   1.492  11.865  0.5811 -0.0986 -0.9205
 8647TIP3   OH250135   4.802   4.057  12.011  0.0011  0.0089  0.5257
 8647TIP3    H150136   4.767   4.135  12.055 -0.4111  0.9362 -1.3108
 8647TIP3    H250137   4.881   4.034  12.060  0.5789  2.0795  0.6453
 8648TIP3   OH250138   2.574   3.227  12.096  0.0451  0.8295  0.3151
 8648TIP3    H150139   2.557   3.154  12.037 -1.4086  1.9163 -0.6809
 8648TIP3    H250140   2.530   3.202  12.178 -1.8773  1.2235 -0.5316
 8649TIP3   OH250141   3.992   5.738  11.257  0.0978 -0.5255  0.6834
 8649TIP3    H150142   4.074   5.772  11.220 -1.1772  2.1828  0.1139
 8649TIP3    H250143   3.962   5.807  11.316 -3.2608  0.0218 -1.3984
 8650TIP3   OH250144   0.752   1.336  11.811  0.1659  0.1552 -0.0345
 8650TIP3    H150145   0.659   1.349  11.791  0.1888  1.4181  0.5749
 8650TIP3    H250146   0.755   1.324  11.906  0.3993 -2.4513 -0.3019
 8651TIP3   OH250147   7.598   1.375  11.256 -0.4005  0.3174  0.3268
 8651TIP3    H150148   7.663   1.308  11.235 -0.4396  0.2140  0.5328
 8651TIP3    H250149   7.527   1.361  11.193 -1.5227 -1.3978  1.8730
 8652TIP3   OH250150   2.753   5.076  11.890 -0.0836 -0.0670 -0.5947
 8652TIP3    H150151   2.797   4.992  11.879 -0.5039 -0.2779 -0.7082
 8652TIP3    H250152   2.823   5.139  11.908  0.2325 -0.4395 -0.5293
 8653TIP3   OH250153   1.597   7.509  10.946  0.1384 -0.0332 -0.0310
 8653TIP3    H150154   1.671   7.499  11.006 -0.9609  0.8673  1.5458
 8653TIP3    H250155   1.522   7.528  11.003 -0.6477  2.5733 -1.7490
 8654TIP3   OH250156   2.492   0.642  13.456  0.5686 -0.2135 -0.0662
 8654TIP3    H150157   2.582   0.638  13.424 -0.1535 -1.9010 -2.1134
 8654TIP3    H250158   2.466   0.734  13.442  1.6046  0.0328 -0.5063
 8655TIP3   OH250159   3.855   7.008  12.430 -0.1370  0.7945 -0.2028
 8655TIP3    H150160   3.951   7.008  12.432 -0.1188  0.6029 -1.0846
 8655TIP3    H250161   3.830   6.958  12.508  0.4656  1.3672  0.3782
 8656TIP3   OH250162   6.097   2.510  12.679 -0.8654 -0.3455  0.2258
 8656TIP3    H150163   6.057   2.422  12.674 -0.8314 -0.3095 -1.0363
 8656TIP3    H250164   6.191   2.493  12.686 -0.7672 -0.4253 -1.0670
 8657TIP3   OH250165   1.249   0.327  10.412  0.0066  0.3456 -0.2232
 8657TIP3    H150166   1.170   0.378  10.431  0.1086 -0.0312  1.3733
 8657TIP3    H250167   1.318   0.392  10.402 -0.3588  0.6406 -0.9675
 8658TIP3   OH250168   3.109   5.347  10.655  0.0311 -0.2552 -0.2063
 8658TIP3    H150169   3.107   5.306  10.742 -0.8540 -0.1544 -0.1626
 8658TIP3    H250170   3.022   5.330  10.619 -0.1433  1.0471 -0.4384
 8659TIP3   OH250171   4.484   7.199  11.006 -0.0274 -0.3594  0.5767
 8659TIP3    H150172   4.513   7.195  11.097 -0.1590 -0.0241  0.6364
 8659TIP3    H250173   4.563   7.218  10.956  0.1171 -0.9503  0.5755
 8660TIP3   OH250174   0.529   1.967  11.323 -0.3735 -0.6330 -0.0585
 8660TIP3    H150175   0.492   1.913  11.253  0.4914  0.0577 -1.0912
 8660TIP3    H250176   0.567   2.042  11.277  0.5509 -0.3532  1.1232
 8661TIP3   OH250177   6.882   1.345  11.068  0.0698 -0.2553 -0.3128
 8661TIP3    H150178   6.964   1.297  11.077  0.8127  1.0037 -0.0215
 8661TIP3    H250179   6.871   1.355  10.973  0.7417  0.3378 -0.3380
 8662TIP3   OH250180   0.378   1.647  13.130 -0.1340 -0.0493 -0.7977
 8662TIP3    H150181   0.341   1.726  13.091 -1.8611 -0.2404  0.3539
 8662TIP3    H250182   0.452   1.678  13.182 -0.2584  0.6805 -1.0459
 8663TIP3   OH250183   0.177   7.410  11.842 -0.7532  0.2418  0.2635
 8663TIP3    H150184   0.197   7.364  11.761  2.2663  1.2692  0.2960
 8663TIP3    H250185   0.231   7.489  11.839 -1.8628  1.2040  2.5120
 8664TIP3   OH250186   3.413   5.173  12.378  0.0633 -0.3244  0.4232
 8664TIP3    H150187   3.347   5.230  12.416 -0.5597  2.0898 -3.6722
 8664TIP3    H250188   3.491   5.187  12.431 -1.6441 -0.4960  3.1967
 8665TIP3   OH250189   0.394   3.626  11.744  0.4129  0.5907 -0.2556
 8665TIP3    H150190   0.310   3.588  11.719 -0.6672  2.6767 -0.0413
 8665TIP3    H250191   0.373   3.687  11.815  2.4494 -0.4563  1.3556
 8666TIP3   OH250192   6.480   7.056  12.403 -0.1930 -0.4896 -0.0008
 8666TIP3    H150193   6.485   7.144  12.440 -0.1309  0.6238 -2.4482
 8666TIP3    H250194   6.391   7.027  12.421 -0.5454  0.5221 -0.0630
 8667TIP3   OH250195   4.584   3.320  12.812  0.2825 -0.0927 -0.1582
 8667TIP3    H150196   4.584   3.404  12.858  2.7187  0.4984 -1.0452
 8667TIP3    H250197   4.668   3.281  12.835  1.2376 -0.1596 -3.2958
 8668TIP3   OH250198   3.899   2.334  10.209 -0.2400  0.1520  0.0376
 8668TIP3    H150199   3.944   2.411  10.175 -1.3715  0.0419 -1.8452
 8668TIP3    H250200   3.807   2.359  10.212 -0.8380 -1.4573 -1.9015
 8669TIP3   OH250201   4.767   2.649  12.419 -0.6388 -0.5448  0.2202
 8669TIP3    H150202   4.715   2.710  12.471  1.0079  0.6344  0.5199
 8669TIP3    H250203   4.745   2.563  12.455 -1.0078  0.0750  1.5421
 8670TIP3   OH250204   2.616   6.143  12.697  0.7719 -0.0195  0.7386
 8670TIP3    H150205   2.602   6.205  12.768 -1.5190  0.4679 -0.0659
 8670TIP3    H250206   2.671   6.190  12.635  0.2459  0.6918  0.7992
 8671TIP3   OH250207   5.842   5.337  11.907  0.1751  0.6265 -0.4289
 8671TIP3    H150208   5.836   5.425  11.869 -0.3102  0.1475 -1.5109
 8671TIP3    H250209   5.912   5.295  11.857  1.2059  0.7551  0.8661
 8672TIP3   OH250210   1.275   4.499  12.269 -0.1739 -0.1134  0.0312
 8672TIP3    H150211   1.194   4.446  12.274 -1.3749  1.5876 -0.6051
 8672TIP3    H250212   1.246   4.584  12.239  1.4114  1.5812  2.8644
 8673TIP3   OH250213   2.244   3.530  10.767 -0.6685  0.5968  0.1478
 8673TIP3    H150214   2.153   3.559  10.772 -0.6967  0.7817 -1.0788
 8673TIP3    H250215   2.275   3.532  10.857 -1.9418  0.3267  0.6086
 8674TIP3   OH250216   3.476   1.318  10.191  0.2926  0.2845  0.1392
 8674TIP3    H150217   3.483   1.255  10.263  2.2609 -0.8877 -0.9898
 8674TIP3    H250218   3.552   1.375  10.201 -0.4381  1.2983  0.0381
 8675TIP3   OH250219   3.337   2.467  11.591 -0.1884  0.0026 -0.0538
 8675TIP3    H150220   3.283   2.394  11.622  1.1831 -0.5597  1.1379
 8675TIP3    H250221   3.332   2.462  11.496 -0.6426 -1.2464  0.0162
 8676TIP3   OH250222   5.578   2.477  11.396  0.7124 -0.4949 -0.7415
 8676TIP3    H150223   5.615   2.462  11.309  1.9601  0.6001 -0.4219
 8676TIP3    H250224   5.634   2.544  11.435  1.5123 -2.4131  1.7115
 8677TIP3   OH250225   0.045   3.558  11.092  0.1479  0.9303  0.0727
 8677TIP3    H150226  -0.001   3.641  11.077  2.6050  2.4126  0.1515
 8677TIP3    H250227   0.070   3.529  11.004 -0.6328  0.2781  0.0533
 8678TIP3   OH250228   3.715   1.532  11.748 -1.0158  0.7229 -0.4074
 8678TIP3    H150229   3.701   1.469  11.677  0.4891 -0.7752  0.5216
 8678TIP3    H250230   3.650   1.509  11.814  0.0099 -0.4044  0.2441
 8679TIP3   OH250231   1.777   2.629  13.144 -0.8683 -0.5209  0.3591
 8679TIP3    H150232   1.777   2.724  13.155 -1.6987 -0.4874  0.0818
 8679TIP3    H250233   1.749   2.596  13.229 -0.3838 -0.5292  0.5179
 8680TIP3   OH250234   0.941   2.606  11.237  0.7481  0.6290 -0.1776
 8680TIP3    H150235   0.960   2.668  11.307  0.0812  2.1599 -1.2994
 8680TIP3    H250236   0.962   2.653  11.156 -2.1398  0.3612 -1.1985
 8681TIP3   OH250237   3.357   5.210  10.680 -0.7326  0.1208 -0.1708
 8681TIP3    H150238   3.293   5.277  10.656 -1.3885 -0.4979 -0.1687
 8681TIP3    H250239   3.440   5.257  10.683 -1.4690  1.4244  1.9854
 8682TIP3   OH250240   7.493   4.109  12.557  0.2472  0.1830 -0.1519
 8682TIP3    H150241   7.398   4.123  12.555  0.2780  0.3373 -0.6527
 8682TIP3    H250242   7.518   4.129  12.647 -0.4608 -1.7543  0.5261
 8683TIP3   OH250243   1.406   2.584  11.598 -0.6130  0.3634  0.2709
 8683TIP3    H150244   1.345   2.572  11.525 -0.0924  2.5391 -0.5884
 8683TIP3    H250245   1.354   2.630  11.664 -1.1215 -1.7112  1.4098
 8684TIP3   OH250246   6.795   1.695  12.947 -0.4324 -0.1753  0.9653
 8684TIP3    H150247   6.732   1.716  12.879 -1.2381 -0.9044  1.4592
 8684TIP3    H250248   6.880   1.717  12.909 -0.9787  0.7937  0.2793
 8685TIP3   OH250249   5.228   2.787  12.519  0.2713  0.2513 -0.7900
 8685TIP3    H150250   5.175   2.718  12.480  2.2045 -3.3249  2.2501
 8685TIP3    H250251   5.172   2.825  12.587  0.5290 -1.4506  0.4302
 8686TIP3   OH250252   3.055   2.490  11.137  0.5926 -0.1982  0.6020
 8686TIP3    H150253   3.066   2.563  11.076 -2.8023 -0.7142 -0.8279
 8686TIP3    H250254   3.106   2.419  11.099  1.4677  0.5138  0.3974
 8687TIP3   OH250255   6.591   5.612  11.641 -0.1717  0.4195 -0.1027
 8687TIP3    H150256   6.678   5.649  11.655 -0.4674  1.1811 -0.2415
 8687TIP3    H250257   6.604   5.517  11.646  0.1015  0.5083  3.3216
 8688TIP3   OH250258   0.278   6.652  11.737 -0.6133  0.0392  0.1629
 8688TIP3    H150259   0.323   6.607  11.808 -0.0648 -1.3802 -1.0363
 8688TIP3    H250260   0.308   6.743  11.744 -0.9944  0.0540  2.0394
 8689TIP3   OH250261   4.125   5.376  10.614 -0.4448  0.2468  0.5316
 8689TIP3    H150262   4.153   5.285  10.629  0.5422  0.7263  1.7449
 8689TIP3    H250263   4.146   5.392  10.522 -1.5472 -1.0519  0.0249
 8690TIP3   OH250264   5.376   0.151  12.454  0.2580 -0.2459  0.4897
 8690TIP3    H150265   5.411   0.124  12.540 -0.7711 -2.1276  0.3697
 8690TIP3    H250266   5.404   0.082  12.394 -1.0953 -0.2393 -0.1911
 8691TIP3   OH250267   6.838   1.955  11.655 -0.3680 -0.0163 -0.3295
 8691TIP3    H150268   6.873   1.914  11.576 -0.5465  0.4680 -0.6644
 8691TIP3    H250269   6.744   1.959  11.640 -0.5874 -1.2762  0.5528
 8692TIP3   OH250270   4.141   0.318  11.817  0.5990 -0.7155  0.5556
 8692TIP3    H150271   4.154   0.397  11.870  1.0077  0.9564 -1.8492
 8692TIP3    H250272   4.054   0.330  11.778  0.9908 -1.0157 -0.4531
 8693TIP3   OH250273   4.765   4.003  10.544 -0.0167 -0.4445  0.5158
 8693TIP3    H150274   4.695   4.068  10.554 -0.3018 -0.8012  0.9102
 8693TIP3    H250275   4.775   3.966  10.632 -0.3501 -1.4233  0.1532
 8694TIP3   OH250276   2.076   0.300  13.601  0.0167  0.0563  0.0209
 8694TIP3    H150277   2.022   0.378  13.589  1.0775  1.1220  1.7295
 8694TIP3    H250278   2.024   0.229  13.564 -1.4594  1.4023 -0.6105
 8695TIP3   OH250279   4.756   2.732  10.499 -0.4393 -0.1688 -0.0036
 8695TIP3    H150280   4.786   2.819  10.526 -0.2410 -0.7721  1.8034
 8695TIP3    H250281   4.661   2.739  10.494 -0.5433 -0.2173  1.5968
 8696TIP3   OH250282   1.158   3.038  12.982  0.4222 -0.0424  0.1159
 8696TIP3    H150283   1.141   3.012  13.073 -0.7301  0.9190  0.2027
 8696TIP3    H250284   1.088   2.996  12.932  0.9189 -0.3804 -0.3067
 8697TIP3   OH250285   6.694   5.076  11.701 -0.2374  0.2091 -0.3092
 8697TIP3    H150286   6.696   5.013  11.628  1.4934  0.0280 -0.1340
 8697TIP3    H250287   6.681   5.022  11.779 -0.7360  0.2729 -0.3451
 8698TIP3   OH250288   5.492   3.517  12.046  0.2689 -0.0059  0.9340
 8698TIP3    H150289   5.581   3.551  12.043 -0.2027  1.3967 -2.9302
 8698TIP3    H250290   5.458   3.544  12.131  3.1834  0.2164  2.1150
 8699TIP3   OH250291   1.932   6.502  11.862  0.5574 -0.2625  0.1653
 8699TIP3    H150292   1.928   6.588  11.820 -1.8475  0.2050  1.1651
 8699TIP3    H250293   1.931   6.440  11.789  0.0124  0.5528 -0.5452
 8700TIP3   OH250294   1.122   1.657  12.798  0.1151 -0.2952  0.2896
 8700TIP3    H150295   1.217   1.654  12.792  0.0361 -0.6211 -1.0836
 8700TIP3    H250296   1.103   1.638  12.890  1.3789  0.1283  0.6613
 8701TIP3   OH250297   3.938   7.608  11.765 -0.2919 -0.3478  0.4761
 8701TIP3    H150298   3.927   7.570  11.852 -3.4561 -1.9060 -0.4515
 8701TIP3    H250299   3.860   7.663  11.753 -0.1912 -0.5738 -1.5317
 8702TIP3   OH250300   2.225   4.036  13.066  0.0157 -0.0310  0.8231
 8702TIP3    H150301   2.220   3.971  13.137  0.7903 -0.2972  0.6415
 8702TIP3    H250302   2.134   4.066  13.056  0.2304  1.9817  3.7094
 8703TIP3   OH250303   3.227   5.390  12.760  0.0520 -0.5169  0.1303
 8703TIP3    H150304   3.309   5.437  12.773  0.4718 -1.1534 -0.1573
 8703TIP3    H250305   3.175   5.409  12.838 -1.2325  3.2542 -1.4113
 8704TIP3   OH250306   5.760   3.520  11.463 -0.3262  0.4243 -0.2783
 8704TIP3    H150307   5.750   3.581  11.536 -1.7813  2.0975 -1.7736
 8704TIP3    H250308   5.743   3.573  11.385 -1.1569 -1.7942 -1.6994
 8705TIP3   OH250309   4.115   2.097  12.138  0.5493  0.4314  0.0477
 8705TIP3    H150310   4.093   2.143  12.219 -1.4157  0.6073 -0.5287
 8705TIP3    H250311   4.043   2.035  12.126  1.9801 -1.2373 -0.3972
 8706TIP3   OH250312   1.276   5.994  10.998  0.0824 -0.3503 -0.2613
 8706TIP3    H150313   1.220   6.072  11.002  0.6649  0.0374  0.7568
 8706TIP3    H250314   1.288   5.968  11.089  0.6469 -1.0901 -0.5344
 8707TIP3   OH250315   1.730   6.067  12.077  0.0994  0.0934 -0.0410
 8707TIP3    H150316   1.744   6.018  12.158 -0.7761 -1.2996 -0.7060
 8707TIP3    H250317   1.809   6.121  12.068  1.8891 -2.3241 -0.0696
 8708TIP3   OH250318   5.229   5.888  12.889  0.2012  0.1819 -0.5275
 8708TIP3    H150319   5.204   5.981  12.879 -1.0674 -0.2097 -1.3287
 8708TIP3    H250320   5.315   5.891  12.930  0.5845  1.7504 -1.3329
 8709TIP3   OH250321   5.192   6.872  11.906  0.0588 -0.2991  0.1186
 8709TIP3    H150322   5.161   6.816  11.835 -2.6325 -0.9257  1.6575
 8709TIP3    H250323   5.232   6.812  11.968 -0.0672 -0.1229  0.3709
 8710TIP3   OH250324   0.714   1.304  11.133  0.0595  0.5956  0.3160
 8710TIP3    H150325   0.735   1.391  11.099  2.4485  0.6264  1.6624
 8710TIP3    H250326   0.782   1.247  11.096  0.3370 -0.1081  1.8400
 8711TIP3   OH250327   4.662   6.856  11.120 -0.2172 -0.1311 -0.0178
 8711TIP3    H150328   4.728   6.787  11.120 -1.4241 -1.3434  1.2183
 8711TIP3    H250329   4.709   6.934  11.091  1.5202 -1.1545 -0.0861
 8712TIP3   OH250330   2.671   2.080  10.538 -0.1111 -0.4481 -1.1636
 8712TIP3    H150331   2.745   2.063  10.595 -0.0932 -1.8082 -1.5501
 8712TIP3    H250332   2.685   2.169  10.506  1.4346 -0.7343 -1.3568
 8713TIP3   OH250333   7.473   5.167  12.608  0.0232  0.1487 -0.3432
 8713TIP3    H150334   7.395   5.134  12.564 -1.8902  1.3224  1.8930
 8713TIP3    H250335   7.472   5.125  12.694  1.9603  0.0956 -0.2985
 8714TIP3   OH250336   7.228   3.882  10.489 -0.1450 -0.4976 -0.3674
 8714TIP3    H150337   7.296   3.923  10.543  0.1510  0.0589 -1.1365
 8714TIP3    H250338   7.269   3.802  10.457 -0.7021 -1.4099  1.0871
 8715TIP3   OH250339   3.988   6.693  13.201  0.2641  0.3916 -0.6611
 8715TIP3    H150340   3.997   6.695  13.105 -0.9662  0.3062 -0.7983
 8715TIP3    H250341   3.940   6.773  13.222 -0.6870 -0.2571 -0.2766
 8716TIP3   OH250342   1.056   1.328  12.751 -0.2153 -0.3426  0.5923
 8716TIP3    H150343   1.095   1.368  12.674  0.5404 -1.1836  0.5244
 8716TIP3    H250344   0.978   1.283  12.718  0.1014 -0.6947  0.3224
 8717TIP3   OH250345   4.632   4.247  10.578  0.8678 -0.2342 -0.0164
 8717TIP3    H150346   4.610   4.313  10.513 -1.4682 -0.0834  0.8528
 8717TIP3    H250347   4.621   4.291  10.662 -0.3075 -1.5587  0.5635
 8718TIP3   OH250348   4.271   1.411  10.359 -0.4361  0.0263 -0.1837
 8718TIP3    H150349   4.221   1.475  10.408 -1.3261  0.0474 -1.0956
 8718TIP3    H250350   4.311   1.460  10.287 -0.3742 -0.2646 -0.3533
 8719TIP3   OH250351   4.866   6.412  11.710  0.3260 -0.0520 -0.1050
 8719TIP3    H150352   4.903   6.340  11.658 -0.1588 -1.4293  1.3503
 8719TIP3    H250353   4.802   6.369  11.767 -3.4958  2.1425 -2.3319
 8720TIP3   OH250354   3.488   4.707  10.710 -0.2586  0.2376  1.0214
 8720TIP3    H150355   3.477   4.788  10.760 -1.2124  1.7871 -1.4766
 8720TIP3    H250356   3.399   4.677  10.692  0.0638 -0.5429  0.6692
 8721TIP3   OH250357   1.227   4.366  11.957 -0.2758  0.0417  0.4610
 8721TIP3    H150358   1.132   4.363  11.945 -0.2699 -0.2339  0.4738
 8721TIP3    H250359   1.240   4.430  12.027 -0.4264  0.3425  0.2139
 8722TIP3   OH250360   6.106   5.265  12.694 -0.0484 -0.1165  0.2420
 8722TIP3    H150361   6.093   5.329  12.624  1.4610 -0.1262 -0.0902
 8722TIP3    H250362   6.193   5.285  12.729 -0.0345 -1.2403  0.9004
 8723TIP3   OH250363   1.583   1.475  12.135 -0.0805 -0.4499  0.4460
 8723TIP3    H150364   1.637   1.554  12.143 -0.8185 -0.0942  3.1300
 8723TIP3    H250365   1.498   1.501  12.172 -0.9121 -2.0186 -0.2985
 8724TIP3   OH250366   1.230   0.056  12.061  0.3295  0.1365  0.7275
 8724TIP3    H150367   1.307   0.020  12.106  0.4124  0.1529  0.5971
 8724TIP3    H250368   1.221   0.144  12.096 -0.0891 -0.1370  1.3230
 8725TIP3   OH250369   3.897   2.805  11.786 -0.0678 -0.2713 -0.2163
 8725TIP3    H150370   3.846   2.725  11.781  0.1592 -0.4906  0.8052
 8725TIP3    H250371   3.984   2.780  11.754 -0.4569  0.0150 -1.6009
 8726TIP3   OH250372   6.425   3.350  11.115 -0.8036 -0.2102 -0.0920
 8726TIP3    H150373   6.424   3.339  11.210 -0.1750  0.9669  0.0786
 8726TIP3    H250374   6.339   3.385  11.094 -0.5142  0.7282  0.2288
 8727TIP3   OH250375   2.263   0.464  11.861 -0.1123 -0.1499  0.2112
 8727TIP3    H150376   2.267   0.383  11.811 -0.9057 -0.1965  0.2102
 8727TIP3    H250377   2.180   0.504  11.836  0.2641  0.6584  0.2238
 8728TIP3   OH250378   0.300   3.753  10.981  0.1437 -0.2278  0.3563
 8728TIP3    H150379   0.389   3.787  10.991  0.3445 -0.9542  1.1879
 8728TIP3    H250380   0.312   3.664  10.947 -0.3375  0.1645 -0.9172
 8729TIP3   OH250381   7.282   2.014  11.387  0.7625 -0.0364  0.3090
 8729TIP3    H150382   7.272   1.934  11.439 -0.4439  0.8491  1.5163
 8729TIP3    H250383   7.295   2.083  11.452 -2.2188  1.3336 -0.4024
 8730TIP3   OH250384   6.721   1.472  12.128 -0.2095  0.1939 -0.2555
 8730TIP3    H150385   6.657   1.403  12.107 -0.4631  0.4428 -0.3000
 8730TIP3    H250386   6.696   1.502  12.215 -0.0065  0.1283 -0.1744
 8731TIP3   OH250387   1.498   1.376  10.785 -1.3098 -0.1390 -0.0762
 8731TIP3    H150388   1.447   1.451  10.757 -0.6982  0.9873  1.6526
 8731TIP3    H250389   1.579   1.381  10.735 -1.4616  0.0817 -0.2984
 8732TIP3   OH250390   5.550   5.066  11.638 -0.2612  0.1058 -0.0118
 8732TIP3    H150391   5.532   5.110  11.555  1.0000 -0.0849 -0.4018
 8732TIP3    H250392   5.633   5.021  11.624  1.7019  2.6987  2.3733
 8733TIP3   OH250393   4.605   4.392  11.417  0.1514  0.2848 -0.7420
 8733TIP3    H150394   4.589   4.481  11.386  0.4944  0.1652 -1.2831
 8733TIP3    H250395   4.701   4.385  11.422  0.1155  0.4428  0.7962
 8734TIP3   OH250396   2.783   0.959  12.649  0.1522  0.1755  0.0205
 8734TIP3    H150397   2.797   1.035  12.705 -0.9599  1.2171 -1.0367
 8734TIP3    H250398   2.844   0.972  12.576  0.4648 -0.3238  0.1935
 8735TIP3   OH250399   3.604   0.666  12.891  0.3044 -0.1971 -1.0774
 8735TIP3    H150400   3.555   0.655  12.972  0.3392  1.1485 -0.8510
 8735TIP3    H250401   3.669   0.733  12.912  0.4376  0.0223 -2.1651
 8736TIP3   OH250402   0.625   5.500  11.923  0.0003  0.2972  0.3329
 8736TIP3    H150403   0.635   5.426  11.982  1.3702  0.0252 -0.2139
 8736TIP3    H250404   0.616   5.576  11.981  1.2533  0.0259  0.9202
 8737TIP3   OH250405   4.249   4.966  11.092 -0.1139 -0.0769  0.4281
 8737TIP3    H150406   4.326   4.990  11.144 -0.2566  0.1121  0.5514
 8737TIP3    H250407   4.204   4.901  11.146 -1.4821  1.7696  1.5933
 8738TIP3   OH250408   5.579   2.209  11.224 -0.3943  0.1997 -0.3243
 8738TIP3    H150409   5.603   2.300  11.202  1.4163  0.2362  1.4950
 8738TIP3    H250410   5.649   2.157  11.183 -1.4022 -0.4061 -1.3202
 8739TIP3   OH250411   7.030   7.263  11.509 -0.3719  0.2881  0.0655
 8739TIP3    H150412   7.068   7.348  11.484 -0.1824  0.2098  0.0835
 8739TIP3    H250413   6.936   7.277  11.508 -0.3625  0.3241 -0.5664
 8740TIP3   OH250414   4.973   7.221  12.236 -0.2974 -0.3431  1.0356
 8740TIP3    H150415   4.883   7.232  12.205  0.2498  0.2088 -0.4134
 8740TIP3    H250416   5.019   7.181  12.163  0.9547  0.6464  1.2569
 8741TIP3   OH250417   0.107   3.823  11.722  0.0212  0.2144 -0.5796
 8741TIP3    H150418   0.140   3.794  11.807 -0.8491 -0.0076 -0.3074
 8741TIP3    H250419   0.022   3.779  11.713 -0.9885  2.0480 -0.4988
 8742TIP3   OH250420   6.705   5.265  13.029 -0.1084 -0.3854 -0.5948
 8742TIP3    H150421   6.698   5.214  13.110 -0.1214 -2.1275 -1.6602
 8742TIP3    H250422   6.785   5.235  12.987  0.0126  0.6566 -1.1568
 8743TIP3   OH250423   1.553   2.163  12.218 -0.2564  0.0910 -0.3445
 8743TIP3    H150424   1.620   2.147  12.285  0.1466  2.3214 -0.1416
 8743TIP3    H250425   1.579   2.106  12.145  2.0650  1.0735 -0.3877
 8744TIP3   OH250426   7.461   5.142  13.271 -0.5014  0.0418  0.1227
 8744TIP3    H150427   7.444   5.129  13.365  1.3279 -3.0359  0.1799
 8744TIP3    H250428   7.386   5.102  13.227 -1.3450  1.4573  0.2189
 8745TIP3   OH250429   7.038   3.518  12.162 -0.1533  0.5185  0.0212
 8745TIP3    H150430   7.009   3.592  12.216 -2.5897 -0.0836 -0.3789
 8745TIP3    H250431   7.014   3.541  12.073  0.9328  0.0910 -0.4075
 8746TIP3   OH250432   2.510   0.804  10.806 -0.1046 -0.1054 -0.1877
 8746TIP3    H150433   2.569   0.808  10.731  2.2825  2.8807  1.6277
 8746TIP3    H250434   2.473   0.892  10.812  2.3768  0.8921  3.9052
 8747TIP3   OH250435   7.186   7.090  12.108 -0.9279  0.3554 -0.0134
 8747TIP3    H150436   7.122   7.019  12.104 -1.5097  0.9272 -1.0817
 8747TIP3    H250437   7.255   7.056  12.167 -1.7903 -0.5838  0.4875
 8748TIP3   OH250438   2.602   5.787  12.396  0.6607  0.0518  0.0129
 8748TIP3    H150439   2.586   5.780  12.302  0.7082 -2.0058  0.1134
 8748TIP3    H250440   2.524   5.751  12.437  1.1905 -0.3251  0.7217
 8749TIP3   OH250441   4.524   1.876  11.334 -0.1611  0.2496  0.0475
 8749TIP3    H150442   4.497   1.967  11.324 -0.8402  0.1191  0.6220
 8749TIP3    H250443   4.499   1.854  11.424  1.6375  0.0487  0.5544
 8750TIP3   OH250444   5.911   6.397  11.134  0.1430  0.4633  0.3818
 8750TIP3    H150445   5.926   6.404  11.228 -0.8818 -0.8816  0.6845
 8750TIP3    H250446   5.854   6.471  11.113  0.3731  0.7672  0.8163
 8751TIP3   OH250447   2.701   4.322  11.004  0.2879 -0.0026 -0.3744
 8751TIP3    H150448   2.642   4.260  10.962  0.8621 -1.2604  0.6290
 8751TIP3    H250449   2.784   4.314  10.956  0.7092 -0.8763  0.4732
 8752TIP3   OH250450   5.844   0.210  11.147 -0.0448  0.2747  0.2849
 8752TIP3    H150451   5.769   0.257  11.111  0.6609  0.7930 -0.5574
 8752TIP3    H250452   5.810   0.123  11.168 -1.1171  0.8249  0.9015
 8753TIP3   OH250453   0.057   1.997  12.758  0.6855  0.7732 -0.5239
 8753TIP3    H150454  -0.017   1.987  12.699  0.6707  0.0164 -0.3884
 8753TIP3    H250455   0.110   1.919  12.744  1.0010  0.8796  0.0247
 8754TIP3   OH250456   3.280   3.681  11.194 -0.9005  0.4422 -0.8834
 8754TIP3    H150457   3.326   3.764  11.201 -1.6993  0.9295 -1.3178
 8754TIP3    H250458   3.188   3.703  11.205 -1.1206 -0.3906 -0.9516
 8755TIP3   OH250459   5.580   1.710  11.315  0.4164  0.0932 -0.1093
 8755TIP3    H150460   5.504   1.761  11.341  1.0096  1.3112 -0.6707
 8755TIP3    H250461   5.616   1.677  11.398 -1.1256 -1.1477  0.1033
 8756TIP3   OH250462   2.732   6.273  10.548 -0.0646  0.7515 -0.0722
 8756TIP3    H150463   2.761   6.250  10.636  1.9428 -0.3089 -0.9573
 8756TIP3    H250464   2.694   6.192  10.513  1.8681  0.2770 -1.1964
 8757TIP3   OH250465   2.757   1.372  11.603  0.0320  0.0867  0.2691
 8757TIP3    H150466   2.669   1.409  11.590 -0.5552 -1.4255 -0.2864
 8757TIP3    H250467   2.808   1.402  11.528 -0.7299 -1.0453 -0.7284
 8758TIP3   OH250468   5.290   0.606  11.041 -0.8136 -0.5921  0.0736
 8758TIP3    H150469   5.368   0.629  10.990 -1.0701  3.1233  1.0451
 8758TIP3    H250470   5.324   0.589  11.129 -0.8959 -1.4564 -0.0561
 8759TIP3   OH250471   4.150   7.037  11.902 -0.1583 -0.5033 -0.2971
 8759TIP3    H150472   4.177   6.998  11.819  0.4758 -0.8856  0.0813
 8759TIP3    H250473   4.055   7.032  11.901 -0.2019  0.1421 -1.3148
 8760TIP3   OH250474   1.272   6.241  12.680 -0.0784 -0.3839  0.6357
 8760TIP3    H150475   1.345   6.199  12.635 -0.0664  1.0801 -0.8098
 8760TIP3    H250476   1.263   6.326  12.637 -2.5165 -0.4397  0.9050
 8761TIP3   OH250477   0.128   3.190  10.292 -0.2276  0.2796  0.3681
 8761TIP3    H150478   0.100   3.103  10.320 -0.7149  0.3669  0.1659
 8761TIP3    H250479   0.179   3.224  10.366  1.7580 -0.9778 -0.3213
 8762TIP3   OH250480   2.305   3.356  11.260  0.7102  0.2113 -0.0898
 8762TIP3    H150481   2.216   3.346  11.227  1.1107  1.5595 -1.7352
 8762TIP3    H250482   2.320   3.450  11.260  1.5789  0.1139  1.8227
 8763TIP3   OH250483   4.302   4.920  12.778  0.0578 -0.0300  0.0318
 8763TIP3    H150484   4.310   4.939  12.872 -0.1787 -1.3591  0.3362
 8763TIP3    H250485   4.208   4.914  12.763  0.0784  0.5799 -0.3937
 8764TIP3   OH250486   4.101   2.960  18.567 -0.1596 -0.2864 -0.3682
 8764TIP3    H150487   4.104   3.042  18.517 -2.2716  0.8181  1.1512
 8764TIP3    H250488   4.060   2.984  18.650  0.2115 -2.6931  0.5999
 8765TIP3   OH250489   4.387   1.698  10.943 -0.1130  0.4357  0.4546
 8765TIP3    H150490   4.397   1.603  10.948 -1.5592  0.2369  0.0403
 8765TIP3    H250491   4.331   1.712  10.868  0.2367  1.6459  0.4081
 8766TIP3   OH250492   1.446   0.348  11.676  0.3240 -0.3585  0.2588
 8766TIP3    H150493   1.491   0.411  11.733 -0.3459  0.8621 -0.4931
 8766TIP3    H250494   1.494   0.266  11.687  1.5257  0.4039  0.9262
 8767TIP3   OH250495   4.796   2.781  11.262  0.2274  0.1971  0.2682
 8767TIP3    H150496   4.784   2.713  11.329 -1.3686  0.7698  0.6052
 8767TIP3    H250497   4.876   2.755  11.216 -0.8705 -2.4860 -0.3170
 8768TIP3   OH250498   4.096   2.519  10.339 -1.0322 -0.0370  0.2714
 8768TIP3    H150499   4.190   2.499  10.342 -0.8734  0.2866 -1.3138
 8768TIP3    H250500   4.068   2.520  10.430  0.5625  0.1195  0.7869
 8769TIP3   OH250501   1.286   0.005  11.645  0.0150  0.1408  0.0940
 8769TIP3    H150502   1.288  -0.090  11.656 -1.9796  0.0696  0.2663
 8769TIP3    H250503   1.281   0.039  11.735 -1.3914  0.2806 -0.0181
 8770TIP3   OH250504   4.116   4.472  11.081  0.0705 -0.3096 -0.7589
 8770TIP3    H150505   4.046   4.513  11.032 -0.2798 -0.4141 -0.3535
 8770TIP3    H250506   4.079   4.456  11.168  1.1540  1.2941  0.0630
 8771TIP3   OH250507   6.153   7.362  12.545  0.3646  0.0413  0.3623
 8771TIP3    H150508   6.147   7.444  12.496 -0.5591 -0.1267  0.1720
 8771TIP3    H250509   6.183   7.388  12.632  1.3375  0.4240 -0.0740
 8772TIP3   OH250510   3.631   0.170  11.987 -0.0469 -0.2431  0.4814
 8772TIP3    H150511   3.572   0.245  11.987  0.0473 -0.1506  1.3534
 8772TIP3    H250512   3.577   0.098  12.020 -0.1341 -0.5600 -0.3388
 8773TIP3   OH250513   7.287   4.031  12.101  0.1142  0.1254  0.0611
 8773TIP3    H150514   7.335   3.952  12.077  1.3961  1.5045 -2.2513
 8773TIP3    H250515   7.348   4.081  12.155  0.4695  0.8621 -0.9967
 8774TIP3   OH250516   6.029   6.442  12.144 -0.0838  0.5725  0.2793
 8774TIP3    H150517   6.101   6.485  12.191 -0.0943 -1.4333  2.2526
 8774TIP3    H250518   5.991   6.382  12.208 -3.0602  0.9906 -0.9397
 8775TIP3   OH250519   4.128   5.118  12.057 -0.6561  0.7997  0.2557
 8775TIP3    H150520   4.151   5.089  11.969 -0.9257 -0.4252  0.5664
 8775TIP3    H250521   4.210   5.119  12.105 -0.9153 -1.9735  0.9188
 8776TIP3   OH250522   2.020   2.920  17.841 -0.5240  0.5376 -0.0566
 8776TIP3    H150523   2.093   2.890  17.786 -0.6465  0.9901 -0.4766
 8776TIP3    H250524   1.972   2.980  17.785 -0.4358  1.3060  0.6788
 8777TIP3   OH250525   0.844   6.518  11.232 -0.7069  0.3725  0.1547
 8777TIP3    H150526   0.762   6.493  11.191 -1.4148 -0.0899  1.7711
 8777TIP3    H250527   0.828   6.605  11.266 -0.4877  0.3262  0.3761
 8778TIP3   OH250528   4.520   5.163  11.934  0.4953 -0.0498 -0.4229
 8778TIP3    H150529   4.613   5.154  11.952  0.2775 -1.5658  0.0916
 8778TIP3    H250530   4.478   5.152  12.020 -0.1394  1.1091 -0.5714
 8779TIP3   OH250531   3.925   2.780  11.088  0.1941  0.4814 -0.1744
 8779TIP3    H150532   3.868   2.769  11.012  0.1336 -2.2322  0.1619
 8779TIP3    H250533   4.002   2.827  11.055  0.1797 -0.6654 -1.9324
 8780TIP3   OH250534   1.797   5.940  11.570 -0.3017 -0.0109 -0.0439
 8780TIP3    H150535   1.856   5.944  11.645 -1.2244 -1.9159  0.8274
 8780TIP3    H250536   1.826   5.863  11.521 -0.3919  0.6009 -1.0866
 8781TIP3   OH250537   0.343   1.435  12.928  0.2067 -0.4224  0.3271
 8781TIP3    H150538   0.336   1.511  12.986 -0.9659 -0.1811 -0.0868
 8781TIP3    H250539   0.300   1.364  12.975 -1.5188 -0.0089 -0.5540
 8782TIP3   OH250540   3.789   1.486  11.345  0.5335  0.7208 -0.0278
 8782TIP3    H150541   3.709   1.535  11.325 -0.2228 -0.6762 -0.6086
 8782TIP3    H250542   3.820   1.522  11.428 -3.3579 -1.7927  2.8769
 8783TIP3   OH250543   4.703   3.339  10.452 -0.3371 -0.2847 -0.1313
 8783TIP3    H150544   4.633   3.405  10.450 -0.1990 -0.1617 -1.6499
 8783TIP3    H250545   4.666   3.266  10.501 -0.6561  0.7207  1.1981
 8784TIP3   OH250546   4.962   7.114  12.875  0.7300 -0.0208 -0.4456
 8784TIP3    H150547   5.033   7.123  12.938  0.0443  1.1596  0.1897
 8784TIP3    H250548   4.899   7.056  12.917  0.0578  1.1299  0.1997
 8785TIP3   OH250549   3.516   1.398  12.000 -0.8470  0.3009 -0.1479
 8785TIP3    H150550   3.521   1.330  11.933 -0.6283  0.1618  0.0103
 8785TIP3    H250551   3.422   1.405  12.020 -0.6960 -1.5279  1.4542
 8786TIP3   OH250552   3.396   4.355  12.524 -0.1606  0.5327 -0.4155
 8786TIP3    H150553   3.328   4.291  12.545  0.4369  0.2821  0.8099
 8786TIP3    H250554   3.466   4.304  12.484 -0.5857  0.7620 -1.4892
 8787TIP3   OH250555   6.378   2.315  13.018  0.3864  0.0372  0.1352
 8787TIP3    H150556   6.312   2.285  12.956  1.0787 -1.1030 -0.0798
 8787TIP3    H250557   6.451   2.253  13.008  0.4682 -0.2857  2.1645
 8788TIP3   OH250558   1.109   6.187  11.010  0.2231 -0.8429  0.1712
 8788TIP3    H150559   1.018   6.202  11.034 -0.4960 -1.1075 -2.1216
 8788TIP3    H250560   1.150   6.273  11.019 -0.9220 -0.0958 -1.2369
 8789TIP3   OH250561   7.541   5.582  11.411 -0.3607 -0.1143 -0.2402
 8789TIP3    H150562   7.458   5.550  11.374 -0.0222 -1.4590  0.1218
 8789TIP3    H250563   7.534   5.677  11.405 -1.8621 -0.2054 -0.3823
 8790TIP3   OH250564   7.455   2.623  12.269 -0.3173 -0.2666  0.3773
 8790TIP3    H150565   7.463   2.708  12.225 -1.2095 -1.3368 -2.0002
 8790TIP3    H250566   7.523   2.569  12.230 -1.7454 -1.5313 -0.4663
 8791TIP3   OH250567   4.081   4.208  10.622 -0.0604  0.0128  0.3246
 8791TIP3    H150568   4.070   4.290  10.670  1.3024 -0.2399  1.1264
 8791TIP3    H250569   4.014   4.211  10.554  0.5797  2.2606 -0.3025
 8792TIP3   OH250570   2.454   6.727  12.429  0.2306  0.7481 -0.2442
 8792TIP3    H150571   2.491   6.810  12.397  1.6808  0.3078  0.2270
 8792TIP3    H250572   2.484   6.662  12.366  0.7177  0.3026  0.4393
 8793TIP3   OH250573   2.497   5.434  11.045 -0.3299  0.1127  0.1901
 8793TIP3    H150574   2.406   5.428  11.075 -0.5082  1.9000  0.1135
 8793TIP3    H250575   2.492   5.418  10.951 -0.5687  0.2374  0.1807
 8794TIP3   OH250576   2.967   4.383  12.127  0.1924 -0.1059 -0.2628
 8794TIP3    H150577   3.032   4.331  12.175  0.3788  1.2771  1.0555
 8794TIP3    H250578   3.019   4.444  12.074 -0.0292  0.1394 -0.1980
 8795TIP3   OH250579   6.994   1.582  12.410  0.0387  0.3093  0.7070
 8795TIP3    H150580   7.056   1.565  12.480 -0.3733 -0.4330  0.8998
 8795TIP3    H250581   7.042   1.637  12.348  1.4066 -1.4823  0.1038
 8796TIP3   OH250582   5.187   3.464  11.348 -0.3568  0.1116 -0.1863
 8796TIP3    H150583   5.212   3.556  11.356  0.5179 -0.0817 -0.5743
 8796TIP3    H250584   5.225   3.422  11.425  1.1808 -0.3133 -1.1439
 8797TIP3   OH250585   1.154   7.407  11.664  0.6286  0.1821 -0.3063
 8797TIP3    H150586   1.104   7.463  11.722  0.1323  1.4578 -1.8816
 8797TIP3    H250587   1.090   7.346  11.627  0.7338  0.0928 -0.3451
 8798TIP3   OH250588   3.103   6.731  10.628  0.4697 -0.9285 -0.0476
 8798TIP3    H150589   3.030   6.783  10.595  0.6401 -0.2064  0.6719
 8798TIP3    H250590   3.070   6.692  10.709  0.9501 -0.3919  0.4173
 8799TIP3   OH250591   7.421   3.146  12.617  0.1267  0.2282  0.9211
 8799TIP3    H150592   7.326   3.140  12.623 -0.0539  0.8171 -0.8948
 8799TIP3    H250593   7.445   3.097  12.539  1.3875 -0.3804  1.6545
 8800TIP3   OH250594   6.443   0.861  12.073  0.1571  0.4747 -0.0618
 8800TIP3    H150595   6.450   0.903  11.987 -0.0952 -0.8982 -0.7709
 8800TIP3    H250596   6.472   0.929  12.134  1.5594  1.0774 -1.3214
 8801TIP3   OH250597   3.466   7.644  11.138  0.4608 -0.0372 -0.2602
 8801TIP3    H150598   3.408   7.598  11.200  0.1578 -0.3645 -0.7721
 8801TIP3    H250599   3.406   7.692  11.080  0.8047  2.4635  1.3199
 8802TIP3   OH250600   7.500   5.981  12.193  0.5620  0.7251 -0.1001
 8802TIP3    H150601   7.438   5.930  12.142  1.4777 -0.6010  0.0747
 8802TIP3    H250602   7.500   6.067  12.151 -1.5695  0.8653  0.0562
 8803TIP3   OH250603   0.175   5.807  12.001  0.4855 -0.0974  0.4392
 8803TIP3    H150604   0.130   5.863  11.939  0.0895  0.4828  1.2323
 8803TIP3    H250605   0.155   5.718  11.972 -0.4945  0.1575  0.3038
 8804TIP3   OH250606   5.153   5.484  11.195  0.3005  0.1799 -0.8162
 8804TIP3    H150607   5.164   5.560  11.252  2.5638 -1.0146  0.4801
 8804TIP3    H250608   5.200   5.507  11.114  0.1489  0.5236 -0.8065
 8805TIP3   OH250609   1.086   5.130  12.651  0.2328  0.1405 -0.2557
 8805TIP3    H150610   1.156   5.097  12.594 -0.7095 -0.4128 -1.1323
 8805TIP3    H250611   1.101   5.224  12.655  2.6430 -0.2290  1.8486
 8806TIP3   OH250612   0.683   0.804  12.043 -0.0477 -0.3109  0.1005
 8806TIP3    H150613   0.704   0.897  12.033  0.5922 -0.4419  0.1433
 8806TIP3    H250614   0.678   0.771  11.953 -0.7952 -0.1292  0.0728
 8807TIP3   OH250615   1.151   1.423  12.492 -0.6708 -0.3242 -0.7023
 8807TIP3    H150616   1.072   1.476  12.489 -0.9007 -0.6947 -2.1229
 8807TIP3    H250617   1.128   1.343  12.444  0.0488 -1.1709  0.3239
 8808TIP3   OH250618   4.102   2.364  12.293  0.2857  0.1612  0.0584
 8808TIP3    H150619   4.060   2.340  12.376  0.2338 -0.9409 -0.2702
 8808TIP3    H250620   4.143   2.449  12.311  1.4733 -0.6897  1.6508
 8809TIP3   OH250621   2.652   2.843  12.451 -0.3097 -0.0115 -0.1470
 8809TIP3    H150622   2.598   2.805  12.382 -0.5599 -0.5795  0.3529
 8809TIP3    H250623   2.616   2.806  12.532  1.1002 -0.7457  0.1707
 8810TIP3   OH250624   4.694   2.354  13.122  0.4421 -0.1620 -1.1622
 8810TIP3    H150625   4.751   2.408  13.068  0.9968  1.0130  0.5276
 8810TIP3    H250626   4.754   2.310  13.183 -0.3293 -0.0274 -0.2990
 8811TIP3   OH250627   0.761   7.296  11.330 -0.0718  0.0731 -0.2129
 8811TIP3    H150628   0.769   7.275  11.237  0.1874 -2.0714  0.2325
 8811TIP3    H250629   0.669   7.320  11.341  0.1308  1.3913 -1.1804
 8812TIP3   OH250630   1.843   4.302  11.564 -0.1234 -0.6896 -0.2432
 8812TIP3    H150631   1.899   4.297  11.642  0.5166 -4.1882 -0.7560
 8812TIP3    H250632   1.894   4.354  11.502  2.0618 -2.5440 -0.1723
 8813TIP3   OH250633   2.360   6.664  11.181 -0.8783  0.0002  0.3025
 8813TIP3    H150634   2.328   6.575  11.171 -0.6902  0.0667 -1.0094
 8813TIP3    H250635   2.289   6.720  11.150 -0.0930  0.1985 -1.2204
 8814TIP3   OH250636   6.465   5.364  13.084 -0.1581  0.3592  0.6473
 8814TIP3    H150637   6.424   5.331  13.164 -0.9389 -1.3039 -0.3796
 8814TIP3    H250638   6.539   5.305  13.069 -0.4302  0.2037 -0.1885
 8815TIP3   OH250639   3.516   2.331  11.876 -0.2401  0.5017  0.0935
 8815TIP3    H150640   3.472   2.363  11.797  0.7836 -0.1871 -0.7831
 8815TIP3    H250641   3.551   2.246  11.851  2.0238  1.2291  0.5822
 8816TIP3   OH250642   5.411   7.484  12.620  0.6865  0.6923  0.2288
 8816TIP3    H150643   5.326   7.508  12.583  0.7218  0.3094 -0.1167
 8816TIP3    H250644   5.427   7.395  12.587  1.5352  1.0239 -0.2790
 8817TIP3   OH250645   2.566   3.424  11.427 -0.3515 -0.1015 -0.0513
 8817TIP3    H150646   2.637   3.367  11.399 -1.2369 -1.1388 -0.2410
 8817TIP3    H250647   2.487   3.371  11.417 -1.0153  0.5117  1.5537
 8818TIP3   OH250648   0.730   1.575  12.587  0.1955  0.5980 -0.0395
 8818TIP3    H150649   0.707   1.518  12.513  2.1879  0.3160 -0.5091
 8818TIP3    H250650   0.680   1.540  12.660 -1.2684  0.4202 -1.0770
 8819TIP3   OH250651   1.752   3.935  11.486 -0.0581 -0.5315 -0.3984
 8819TIP3    H150652   1.673   3.882  11.497 -0.5045  0.0493 -0.7140
 8819TIP3    H250653   1.778   3.958  11.575 -0.7913  0.0520 -0.3268
 8820TIP3   OH250654   6.829   6.602  11.184  0.1099 -0.3399  0.4383
 8820TIP3    H150655   6.819   6.614  11.278 -0.4520 -1.2435  0.5166
 8820TIP3    H250656   6.799   6.512  11.168 -2.5703  0.6612 -0.9886
 8821TIP3   OH250657   4.513   7.420  12.105 -0.3647 -0.5566  0.0487
 8821TIP3    H150658   4.570   7.497  12.111  1.2942 -1.5737 -1.5281
 8821TIP3    H250659   4.437   7.451  12.057  0.3827  0.0768 -0.7673
 8822TIP3   OH250660   4.543   2.273  10.527  0.1544  0.1201  0.1680
 8822TIP3    H150661   4.628   2.303  10.495 -0.2874 -1.7799 -3.4626
 8822TIP3    H250662   4.547   2.177  10.518 -2.0456 -0.0919  0.8138
 8823TIP3   OH250663   1.641   1.794  11.421  0.8125  0.3855 -0.2175
 8823TIP3    H150664   1.574   1.728  11.402 -0.5922  1.6865  0.0359
 8823TIP3    H250665   1.700   1.790  11.346  0.2486 -0.5457 -0.6263
 8824TIP3   OH250666   0.687   5.712  12.615  0.0547 -0.3878  0.1766
 8824TIP3    H150667   0.614   5.763  12.580  0.3522 -1.2103 -1.7395
 8824TIP3    H250668   0.751   5.777  12.643 -0.3738  0.3227 -0.4544
 8825TIP3   OH250669   2.521   6.568  12.192  0.6340  0.2129 -0.1379
 8825TIP3    H150670   2.588   6.518  12.144 -0.8540 -0.5121 -1.5578
 8825TIP3    H250671   2.494   6.636  12.131  0.3266  0.7394  0.5712
 8826TIP3   OH250672   3.287   6.944  11.802  0.2557 -0.0643  0.2635
 8826TIP3    H150673   3.214   6.997  11.834  0.3273 -1.0022  2.0743
 8826TIP3    H250674   3.347   7.007  11.763  0.0355  1.1114  1.7673
 8827TIP3   OH250675   4.121   3.109  10.785  0.1035 -0.4754 -0.2274
 8827TIP3    H150676   4.107   3.085  10.876  3.0269  2.5167  1.2519
 8827TIP3    H250677   4.053   3.175  10.767  2.0061  2.0972  1.3889
 8828TIP3   OH250678   0.962   0.144  11.990 -0.4776 -0.1920  0.0981
 8828TIP3    H150679   1.046   0.100  11.987 -0.1998  0.3689 -0.9198
 8828TIP3    H250680   0.917   0.107  12.066  1.0131  0.1140  1.1591
 8829TIP3   OH250681   6.673   0.016  12.177 -0.0363 -0.1888  0.0764
 8829TIP3    H150682   6.612  -0.057  12.177 -1.1232  0.6792  1.4551
 8829TIP3    H250683   6.667   0.053  12.089 -2.9712  1.0106  0.6804
 8830TIP3   OH250684   6.276   1.386  11.917  0.2835  0.2108  0.5783
 8830TIP3    H150685   6.206   1.378  11.852  0.7271 -2.5409  0.3299
 8830TIP3    H250686   6.291   1.480  11.924 -1.5743  0.7366 -1.3584
 8831TIP3   OH250687   1.830   1.308  12.401 -0.0527  0.3973 -0.0686
 8831TIP3    H150688   1.789   1.323  12.485 -2.1068 -1.3632 -0.6696
 8831TIP3    H250689   1.854   1.395  12.369 -0.8279  1.2277  1.5401
 8832TIP3   OH250690   6.377   5.567  11.181 -0.0418 -0.3672  0.3823
 8832TIP3    H150691   6.468   5.594  11.194 -0.3689  1.6626 -1.0704
 8832TIP3    H250692   6.328   5.649  11.180 -1.5416 -1.2335 -1.3084
 8833TIP3   OH250693   4.239   4.856  12.435 -0.1654 -0.4324 -0.3100
 8833TIP3    H150694   4.198   4.868  12.349  1.6576  2.3565 -0.9315
 8833TIP3    H250695   4.309   4.793  12.419 -0.7875 -1.0968 -0.4821
 8834TIP3   OH250696   5.785   6.245  12.287  0.1059  0.1193  0.1482
 8834TIP3    H150697   5.722   6.314  12.310  2.3435  2.0843  0.7424
 8834TIP3    H250698   5.794   6.252  12.192  2.5870  2.9357  0.4363
 8835TIP3   OH250699   3.674   2.615  10.971  0.1808 -0.7184  0.4114
 8835TIP3    H150700   3.673   2.542  10.908 -0.8070 -1.1926  0.9562
 8835TIP3    H250701   3.728   2.583  11.043  0.0664 -0.7528  0.4804
 8836TIP3   OH250702   4.126   6.186  10.667  0.0298  0.4168 -0.1492
 8836TIP3    H150703   4.162   6.106  10.630 -0.8516  0.2637 -0.7270
 8836TIP3    H250704   4.119   6.169  10.761 -3.1930 -1.5168 -0.5730
 8837TIP3   OH250705   5.609   0.322  11.086 -0.1439  0.0105  0.1801
 8837TIP3    H150706   5.526   0.277  11.101 -0.2236 -0.0343 -0.3742
 8837TIP3    H250707   5.595   0.372  11.005  0.6773 -0.7509 -0.4618
 8838TIP3   OH250708   2.864   4.162  12.605 -0.1799 -0.2929  0.0921
 8838TIP3    H150709   2.826   4.114  12.531  4.1991 -0.4333 -2.3806
 8838TIP3    H250710   2.882   4.095  12.671 -1.5715 -0.6097  0.1907
 8839TIP3   OH250711   1.141   6.073  12.325  0.0961  0.2203  0.3357
 8839TIP3    H150712   1.214   6.017  12.352  0.1987  0.9612  1.6433
 8839TIP3    H250713   1.139   6.064  12.229  0.5787 -1.4143  0.4426
 8840TIP3   OH250714   3.236   5.738  11.420  0.6043  0.3114  0.3983
 8840TIP3    H150715   3.179   5.711  11.349  3.5427 -0.8936 -1.7092
 8840TIP3    H250716   3.292   5.806  11.382  0.6557  1.4583  2.3455
 8841TIP3   OH250717   2.518   2.807  10.972 -0.3546  0.2554  0.1734
 8841TIP3    H150718   2.514   2.720  11.012 -1.2931  0.7052  1.1210
 8841TIP3    H250719   2.581   2.856  11.026  1.9612 -0.4541 -1.7227
 8842TIP3   OH250720   4.891   2.411  10.789 -0.8830 -0.3368 -0.1035
 8842TIP3    H150721   4.896   2.506  10.789 -1.7466 -0.2425  1.5654
 8842TIP3    H250722   4.976   2.382  10.822 -0.4127 -0.1758 -1.1675
 8843TIP3   OH250723   7.498   5.088  11.776 -0.1514 -0.2138  0.4863
 8843TIP3    H150724   7.537   5.175  11.765  1.4681 -0.7111  1.9027
 8843TIP3    H250725   7.548   5.032  11.717 -1.2374 -0.2218 -0.4719
 8844TIP3   OH250726   2.661   0.380  11.685 -0.2571  0.0139  0.4390
 8844TIP3    H150727   2.596   0.331  11.636  1.2729 -2.6046  0.8311
 8844TIP3    H250728   2.743   0.332  11.672  1.2149  2.0304  1.5605
 8845TIP3   OH250729   0.201   3.042  12.311 -0.1887  0.4142 -0.0573
 8845TIP3    H150730   0.198   3.103  12.237 -1.0708 -0.4344 -0.7590
 8845TIP3    H250731   0.125   2.985  12.297  1.1196 -1.4224  0.0665
 8846TIP3   OH250732   0.216   0.695  13.411  0.4875 -0.5794 -0.2383
 8846TIP3    H150733   0.204   0.615  13.461  0.3629 -1.7886 -2.1025
 8846TIP3    H250734   0.132   0.709  13.367  0.8734 -0.1063 -0.8455
 8847TIP3   OH250735   4.631   2.684  10.917 -0.1158  0.0105 -0.5386
 8847TIP3    H150736   4.549   2.705  10.874 -1.0459  1.4080  1.6890
 8847TIP3    H250737   4.693   2.668  10.846 -1.8464  0.7724 -2.3020
 8848TIP3   OH250738   0.104   6.127  12.081  0.5641 -0.1778 -0.6781
 8848TIP3    H150739   0.019   6.168  12.095  0.8715  0.6740 -1.1737
 8848TIP3    H250740   0.116   6.069  12.156 -0.1548  0.2069 -0.2566
 8849TIP3   OH250741   7.141   0.592  11.066 -0.1283  0.2000 -0.1438
 8849TIP3    H150742   7.082   0.523  11.036  0.0165  0.1191 -0.2437
 8849TIP3    H250743   7.114   0.670  11.017  0.8585 -0.1996 -1.3579
 8850TIP3   OH250744   6.609   2.163  10.368  0.4381 -0.2978 -0.5280
 8850TIP3    H150745   6.665   2.199  10.437  3.0140  0.1951 -2.7168
 8850TIP3    H250746   6.607   2.232  10.301 -0.0688 -1.6475 -1.9416
 8851TIP3   OH250747   1.684   6.773  12.329  0.3599 -0.2289 -0.8109
 8851TIP3    H150748   1.713   6.857  12.364 -0.2911 -0.6781  0.9050
 8851TIP3    H250749   1.764   6.724  12.314  0.6584 -0.2061  0.5962
 8852TIP3   OH250750   4.325   2.322  12.490 -0.5215 -0.5112 -0.5025
 8852TIP3    H150751   4.351   2.295  12.402  0.2147 -0.8367 -0.1909
 8852TIP3    H250752   4.299   2.240  12.534  1.2158 -0.6868  0.2780
 8853TIP3   OH250753   5.788   5.999  11.403  0.3883 -0.0043  0.1634
 8853TIP3    H150754   5.879   5.998  11.432  0.1181 -0.1411  1.0403
 8853TIP3    H250755   5.742   5.945  11.467 -0.3153  0.0752 -0.2619
 8854TIP3   OH250756   7.477   4.438  12.375 -0.2560 -0.3116 -0.0419
 8854TIP3    H150757   7.549   4.487  12.335 -0.6795 -0.4557 -0.9967
 8854TIP3    H250758   7.520   4.373  12.430  0.3566 -0.5488 -0.7886
 8855TIP3   OH250759   4.468   1.226  11.581  0.0027 -0.6413  0.1909
 8855TIP3    H150760   4.493   1.260  11.495 -0.2620  0.6720  0.6136
 8855TIP3    H250761   4.372   1.229  11.582 -0.0697 -2.0362  0.0095
 8856TIP3   OH250762   3.520   6.592  12.594 -0.3691 -0.2169  0.1143
 8856TIP3    H150763   3.474   6.546  12.663  0.7937 -0.7245  0.5743
 8856TIP3    H250764   3.505   6.684  12.612 -0.2462 -0.3518  0.9200
 8857TIP3   OH250765   2.828   6.136  11.800  0.1372 -0.3059  0.0297
 8857TIP3    H150766   2.788   6.112  11.884  1.0706 -0.6128  0.4028
 8857TIP3    H250767   2.881   6.060  11.776  2.2157  0.8431  0.6624
 8858TIP3   OH250768   3.957   5.512  11.772  0.3332 -0.7075 -0.3139
 8858TIP3    H150769   4.036   5.499  11.719  0.3560 -0.2183 -0.4108
 8858TIP3    H250770   3.900   5.567  11.717  1.3558  1.9618  1.0735
 8859TIP3   OH250771   5.834   5.244  12.164  0.0805  0.1413  0.0808
 8859TIP3    H150772   5.810   5.288  12.083  0.8169  1.2121  0.4232
 8859TIP3    H250773   5.807   5.304  12.233  0.8942 -0.0384  0.5680
 8860TIP3   OH250774   6.884   3.186  11.519 -0.3423  0.3871  0.0318
 8860TIP3    H150775   6.790   3.171  11.514 -0.3572  0.6944 -0.7118
 8860TIP3    H250776   6.910   3.207  11.429  0.6257 -0.8011 -0.0060
 8861TIP3   OH250777   0.028   6.200  10.786 -0.4457  1.2634  0.1515
 8861TIP3    H150778   0.107   6.216  10.836 -1.8634  2.3353  2.2040
 8861TIP3    H250779   0.003   6.286  10.752  0.3793  0.5924 -2.3528
 8862TIP3   OH250780   6.073   1.913  11.620 -0.1608 -0.1026  0.2464
 8862TIP3    H150781   6.168   1.907  11.605 -0.1923  1.3127 -0.7313
 8862TIP3    H250782   6.060   2.002  11.652 -1.2965  0.1874 -0.9319
 8863TIP3   OH250783   6.870   4.311  12.427  0.1128  0.6749  0.3977
 8863TIP3    H150784   6.941   4.290  12.487  0.1760 -0.5331 -0.0746
 8863TIP3    H250785   6.903   4.383  12.373  0.3983  1.1370  1.1825
 8864TIP3   OH250786   7.051   4.415  12.887 -0.2511 -0.4040  0.4347
 8864TIP3    H150787   7.025   4.329  12.920 -0.5480 -0.1260  0.9330
 8864TIP3    H250788   6.979   4.473  12.911 -1.5137 -0.5718 -2.5669
 8865TIP3   OH250789   4.789   6.967  10.898 -0.1157  0.2105  0.5114
 8865TIP3    H150790   4.729   7.038  10.875  1.2727  0.8199 -1.4150
 8865TIP3    H250791   4.854   7.008  10.955 -0.3867  0.0271  0.9539
 8866TIP3   OH250792   3.276   6.102  11.892 -0.2015  0.1050  0.0132
 8866TIP3    H150793   3.219   6.029  11.872  0.9003 -0.9931  0.7026
 8866TIP3    H250794   3.326   6.117  11.811  1.3955 -1.6576  0.6026
 8867TIP3   OH250795   1.281   3.203  10.670 -0.8829  0.1885 -0.3298
 8867TIP3    H150796   1.297   3.186  10.577 -1.2262  2.6929 -0.9305
 8867TIP3    H250797   1.354   3.162  10.715  0.4085  0.6331 -1.9110
 8868TIP3   OH250798   4.380   6.003  10.710 -0.9799  0.7104  0.6366
 8868TIP3    H150799   4.340   5.965  10.788 -0.6261 -0.9649  0.0622
 8868TIP3    H250800   4.464   6.036  10.740 -0.0450 -1.5351  0.7027
 8869TIP3   OH250801   2.699   4.179  11.873  0.2859  0.2171  0.2705
 8869TIP3    H150802   2.669   4.270  11.873  0.0575  0.1445 -0.0817
 8869TIP3    H250803   2.734   4.165  11.785 -1.9066 -0.7460 -0.5431
 8870TIP3   OH250804   2.766   3.607  11.615 -0.1425  0.5101  0.0666
 8870TIP3    H150805   2.711   3.624  11.692  0.1179  0.6538  0.2224
 8870TIP3    H250806   2.807   3.523  11.632 -0.8397  0.0667 -0.3610
 8871TIP3   OH250807   5.847   4.821  10.665  1.0186 -0.0740  0.4425
 8871TIP3    H150808   5.831   4.736  10.707 -1.1926 -0.5846 -1.2310
 8871TIP3    H250809   5.913   4.803  10.598  1.1646 -0.2932  0.6438
 8872TIP3   OH250810   0.542   6.281  11.737 -0.0873 -0.3020 -0.5996
 8872TIP3    H150811   0.572   6.319  11.820  1.3350  1.5163 -1.8516
 8872TIP3    H250812   0.470   6.339  11.709 -1.5117 -1.7170 -0.0357
 8873TIP3   OH250813   3.814   0.532  12.077  0.4129  0.1931  0.4185
 8873TIP3    H150814   3.772   0.555  11.995  1.0441 -1.1839 -0.3368
 8873TIP3    H250815   3.897   0.579  12.075  0.8368 -0.5522 -0.1935
 8874TIP3   OH250816   4.221   0.907  11.123  0.5543  0.1641 -0.0938
 8874TIP3    H150817   4.189   0.967  11.191  0.0647  0.8673 -0.9209
 8874TIP3    H250818   4.148   0.848  11.107  1.1840 -0.9618  1.0243
 8875TIP3   OH250819   5.653   2.017  12.697  0.0671  0.2228  0.7633
 8875TIP3    H150820   5.740   2.003  12.659  0.0659  1.4969  0.2385
 8875TIP3    H250821   5.670   2.062  12.779 -0.1598  2.9291 -0.5806
 8876TIP3   OH250822   7.651   3.884  10.414  0.0938 -0.0736  0.3730
 8876TIP3    H150823   7.568   3.923  10.439 -0.9445 -1.5082 -0.6811
 8876TIP3    H250824   7.717   3.937  10.459 -1.4263  0.2901  2.3083
 8877TIP3   OH250825   4.650   3.308  11.865  0.1011  0.0932 -0.0104
 8877TIP3    H150826   4.636   3.234  11.805 -0.1821  0.9528 -1.0407
 8877TIP3    H250827   4.565   3.351  11.871  0.3424  0.5394  0.2994
 8878TIP3   OH250828   1.865   6.277  11.705  0.1836 -0.1170  0.3168
 8878TIP3    H150829   1.929   6.213  11.738 -0.2503 -0.3699  0.6807
 8878TIP3    H250830   1.795   6.277  11.771  1.1699  2.3319  1.5087
 8879TIP3   OH250831   6.792   2.037  12.424 -0.1866 -0.4692 -0.2492
 8879TIP3    H150832   6.733   2.077  12.488 -2.2755 -2.1437 -0.9800
 8879TIP3    H250833   6.805   1.948  12.456  3.8537  0.3876  1.0163
 8880TIP3   OH250834   6.165   5.597  12.769  0.4297 -0.1154 -0.3514
 8880TIP3    H150835   6.240   5.546  12.801  0.2106  0.2431  0.7729
 8880TIP3    H250836   6.162   5.578  12.675  0.3538 -2.1943  0.0092
 8881TIP3   OH250837   2.273   1.866  12.294 -0.2759  0.3120 -0.2159
 8881TIP3    H150838   2.199   1.839  12.240 -0.9803 -0.2237  0.9742
 8881TIP3    H250839   2.239   1.868  12.383  0.8035  1.3798  0.2056
 8882TIP3   OH250840   2.830   5.569  11.399 -0.0675 -0.4874  0.0475
 8882TIP3    H150841   2.805   5.552  11.490  0.2734 -1.8437 -0.0910
 8882TIP3    H250842   2.753   5.544  11.348 -0.6434  1.2477 -0.0057
 8883TIP3   OH250843   5.541   0.695  10.918  0.4482 -0.4321  0.2841
 8883TIP3    H150844   5.575   0.639  10.848  1.7951  0.3385  0.2899
 8883TIP3    H250845   5.574   0.782  10.897 -1.1648  0.2769  0.5733
 8884TIP3   OH250846   4.319   0.684  12.240  0.0061  0.3132 -0.0242
 8884TIP3    H150847   4.405   0.727  12.244 -0.2791  0.9923 -0.7539
 8884TIP3    H250848   4.338   0.594  12.214  0.4601  0.6723 -1.0039
 8885TIP3   OH250849   2.532   6.586  12.900 -0.2580  0.0004 -0.2512
 8885TIP3    H150850   2.625   6.602  12.881  0.0097 -0.3047  0.7721
 8885TIP3    H250851   2.491   6.672  12.887  0.3448  0.3865  0.3365
 8886TIP3   OH250852   6.480   0.394  12.697  0.0650 -0.0099  0.2548
 8886TIP3    H150853   6.454   0.392  12.790  0.7208 -1.2151  0.4354
 8886TIP3    H250854   6.469   0.486  12.671 -1.2033  0.1408  1.2093
 8887TIP3   OH250855   0.621   6.897  12.979  0.0187  0.6710 -0.5473
 8887TIP3    H150856   0.687   6.836  12.947  0.3957  1.2650 -0.9301
 8887TIP3    H250857   0.648   6.982  12.944 -1.5515  0.7589 -1.6538
 8888TIP3   OH250858   7.046   0.101  11.543 -0.0194 -0.2315  0.3185
 8888TIP3    H150859   7.125   0.155  11.529 -0.0574 -0.2530  0.0059
 8888TIP3    H250860   6.989   0.155  11.597 -0.6500  0.6300 -1.1523
 8889TIP3   OH250861   1.145   0.912  11.140 -0.1522  0.7736  0.5730
 8889TIP3    H150862   1.149   0.831  11.191 -1.8145  0.8331  0.8749
 8889TIP3    H250863   1.157   0.883  11.049  0.9402  0.4177  0.8203
 8890TIP3   OH250864   1.908   2.688  11.121 -0.0572 -0.0059  0.6047
 8890TIP3    H150865   1.827   2.644  11.094 -0.2806 -1.0745  2.8325
 8890TIP3    H250866   1.973   2.658  11.058 -0.7765 -1.4999  0.5288
 8891TIP3   OH250867   1.547   7.168  11.769 -0.5446  0.2853  0.3086
 8891TIP3    H150868   1.530   7.085  11.815  0.9417 -0.6043 -0.6331
 8891TIP3    H250869   1.620   7.206  11.817  0.5624 -0.3126 -0.8377
 8892TIP3   OH250870   7.422   4.498  10.687  0.0055  0.0961  0.1172
 8892TIP3    H150871   7.479   4.492  10.610  0.0402 -1.8816  0.2524
 8892TIP3    H250872   7.481   4.489  10.762 -0.2821 -0.2960  0.3025
 8893TIP3   OH250873   6.413   5.891  10.837 -0.1937  0.0973  0.0452
 8893TIP3    H150874   6.359   5.845  10.772  0.7136 -0.3989 -0.3862
 8893TIP3    H250875   6.455   5.961  10.787  0.4030 -0.2019  0.1189
 8894TIP3   OH250876   4.801   0.747  10.832 -0.5695  0.0170  0.4558
 8894TIP3    H150877   4.722   0.703  10.803  0.6771 -2.5929  0.7046
 8894TIP3    H250878   4.855   0.754  10.753 -0.6065  0.8120  0.4918
 8895TIP3   OH250879   1.269   1.112  12.792  0.5164  0.5500 -0.7119
 8895TIP3    H150880   1.215   1.184  12.759 -1.3349  0.0287  0.9745
 8895TIP3    H250881   1.271   1.125  12.887 -1.7168 -2.7302 -0.0506
 8896TIP3   OH250882   0.904   6.037  11.491 -0.4035 -0.0750 -0.0010
 8896TIP3    H150883   0.809   6.033  11.500 -0.4984  0.0161 -0.8935
 8896TIP3    H250884   0.923   6.130  11.476 -0.2005 -0.1273 -0.0754
 8897TIP3   OH250885   1.347   0.994  11.319 -0.3390 -0.4599 -0.3280
 8897TIP3    H150886   1.279   0.976  11.255 -1.2061 -0.6299  0.6202
 8897TIP3    H250887   1.423   0.945  11.287 -0.3559  0.4654 -1.8819
 8898TIP3   OH250888   0.345   5.425  10.394  0.5195  0.6476 -0.1204
 8898TIP3    H150889   0.358   5.445  10.486  1.4822 -0.2868 -0.0357
 8898TIP3    H250890   0.324   5.509  10.354  1.2072  1.2521  0.7570
 8899TIP3   OH250891   4.300   0.105  13.547 -0.0348  0.3744  0.1338
 8899TIP3    H150892   4.389   0.139  13.561  0.3901 -1.1305  1.3472
 8899TIP3    H250893   4.249   0.137  13.621 -0.2827  0.4863 -0.0825
 8900TIP3   OH250894   4.802   4.496  12.100 -0.2301 -0.3503 -0.3368
 8900TIP3    H150895   4.867   4.538  12.043  1.5384 -0.9028  1.1780
 8900TIP3    H250896   4.794   4.556  12.174  1.1551 -1.8567  1.1080
 8901TIP3   OH250897   7.148   4.923  11.012 -0.2675 -0.0029 -0.2977
 8901TIP3    H150898   7.148   4.920  11.108  0.6662  0.2438 -0.2824
 8901TIP3    H250899   7.204   4.997  10.990 -1.5069  0.7347 -1.0310
 8902TIP3   OH250900   5.658   0.629  10.655  0.3352  0.6084 -0.2058
 8902TIP3    H150901   5.590   0.669  10.600  0.5997 -1.8240 -2.4912
 8902TIP3    H250902   5.739   0.670  10.626  0.2352  0.9254 -0.0404
 8903TIP3   OH250903   2.705   7.654  11.546 -0.1056  0.0923  0.4614
 8903TIP3    H150904   2.679   7.567  11.578  3.2751 -1.2909 -0.1490
 8903TIP3    H250905   2.698   7.647  11.451  1.2979  0.0728  0.3531
 8904TIP3   OH250906   0.436   1.715  12.746  0.8319  0.3357  0.2599
 8904TIP3    H150907   0.516   1.663  12.732  0.0863 -0.5622 -0.7912
 8904TIP3    H250908   0.457   1.769  12.823  3.7811  2.7754 -1.9740
 8905TIP3   OH250909   4.007   3.744  10.444 -0.1717  0.3758 -0.0819
 8905TIP3    H150910   3.996   3.828  10.490  0.8172  0.6954 -0.4009
 8905TIP3    H250911   4.063   3.693  10.502 -0.4953  0.0516 -0.0500
 8906TIP3   OH250912   3.000   5.318  11.576  0.0312  0.1136 -0.4423
 8906TIP3    H150913   3.078   5.338  11.524  0.3231 -0.1510 -0.1130
 8906TIP3    H250914   3.006   5.376  11.651 -0.1158  0.1305 -0.4452
 8907TIP3   OH250915   0.208   1.524  10.320  0.2570 -0.2596  0.0851
 8907TIP3    H150916   0.277   1.458  10.316  0.1177 -0.3893 -0.1692
 8907TIP3    H250917   0.209   1.566  10.234  0.4927  0.2243  0.3147
 8908TIP3   OH250918   0.055   2.444  11.228 -0.1606  0.2848 -0.4309
 8908TIP3    H150919  -0.025   2.483  11.193 -1.5860 -1.2904  0.9138
 8908TIP3    H250920   0.048   2.457  11.323  2.2811  2.0293 -0.3947
 8909TIP3   OH250921   5.852   5.965  12.799  0.0273 -0.1392  0.1858
 8909TIP3    H150922   5.879   5.935  12.886 -0.2534  1.4001  0.8287
 8909TIP3    H250923   5.759   5.983  12.807 -0.0368 -0.1579 -0.4849
 8910TIP3   OH250924   5.503   1.810  12.782  0.1325  0.3333 -0.1432
 8910TIP3    H150925   5.577   1.772  12.733 -0.2187  1.0056 -1.2250
 8910TIP3    H250926   5.511   1.904  12.767 -2.0924  0.2922 -1.9758
 8911TIP3   OH250927   2.992   5.126  12.851 -0.4532  0.5929 -0.4971
 8911TIP3    H150928   2.935   5.115  12.926 -0.6533  1.8285 -0.4513
 8911TIP3    H250929   3.067   5.176  12.884 -0.8474  1.7133 -1.2359
 8912TIP3   OH250930   7.453   0.820  13.433  0.3586  0.7194  0.1418
 8912TIP3    H150931   7.523   0.807  13.370  2.0989 -2.1368  2.4157
 8912TIP3    H250932   7.491   0.879  13.499  0.0572  0.4321  0.5808
 8913TIP3   OH250933   4.956   6.327  11.263  0.3199 -0.4324  0.0528
 8913TIP3    H150934   5.050   6.333  11.247 -0.1401  0.6889 -2.7295
 8913TIP3    H250935   4.924   6.266  11.197 -1.0302 -0.1634  0.4336
 8914TIP3   OH250936   0.286   4.239  10.664  0.1730 -0.2842  0.0796
 8914TIP3    H150937   0.356   4.217  10.603 -0.3655  0.5435 -0.8655
 8914TIP3    H250938   0.294   4.333  10.678 -0.9609 -0.1076 -0.3381
 8915TIP3   OH250939   3.482   6.631  12.997  0.1502 -0.1319 -0.2706
 8915TIP3    H150940   3.439   6.646  13.081 -1.2290 -0.6938 -0.8530
 8915TIP3    H250941   3.558   6.577  13.018 -1.3720 -2.1040  0.3704
 8916TIP3   OH250942   3.161   0.159  10.456 -0.0371 -0.8045 -0.0431
 8916TIP3    H150943   3.089   0.155  10.518 -0.0340 -1.4498 -0.0747
 8916TIP3    H250944   3.123   0.197  10.377 -0.3685 -1.2190 -0.0877
 8917TIP3   OH250945   6.462   3.155  12.932  0.2716  0.3908 -0.7233
 8917TIP3    H150946   6.543   3.189  12.969  1.5027 -2.4715 -0.5582
 8917TIP3    H250947   6.483   3.137  12.841 -0.1137 -0.5241 -0.6383
 8918TIP3   OH250948   1.512   0.685  11.634  0.1599  0.0572  0.1247
 8918TIP3    H150949   1.441   0.727  11.585 -0.3382 -1.7494 -0.7902
 8918TIP3    H250950   1.467   0.627  11.696  0.8066 -1.1578 -0.5071
 8919TIP3   OH250951   4.695   4.370  11.723  0.2412  0.4517 -0.6286
 8919TIP3    H150952   4.675   4.459  11.750  0.7484  0.1349  0.8656
 8919TIP3    H250953   4.647   4.358  11.641 -0.3162  1.8881 -0.5291
 8920TIP3   OH250954   5.585   5.896  12.350 -0.3074  0.1077 -0.0745
 8920TIP3    H150955   5.645   5.821  12.360 -0.1124  0.2555 -0.1344
 8920TIP3    H250956   5.614   5.939  12.270 -0.3728  0.2910  0.0008
 8921TIP3   OH250957   3.879   2.008  11.755  0.3076  0.6389 -0.5914
 8921TIP3    H150958   3.942   2.034  11.821 -1.0556  0.9494  0.6427
 8921TIP3    H250959   3.875   1.912  11.762  0.8632  0.5897 -0.9008
 8922TIP3   OH250960   3.084   1.825  11.202  0.3034 -0.4147  0.3552
 8922TIP3    H150961   2.991   1.808  11.190 -0.1518  0.3397  2.4781
 8922TIP3    H250962   3.105   1.892  11.137 -0.4050 -1.1551 -0.6768
 8923TIP3   OH250963   7.598   7.453  11.628  0.0595 -0.1177  0.0116
 8923TIP3    H150964   7.664   7.444  11.559 -0.2191 -1.0502 -0.1444
 8923TIP3    H250965   7.635   7.517  11.689  0.6143  0.1979 -0.6460
 8924TIP3   OH250966   3.214   0.445  12.044  0.1095  0.1463  0.2129
 8924TIP3    H150967   3.216   0.519  11.983  0.1788  0.8317  1.0230
 8924TIP3    H250968   3.125   0.409  12.035  0.2576 -0.0405 -0.6005
 8925TIP3   OH250969   6.438   4.880  11.681 -0.0151 -0.3772  0.0594
 8925TIP3    H150970   6.370   4.852  11.743  0.8696 -0.8602  0.8306
 8925TIP3    H250971   6.400   4.956  11.637 -1.3935 -1.1314 -0.1237
 8926TIP3   OH250972   2.073   2.627  12.381  0.2199 -0.3593  0.1982
 8926TIP3    H150973   2.042   2.550  12.334 -0.7762 -0.8381  1.5883
 8926TIP3    H250974   2.033   2.701  12.335 -0.4602 -0.7961  0.0775
 8927TIP3   OH250975   7.229   2.917  12.083  0.1808 -0.2343 -0.5935
 8927TIP3    H150976   7.187   2.952  12.161 -0.8901 -0.3849 -1.0780
 8927TIP3    H250977   7.206   2.824  12.083  0.1185 -0.2252 -1.1036
 8928TIP3   OH250978   0.430   4.666  13.060 -0.0370  0.3927 -0.3792
 8928TIP3    H150979   0.444   4.761  13.054 -1.0256  0.6860  1.3229
 8928TIP3    H250980   0.347   4.651  13.014  0.1698  0.3216 -0.7357
 8929TIP3   OH250981   6.982   0.437  10.875 -0.0052 -0.5099 -0.0859
 8929TIP3    H150982   6.914   0.499  10.850  0.6161 -0.2036 -1.0644
 8929TIP3    H250983   6.938   0.375  10.933 -0.2107  1.9365  2.5441
 8930TIP3   OH250984   6.192   1.030  10.865 -0.3450  0.2035  0.2281
 8930TIP3    H150985   6.271   1.064  10.823 -0.1497 -1.3161 -0.7063
 8930TIP3    H250986   6.128   1.021  10.793 -1.5145  1.7443  1.0221
 8931TIP3   OH250987   7.380   2.073  11.883  0.3905 -1.0118  0.3317
 8931TIP3    H150988   7.411   2.131  11.953 -1.1460  0.0435  0.1980
 8931TIP3    H250989   7.303   2.030  11.921 -0.8641  0.0674 -0.8690
 8932TIP3   OH250990   0.274   2.118  11.997 -0.4375 -0.1239  0.5045
 8932TIP3    H150991   0.258   2.056  11.927  1.2805  0.5786 -0.5704
 8932TIP3    H250992   0.223   2.196  11.973 -0.5578 -0.2024  0.5055
 8933TIP3   OH250993   7.043   5.456  11.224 -0.3776 -0.3639 -0.0174
 8933TIP3    H150994   7.055   5.550  11.238  1.2016 -0.7126  1.1784
 8933TIP3    H250995   6.964   5.434  11.273  1.1596 -0.2534  2.6576
 8934TIP3   OH250996   5.480   7.152  12.841 -0.3475  0.1110 -0.0402
 8934TIP3    H150997   5.526   7.236  12.846 -1.9251  1.0486 -0.4472
 8934TIP3    H250998   5.460   7.130  12.932  0.4773 -0.0804  0.1052
 8935TIP3   OH250999   6.339   6.151  12.417 -0.1147 -0.1912  0.4400
 8935TIP3    H151000   6.424   6.194  12.420  0.2567 -0.8689 -0.2143
 8935TIP3    H251001   6.344   6.092  12.342 -2.1512  1.8671 -1.4972
 8936TIP3   OH251002   2.608   1.009  12.438  0.0998 -0.1586 -0.4633
 8936TIP3    H151003   2.627   1.083  12.382 -0.7357 -0.7293 -1.5383
 8936TIP3    H251004   2.686   1.000  12.493  0.7949  0.6310 -1.2828
 8937TIP3   OH251005   0.210   7.299  11.003 -0.2732  0.3996  0.2621
 8937TIP3    H151006   0.166   7.338  11.079  1.6609  2.4975  0.4153
 8937TIP3    H251007   0.201   7.365  10.935 -1.6656 -1.3039 -1.3124
 8938TIP3   OH251008   5.962   3.793  10.966  0.4440 -0.5604 -0.2519
 8938TIP3    H151009   5.903   3.868  10.966  1.3362  0.1827 -1.6590
 8938TIP3    H251010   5.969   3.767  11.058 -1.2484 -0.0305  0.0465
 8939TIP3   OH251011   7.261   2.321  13.292 -0.1788  0.0015  0.0882
 8939TIP3    H151012   7.302   2.271  13.363  0.8614 -0.0967 -0.5691
 8939TIP3    H251013   7.263   2.263  13.216  1.8664  1.2852 -0.9303
 8940TIP3   OH251014   5.608   1.507  10.903 -0.2848  0.7386 -1.1579
 8940TIP3    H151015   5.598   1.417  10.934 -1.3213  1.2401  0.0529
 8940TIP3    H251016   5.555   1.560  10.964 -0.1412  2.1043 -2.1626
 8941TIP3   OH251017   4.614   7.475  12.926  0.8018  0.5519 -0.3312
 8941TIP3    H151018   4.649   7.454  13.012 -3.2501 -0.9532  1.1618
 8941TIP3    H251019   4.602   7.570  12.927 -0.8978  0.3653  1.5701
 8942TIP3   OH251020   5.559   1.316  11.111  0.4101 -0.4829  0.2070
 8942TIP3    H151021   5.490   1.256  11.139 -0.5546  0.2386 -0.5912
 8942TIP3    H251022   5.527   1.403  11.137  1.7417 -0.2652  1.2565
 8943TIP3   OH251023   5.844   6.529  11.961  0.3558 -0.2427  0.6097
 8943TIP3    H151024   5.911   6.486  12.013 -0.2981 -0.5013  1.2401
 8943TIP3    H251025   5.791   6.578  12.024 -0.0626 -0.0509  0.1235
 8944TIP3   OH251026   7.454   6.472  12.543 -0.1877 -0.3105 -0.2056
 8944TIP3    H151027   7.445   6.540  12.610  0.2544  0.4442 -0.9022
 8944TIP3    H251028   7.483   6.518  12.465  0.1277 -1.3080 -0.6962
 8945TIP3   OH251029   5.256   2.728  10.955 -0.0514 -0.0069  0.2037
 8945TIP3    H151030   5.263   2.801  10.893  1.0466 -0.6236 -0.4335
 8945TIP3    H251031   5.228   2.654  10.902  0.1980 -0.3730  0.5804
 8946TIP3   OH251032   2.227   1.364  11.023 -0.3199 -0.8046 -0.6574
 8946TIP3    H151033   2.270   1.373  11.108  1.6660 -0.0487 -1.6873
 8946TIP3    H251034   2.231   1.451  10.984 -1.1882 -1.1410 -1.5530
 8947TIP3   OH251035   2.803   5.313  10.749  0.1519 -0.0768 -0.1319
 8947TIP3    H151036   2.781   5.391  10.697 -3.2933  0.5062  1.9218
 8947TIP3    H251037   2.742   5.246  10.718  0.6102 -0.8558  0.6315
 8948TIP3   OH251038   7.420   6.183  11.356 -0.3222 -0.5059 -0.1788
 8948TIP3    H151039   7.456   6.227  11.279 -0.6830  2.5231  1.2361
 8948TIP3    H251040   7.336   6.226  11.371  0.0952 -0.4348  2.3599
 8949TIP3   OH251041   7.617   0.707  11.252  0.3784 -0.1592  0.2045
 8949TIP3    H151042   7.523   0.715  11.236  0.6918  1.0394 -1.2919
 8949TIP3    H251043   7.646   0.797  11.269  1.3077 -0.4619  0.2612
 8950TIP3   OH251044   6.439   0.145  12.171  0.2205  0.5424  0.0098
 8950TIP3    H151045   6.532   0.159  12.190  0.5676 -0.4718 -0.8257
 8950TIP3    H251046   6.406   0.232  12.147  0.3347  1.4095  2.6442
 8951TIP3   OH251047   4.920   6.484  10.946  0.0791  0.2675 -0.5360
 8951TIP3    H151048   4.901   6.565  10.899  0.1582  0.0337 -0.9830
 8951TIP3    H251049   5.009   6.460  10.918  0.0555  0.0270 -0.4107
 8952TIP3   OH251050   0.308   5.636  12.224  0.0727  0.0013 -0.2802
 8952TIP3    H151051   0.398   5.665  12.237  0.2360 -0.2704 -0.7886
 8952TIP3    H251052   0.280   5.680  12.144  0.0669 -0.6404 -0.6374
 8953TIP3   OH251053   6.432   7.651  12.432  0.2297  0.3805 -0.1742
 8953TIP3    H151054   6.460   7.681  12.346  0.0680 -0.7427 -0.6242
 8953TIP3    H251055   6.458   7.559  12.436  2.7709  1.0771  2.0583
 8954TIP3   OH251056   1.333   1.605  11.636 -0.4347 -0.4308  0.5203
 8954TIP3    H151057   1.307   1.625  11.726 -0.5058  1.1009  0.1783
 8954TIP3    H251058   1.260   1.555  11.600 -1.9126  1.7582  0.3158
 8955TIP3   OH251059   4.501   3.606  11.801 -0.1822  0.3218  0.2838
 8955TIP3    H151060   4.462   3.555  11.873  0.9952  0.1843  0.8531
 8955TIP3    H251061   4.465   3.567  11.722 -0.0621 -0.7809  0.7459
 8956TIP3   OH251062   5.560   2.838  11.864 -0.3469  0.4869 -0.0539
 8956TIP3    H151063   5.564   2.920  11.816  0.8969  1.9115  2.3329
 8956TIP3    H251064   5.469   2.832  11.894 -0.2762  1.3580  0.3578
 8957TIP3   OH251065   2.308   5.361  12.742 -0.5107 -0.1886  0.4056
 8957TIP3    H151066   2.377   5.306  12.704 -0.7953 -0.5060  0.3494
 8957TIP3    H251067   2.345   5.390  12.826 -0.7611 -1.3270  0.9402
 8958TIP3   OH251068   1.228   2.515  11.997 -0.3241  0.2100  0.1746
 8958TIP3    H151069   1.190   2.427  11.994 -0.1734  0.1556 -0.1241
 8958TIP3    H251070   1.189   2.555  12.075 -2.5026  0.8396 -1.1458
 8959TIP3   OH251071   4.945   6.074  12.675  0.2823  0.1454  0.1522
 8959TIP3    H151072   4.965   6.160  12.712  0.7228  0.9067 -1.7396
 8959TIP3    H251073   5.006   6.065  12.602 -1.8042 -0.4292 -1.6096
 8960TIP3   OH251074   3.081   0.661  10.980  0.5612  0.5562  0.1049
 8960TIP3    H151075   3.045   0.732  10.927 -0.2917 -0.5819 -0.8903
 8960TIP3    H251076   3.025   0.657  11.057 -2.6473 -2.1235 -2.0489
 8961TIP3   OH251077   4.191   6.283  12.149  0.0248 -0.2981  0.0353
 8961TIP3    H151078   4.204   6.369  12.108  2.2696 -0.7613 -0.3741
 8961TIP3    H251079   4.154   6.229  12.080  2.3205 -0.6511 -1.0234
 8962TIP3   OH251080   2.050   6.614  10.818 -0.1881 -0.8407  0.6954
 8962TIP3    H151081   2.022   6.523  10.826  1.1948 -1.2322  1.5265
 8962TIP3    H251082   2.127   6.620  10.875 -0.5346  0.9784  1.0144
 8963TIP3   OH251083   6.998   6.315  10.738 -0.0156 -0.0462  0.3642
 8963TIP3    H151084   7.004   6.376  10.664  1.0824  1.4587  1.6264
 8963TIP3    H251085   7.021   6.230  10.701  0.5699  0.6801 -1.0058
 8964TIP3   OH251086   2.860   0.433  10.429 -0.4457 -0.7396 -0.3835
 8964TIP3    H151087   2.905   0.373  10.371 -0.8466 -0.9270 -0.5033
 8964TIP3    H251088   2.804   0.377  10.483 -0.7169 -0.4900 -0.4017
 8965TIP3   OH251089   7.558   0.029  12.093  0.3820 -0.2942 -0.5886
 8965TIP3    H151090   7.527  -0.013  12.173 -1.6231 -0.1868 -1.2623
 8965TIP3    H251091   7.546  -0.037  12.024  1.6473 -0.2243 -0.8993
 8966TIP3   OH251092   1.253   7.508  10.881 -0.5442  0.6702  0.3129
 8966TIP3    H151093   1.323   7.564  10.850  0.0287  0.2565  0.8265
 8966TIP3    H251094   1.292   7.458  10.953 -1.1140 -0.1753  0.0609
 8967TIP3   OH251095   1.693   2.630  12.112 -0.3768 -0.0035  0.1509
 8967TIP3    H151096   1.631   2.565  12.146  0.3131  0.2016  1.9195
 8967TIP3    H251097   1.778   2.602  12.147  0.6606 -0.4773 -2.4667
 8968TIP3   OH251098   7.139   1.310  13.274  0.1329  0.2643 -0.1816
 8968TIP3    H151099   7.095   1.231  13.305  0.4310 -0.1141 -0.7002
 8968TIP3    H251100   7.218   1.277  13.231 -0.5096  0.7270 -1.7802
 8969TIP3   OH251101   3.517   1.951  10.903 -0.4519  0.2774  0.0623
 8969TIP3    H151102   3.591   1.890  10.902 -1.1542 -0.6639  1.6436
 8969TIP3    H251103   3.442   1.898  10.875 -0.8575  0.7516  0.2473
 8970TIP3   OH251104   5.197   2.942  12.745 -0.1327  0.2563 -0.3577
 8970TIP3    H151105   5.128   2.886  12.780 -0.7084  0.8636 -0.5144
 8970TIP3    H251106   5.278   2.893  12.763 -0.5140 -0.0361  0.6628
 8971TIP3   OH251107   6.238   2.703  10.685  0.2968 -0.0509 -0.0143
 8971TIP3    H151108   6.315   2.731  10.636  0.2123 -1.2748 -0.9023
 8971TIP3    H251109   6.271   2.685  10.773  0.4523  2.1719  0.4363
 8972TIP3   OH251110   2.076   2.567  10.942  0.0300 -0.8528  0.1473
 8972TIP3    H151111   2.099   2.523  10.860  1.6707 -1.3704  0.8426
 8972TIP3    H251112   2.155   2.560  10.996  0.2124  2.4609  0.5188
 8973TIP3   OH251113   7.104   5.199  12.096  0.2399 -0.1327 -0.0277
 8973TIP3    H151114   7.146   5.171  12.015 -1.9558  0.8690 -1.6064
 8973TIP3    H251115   7.065   5.120  12.132 -0.9967 -0.1556 -1.3713
 8974TIP3   OH251116   5.273   4.901  12.860 -0.2565 -0.7602  0.2108
 8974TIP3    H151117   5.295   4.847  12.935  0.8580 -0.8457 -0.1675
 8974TIP3    H251118   5.355   4.913  12.813 -0.5778  0.7823 -0.0344
 8975TIP3   OH251119   1.848   7.656  11.390 -0.2724 -0.4360 -1.0015
 8975TIP3    H151120   1.761   7.690  11.412 -0.1157 -0.8886  0.4076
 8975TIP3    H251121   1.898   7.666  11.471  0.1404 -2.8686 -0.8922
 8976TIP3   OH251122   6.859   4.201  10.341 -0.1812 -0.3002  0.3275
 8976TIP3    H151123   6.867   4.159  10.256 -1.8913  0.5468 -0.2988
 8976TIP3    H251124   6.825   4.133  10.398  0.5952 -0.7626  0.2505
 8977TIP3   OH251125   4.841   5.324  12.374  0.1931  0.5787 -0.3928
 8977TIP3    H151126   4.813   5.415  12.360 -1.1282  0.3614  0.5503
 8977TIP3    H251127   4.919   5.331  12.429 -0.2648  1.1491  0.2049
 8978TIP3   OH251128   4.219   0.668  11.454  1.0144  0.3891 -0.2785
 8978TIP3    H151129   4.282   0.660  11.382 -0.0707 -0.1018 -1.2049
 8978TIP3    H251130   4.177   0.753  11.438  0.5528  0.1360 -0.4021
 8979TIP3   OH251131   6.443   3.482  12.698  0.0435  0.2744  0.0730
 8979TIP3    H151132   6.386   3.559  12.689 -0.6535  0.2252  2.9877
 8979TIP3    H251133   6.382   3.408  12.701  0.3243  0.0703  1.6007
 8980TIP3   OH251134   5.564   7.406  12.862 -0.0512 -0.1808 -0.0741
 8980TIP3    H151135   5.524   7.458  12.932 -2.4627 -1.9943  0.0588
 8980TIP3    H251136   5.527   7.443  12.782 -0.7111 -0.8146 -0.0680
 8981TIP3   OH251137   1.789   7.018  11.606 -0.9735  0.1510  0.6055
 8981TIP3    H151138   1.860   6.980  11.659 -0.9257  0.6847  0.9339
 8981TIP3    H251139   1.782   7.108  11.637 -2.8475 -0.3085  1.6985
 8982TIP3   OH251140   0.846   1.917  12.028 -0.3940 -0.2123 -0.2987
 8982TIP3    H151141   0.771   1.949  12.079  0.2315  0.1188  0.4363
 8982TIP3    H251142   0.807   1.864  11.959 -1.3772  0.8519 -0.5960
 8983TIP3   OH251143   6.580   1.347  11.751  0.1390 -0.6314 -0.1742
 8983TIP3    H151144   6.540   1.371  11.667  0.4737  0.8917  0.0584
 8983TIP3    H251145   6.654   1.407  11.759  0.5110 -1.2223  0.8995
 8984TIP3   OH251146   1.881   4.637  11.401 -0.4782 -0.0585 -0.0443
 8984TIP3    H151147   1.874   4.568  11.336  0.5653 -1.2855  1.0831
 8984TIP3    H251148   1.971   4.669  11.392 -0.4120 -0.0461  0.5954
 8985TIP3   OH251149   7.231   4.540  12.503 -0.2585 -0.1515 -0.0980
 8985TIP3    H151150   7.141   4.529  12.472 -0.5660 -0.6675  0.9477
 8985TIP3    H251151   7.283   4.483  12.446 -0.8452 -1.2713  0.4684
 8986TIP3   OH251152   0.874   1.884  11.194 -0.1279 -0.4544  0.5618
 8986TIP3    H151153   0.850   1.976  11.204 -0.6584 -0.7024  1.8001
 8986TIP3    H251154   0.801   1.836  11.234 -1.0362 -1.5427 -2.1529
 8987TIP3   OH251155   4.518   0.509  12.159  0.1204  0.4354 -0.2552
 8987TIP3    H151156   4.542   0.513  12.067 -1.6401 -0.0192 -0.7686
 8987TIP3    H251157   4.586   0.561  12.203  0.9968  0.6584 -1.7801
 8988TIP3   OH251158   5.837   5.953  10.715  0.5975 -0.7573  0.0187
 8988TIP3    H151159   5.858   5.940  10.807  1.8758 -1.9777 -0.4010
 8988TIP3    H251160   5.921   5.940  10.670 -0.1303 -0.8236 -1.3601
 8989TIP3   OH251161   5.571   5.665  11.582 -0.7272  0.0919 -0.0605
 8989TIP3    H151162   5.614   5.584  11.558  1.1180  1.0916 -0.3256
 8989TIP3    H251163   5.605   5.686  11.669 -2.1609 -0.0290  0.5669
 8990TIP3   OH251164   0.226   0.549  12.894  0.4088 -0.1620  0.0449
 8990TIP3    H151165   0.255   0.458  12.905 -0.7723 -0.6862 -0.9958
 8990TIP3    H251166   0.149   0.556  12.950  0.7169  0.3281  0.4173
 8991TIP3   OH251167   3.426   7.105  12.065  0.0783 -0.0225  0.8073
 8991TIP3    H151168   3.419   7.022  12.111 -0.8794 -0.1131  0.5251
 8991TIP3    H251169   3.492   7.090  11.998 -0.3391 -0.6779  0.5310
 8992TIP3   OH251170   5.641   3.309  11.875 -0.6159  0.1286  0.6974
 8992TIP3    H151171   5.555   3.269  11.864 -0.7872  0.1520  1.9075
 8992TIP3    H251172   5.628   3.401  11.850 -0.9273  0.1275  0.8581
 8993TIP3   OH251173   7.476   3.724  10.790  0.4588  0.0664  0.5268
 8993TIP3    H151174   7.391   3.681  10.801 -0.3241  1.5817  0.7721
 8993TIP3    H251175   7.503   3.703  10.701 -0.4885  0.0896  0.2262
 8994TIP3   OH251176   0.208   5.665  11.706 -0.7929 -0.2656 -0.0421
 8994TIP3    H151177   0.251   5.728  11.764 -1.1745  0.6146 -0.6841
 8994TIP3    H251178   0.271   5.651  11.635  1.0611 -3.7656  2.0218
 8995TIP3   OH251179   6.323   3.615  11.952  0.0973  0.4861  0.3291
 8995TIP3    H151180   6.384   3.563  11.899 -0.0964  0.1719  0.4114
 8995TIP3    H251181   6.237   3.582  11.928  0.0628 -0.6825  1.8839
 8996TIP3   OH251182   3.718   2.598  11.761  0.0584  0.4874 -0.5096
 8996TIP3    H151183   3.642   2.546  11.738 -0.7757  0.3080  2.2773
 8996TIP3    H251184   3.701   2.627  11.851  3.4397  0.1059  0.3876
 8997TIP3   OH251185   2.828   2.207  10.846 -0.3131 -0.4632 -0.3526
 8997TIP3    H151186   2.822   2.128  10.792 -0.9497 -0.8310  0.2311
 8997TIP3    H251187   2.819   2.175  10.936 -0.2482  0.2386 -0.0888
 8998TIP3   OH251188   4.572   2.428  12.525  0.0454 -0.2722 -0.0049
 8998TIP3    H151189   4.516   2.355  12.551 -0.2963  0.5374  1.5920
 8998TIP3    H251190   4.608   2.461  12.607  1.1832  0.5777 -0.8224
 8999TIP3   OH251191   5.221   5.512  12.164 -0.3021 -0.2763 -0.0501
 8999TIP3    H151192   5.241   5.498  12.257 -1.5711 -1.5437  0.0560
 8999TIP3    H251193   5.176   5.596  12.162 -0.2324 -0.2208  0.4674
 9000TIP3   OH251194   7.274   1.432  13.011 -0.5659  0.2838  0.2315
 9000TIP3    H151195   7.279   1.517  13.054  1.0010 -0.2030  1.0961
 9000TIP3    H251196   7.320   1.372  13.069 -0.1983 -0.8392 -1.1366
 9001TIP3   OH251197   4.576   3.415  12.437  0.7935 -0.5809  0.1291
 9001TIP3    H151198   4.645   3.480  12.454 -0.2203  1.0562 -1.5855
 9001TIP3    H251199   4.507   3.465  12.393 -1.5122 -2.1553  1.7070
 9002TIP3   OH251200   1.778   7.240  11.913  0.1197 -0.2762  0.0925
 9002TIP3    H151201   1.728   7.305  11.962 -0.0891 -1.2130  1.1508
 9002TIP3    H251202   1.864   7.240  11.955  0.0033 -0.9426  0.3388
 9003TIP3   OH251203   3.296   7.506  11.332 -0.1895 -0.0466 -0.4534
 9003TIP3    H151204   3.209   7.534  11.358 -0.4701 -0.3858 -1.0243
 9003TIP3    H251205   3.286   7.414  11.308  0.6820 -0.6342  1.2439
 9004TIP3   OH251206   1.203   2.083  12.809 -0.1092 -0.0724 -0.2447
 9004TIP3    H151207   1.281   2.030  12.798  0.5313  0.5419  1.1108
 9004TIP3    H251208   1.234   2.166  12.846 -1.0843  1.2701 -2.2000
 9005TIP3   OH251209   6.716   2.130  11.407 -0.2859 -0.2098 -0.5588
 9005TIP3    H151210   6.763   2.159  11.330 -1.5148  2.2646 -0.4842
 9005TIP3    H251211   6.624   2.150  11.388 -0.5111  1.8196  1.9814
 9006TIP3   OH251212   2.673   6.386  12.016 -0.0851  0.1568 -0.0985
 9006TIP3    H151213   2.626   6.303  12.017 -3.0960  1.6868  1.1413
 9006TIP3    H251214   2.638   6.432  11.939 -0.7944  1.3677  0.9046
 9007TIP3   OH251215   5.021   1.150  11.986 -0.0270  0.2814  0.7893
 9007TIP3    H151216   5.100   1.136  11.934  0.0531  0.2930  0.9079
 9007TIP3    H251217   5.001   1.243  11.975 -1.5385 -0.2181 -1.3974
 9008TIP3   OH251218   5.472   2.482  12.692  0.1734  0.7946 -0.1208
 9008TIP3    H151219   5.550   2.470  12.747 -0.4589  1.5790  0.9850
 9008TIP3    H251220   5.501   2.459  12.604  0.5776 -2.9622  0.8391
 9009TIP3   OH251221   5.633   3.603  11.174  0.4156  0.5602 -0.0669
 9009TIP3    H151222   5.539   3.614  11.165  0.5626  2.0628 -0.0366
 9009TIP3    H251223   5.664   3.687  11.210  1.4937 -0.6292  2.0119
 9010TIP3   OH251224   3.498   2.777  11.532 -0.6712  0.4247  0.0411
 9010TIP3    H151225   3.579   2.798  11.578  0.1467  0.3261 -1.2948
 9010TIP3    H251226   3.513   2.806  11.442 -1.3925 -1.3389 -0.6907
 9011TIP3   OH251227   7.550   3.759  11.049  0.0543 -0.0460  0.3071
 9011TIP3    H151228   7.471   3.789  11.094 -0.0670  0.4804 -0.2552
 9011TIP3    H251229   7.520   3.734  10.962  0.2243 -1.3989  0.6052
 9012TIP3   OH251230   4.583   0.855  11.672  0.1208 -0.4047  0.0196
 9012TIP3    H151231   4.593   0.903  11.590 -3.2087 -0.5119 -0.6065
 9012TIP3    H251232   4.503   0.803  11.660 -2.1698  1.6105  4.1554
 9013TIP3   OH251233   1.129   4.257  12.243 -0.1458  0.1535 -0.0641
 9013TIP3    H151234   1.039   4.257  12.276 -0.6431  0.6801 -1.3812
 9013TIP3    H251235   1.148   4.165  12.226 -0.4340  0.0406  0.2175
 9014TIP3   OH251236   5.098   4.638  11.516 -0.3041 -1.1792  0.3786
 9014TIP3    H151237   5.098   4.713  11.457 -0.0140 -1.1930  0.3638
 9014TIP3    H251238   5.146   4.667  11.593  2.4952 -2.2999 -0.8324
 9015TIP3   OH251239   5.209   6.197  10.556 -0.4325  0.3747  0.6031
 9015TIP3    H151240   5.159   6.211  10.475 -0.5508 -0.3370  0.5470
 9015TIP3    H251241   5.147   6.219  10.626 -0.9212 -0.7625  0.5411
 9016TIP3   OH251242   2.116   3.784  11.526  0.0184 -0.2272 -0.1221
 9016TIP3    H151243   2.102   3.878  11.532 -0.4450 -0.1790 -1.4751
 9016TIP3    H251244   2.033   3.745  11.556  0.0954 -0.1878  0.1369
 9017TIP3   OH251245   3.355   1.136  13.430  0.2683 -0.0399 -0.3555
 9017TIP3    H151246   3.296   1.063  13.414 -0.7476  0.8232 -0.6237
 9017TIP3    H251247   3.378   1.128  13.523 -1.0613  0.1753  0.0132
 9018TIP3   OH251248   2.176   2.105  11.330  0.2237 -0.1515  0.0832
 9018TIP3    H151249   2.198   2.159  11.254 -1.3661 -0.2544 -0.4912
 9018TIP3    H251250   2.216   2.150  11.404  0.6277  0.7141 -0.6396
 9019TIP3   OH251251   4.382   6.634  12.965  0.2044  0.1168  0.6562
 9019TIP3    H151252   4.338   6.663  13.045  0.6084 -0.2683  1.0261
 9019TIP3    H251253   4.344   6.547  12.947  0.3374  0.0696  0.6024
 9020TIP3   OH251254   3.736   5.986  11.294  0.5705 -0.2569 -0.8538
 9020TIP3    H151255   3.657   5.939  11.266 -0.4865  1.7555 -1.4767
 9020TIP3    H251256   3.713   6.078  11.285  2.1092  0.4489  1.4909
 9021TIP3   OH251257   2.478   0.589  13.071  0.2158  0.4170  0.4230
 9021TIP3    H151258   2.425   0.647  13.015 -0.5735 -0.7446 -0.0676
 9021TIP3    H251259   2.493   0.511  13.017  2.0768  0.5355  0.7299
 9022TIP3   OH251260   5.735   1.609  12.011  0.1960 -0.6230  0.4011
 9022TIP3    H151261   5.734   1.519  12.043  0.0234 -1.0716 -0.8387
 9022TIP3    H251262   5.671   1.655  12.067 -1.5595 -1.8359 -0.5445
 9023TIP3   OH251263   7.626   1.965  12.030 -0.0153  0.3395 -0.5279
 9023TIP3    H151264   7.568   1.996  11.960  0.1803 -0.0456 -0.8675
 9023TIP3    H251265   7.674   2.044  12.058 -0.3287  0.5580 -0.6024
 9024TIP3   OH251266   7.557   5.988  10.862  0.2742  0.2647 -0.0246
 9024TIP3    H151267   7.504   6.052  10.911 -1.2791 -1.2680  0.4305
 9024TIP3    H251268   7.631   6.038  10.828 -0.8478  2.2748  0.3381
 9025TIP3   OH251269   1.063   3.451  12.267 -0.2228  0.0687  0.5293
 9025TIP3    H151270   1.120   3.528  12.265 -0.1987  0.0390 -0.4606
 9025TIP3    H251271   1.045   3.437  12.360 -0.6823  1.5997  0.6980
 9026TIP3   OH251272   2.084   0.634  11.302  0.8939 -0.4751  0.1707
 9026TIP3    H151273   2.113   0.672  11.385  1.9733  0.2393 -0.5062
 9026TIP3    H251274   2.142   0.673  11.237 -0.6345 -0.1934 -1.0627
 9027TIP3   OH251275   2.486   4.343  12.177 -0.2203 -0.2491  0.6687
 9027TIP3    H151276   2.482   4.392  12.259 -0.6147  1.7968 -0.5055
 9027TIP3    H251277   2.397   4.344  12.143  0.3025  0.7652 -0.7710
 9028TIP3   OH251278   0.716   4.178  10.310 -0.4776 -0.3648 -0.1930
 9028TIP3    H151279   0.791   4.157  10.254  0.2170  0.6994  0.3020
 9028TIP3    H251280   0.657   4.104  10.300 -0.8903  0.2576 -3.1991
 9029TIP3   OH251281   0.554   0.290  11.465  0.4314 -0.3599 -0.0060
 9029TIP3    H151282   0.459   0.285  11.454  0.1681 -1.2226  2.2322
 9029TIP3    H251283   0.586   0.318  11.379 -1.9593  1.7467 -0.3237
 9030TIP3   OH251284   6.398   0.195  10.803 -0.0127 -0.5334 -0.0425
 9030TIP3    H151285   6.307   0.170  10.821  0.1761 -0.1634  1.5853
 9030TIP3    H251286   6.391   0.263  10.736 -0.9317 -0.6400 -0.0661
 9031TIP3   OH251287   4.118   0.862  12.333 -0.0654  0.2604  0.2244
 9031TIP3    H151288   4.173   0.797  12.289 -0.5165  1.1394 -1.6898
 9031TIP3    H251289   4.041   0.813  12.360  1.6350 -1.0705  3.2316
 9032TIP3   OH251290   7.429   3.824  11.997 -0.6621 -0.0419 -0.2362
 9032TIP3    H151291   7.368   3.790  11.932 -1.1080  0.5719 -0.1452
 9032TIP3    H251292   7.457   3.746  12.046 -0.6368 -0.4487 -0.8920
 9033TIP3   OH251293   0.877   1.821  11.492 -0.3740 -0.1628 -0.0819
 9033TIP3    H151294   0.840   1.795  11.576 -1.4616 -2.0376 -1.0769
 9033TIP3    H251295   0.950   1.879  11.515 -1.9024  1.0635  2.0462
 9034TIP3   OH251296   0.098   4.246  11.205  0.3254  0.9227 -0.1741
 9034TIP3    H151297   0.135   4.165  11.239  0.6437  1.0542 -0.2131
 9034TIP3    H251298   0.059   4.289  11.281 -2.5929 -0.7172 -0.5884
 9035TIP3   OH251299   3.920   1.590  10.187 -0.2254  0.4557  0.2550
 9035TIP3    H151300   3.994   1.592  10.126  2.3934 -1.0269  3.1118
 9035TIP3    H251301   3.926   1.672  10.235 -1.0766  0.7477 -0.1090
 9036TIP3   OH251302   5.012   5.089  12.196  0.0462  0.2302 -0.1786
 9036TIP3    H151303   4.982   5.174  12.165 -0.4346  0.0696 -0.1684
 9036TIP3    H251304   4.956   5.070  12.271  1.5457  0.8492  1.1378
 9037TIP3   OH251305   7.035   2.364  11.871  0.6244  0.1290 -0.5088
 9037TIP3    H151306   6.979   2.370  11.793 -1.2921  1.9083  0.8682
 9037TIP3    H251307   6.982   2.315  11.934  1.8601 -0.6905 -0.0793
 9038TIP3   OH251308   6.820   7.566  10.732 -0.9498 -0.0672  0.1931
 9038TIP3    H151309   6.885   7.636  10.731 -1.4138  0.3642 -0.6047
 9038TIP3    H251310   6.856   7.498  10.675 -2.3342  1.2771 -2.4851
 9039TIP3   OH251311   2.980   6.214  13.576 -0.2369  0.1612 -0.0175
 9039TIP3    H151312   2.941   6.196  13.491  0.6884  1.2001 -0.6897
 9039TIP3    H251313   3.069   6.180  13.569 -0.7697 -1.6636  1.2959
 9040TIP3   OH251314   2.863   1.842  11.562 -0.3399 -0.3468 -0.4477
 9040TIP3    H151315   2.823   1.792  11.632 -0.0843 -0.1926 -0.1902
 9040TIP3    H251316   2.957   1.834  11.578 -0.2037 -1.5999 -1.6487
 9041TIP3   OH251317   1.795   5.640  12.271 -0.2833 -0.1966  0.4959
 9041TIP3    H151318   1.804   5.571  12.204 -0.9139  1.4285 -1.3499
 9041TIP3    H251319   1.748   5.597  12.343 -0.8231 -1.6645 -0.6729
 9042TIP3   OH251320   4.149   3.860  11.893 -0.3020  0.0168  0.5513
 9042TIP3    H151321   4.139   3.765  11.888  0.7185 -0.1239  0.9082
 9042TIP3    H251322   4.171   3.888  11.804 -0.3574 -0.1195  0.4962
 9043TIP3   OH251323   6.714   2.459  12.092  0.0484 -0.0866 -0.0877
 9043TIP3    H151324   6.764   2.393  12.140 -0.4265  1.1258  2.1830
 9043TIP3    H251325   6.632   2.467  12.140 -0.6730  0.8582 -1.4095
 9044TIP3   OH251326   2.305   3.984  12.014 -0.6601 -0.2640  0.1485
 9044TIP3    H151327   2.289   3.917  11.947  0.9561 -0.2348 -0.3117
 9044TIP3    H251328   2.232   4.045  12.004 -2.6759 -2.3601  1.1669
 9045TIP3   OH251329   6.908   7.491  11.193 -0.1703  0.3198  0.0560
 9045TIP3    H151330   6.922   7.427  11.123  2.1104 -1.1186  1.6913
 9045TIP3    H251331   6.988   7.488  11.245 -1.3997  1.9875  2.2262
 9046TIP3   OH251332   3.793   1.093  11.495  0.0964  0.1789  0.0373
 9046TIP3    H151333   3.758   1.007  11.470  1.3505 -0.6988  1.1772
 9046TIP3    H251334   3.884   1.092  11.463 -0.3425  1.7828 -1.4467
 9047TIP3   OH251335   7.355   2.749  10.924 -0.1818  0.0341 -0.0370
 9047TIP3    H151336   7.378   2.813  10.857  0.8703 -1.5064 -1.2335
 9047TIP3    H251337   7.270   2.778  10.957 -0.7577  0.8369 -2.0746
 9048TIP3   OH251338   4.163   7.492  12.685  0.8136  0.7253  0.3200
 9048TIP3    H151339   4.255   7.491  12.657  0.9443  0.1369  0.7599
 9048TIP3    H251340   4.155   7.418  12.744 -0.6554 -1.0881 -1.9504
 9049TIP3   OH251341   5.399   2.797  10.266 -0.4005 -0.4958  0.2011
 9049TIP3    H151342   5.434   2.776  10.180 -0.1283 -0.8456  0.3934
 9049TIP3    H251343   5.383   2.891  10.263  2.6687  0.1797  0.8261
 9050TIP3   OH251344   3.858   6.655  11.081  0.3077 -0.0943 -0.0877
 9050TIP3    H151345   3.892   6.694  11.000  0.6201  0.9083  0.5144
 9050TIP3    H251346   3.815   6.727  11.127  1.3869 -0.2921  1.3110
 9051TIP3   OH251347   3.439   4.070  10.476  0.3761 -0.1691 -0.2241
 9051TIP3    H151348   3.514   4.032  10.431  0.6501  1.8825 -1.6001
 9051TIP3    H251349   3.475   4.144  10.525 -0.8274  1.3630 -1.5687
 9052TIP3   OH251350   3.502   1.476  11.000  0.2548  0.8436  0.3874
 9052TIP3    H151351   3.448   1.429  10.937 -1.4758  1.5295  1.2837
 9052TIP3    H251352   3.537   1.408  11.058 -1.3424  0.4988  1.0174
 9053TIP3   OH251353   2.277   3.069  12.489 -0.2584  0.0490  0.3923
 9053TIP3    H151354   2.284   3.017  12.569 -1.1702 -0.8287 -0.0797
 9053TIP3    H251355   2.263   3.159  12.520  1.2404  0.0322  1.2087
 9054TIP3   OH251356   6.856   5.370  12.196 -0.1291  0.2721  0.9103
 9054TIP3    H151357   6.781   5.354  12.140  0.7582  1.0269 -0.5533
 9054TIP3    H251358   6.931   5.335  12.148  0.9507  2.8163  0.5855
 9055TIP3   OH251359   6.349   0.365  12.042 -0.1125 -0.1782  0.3407
 9055TIP3    H151360   6.329   0.386  11.951  0.6814 -1.2289 -0.0966
 9055TIP3    H251361   6.315   0.439  12.092 -2.1139 -0.3748 -0.6332
 9056TIP3   OH251362   2.540   1.604  11.320 -0.3827 -0.3441 -0.8958
 9056TIP3    H151363   2.550   1.698  11.328 -0.4599 -0.3782 -0.4168
 9056TIP3    H251364   2.521   1.573  11.408 -0.9134 -0.7420 -1.1409
 9057TIP3   OH251365   3.568   1.907  12.028 -0.0605  0.0198  0.6205
 9057TIP3    H151366   3.616   1.825  12.025  2.1510  1.1491  2.1680
 9057TIP3    H251367   3.636   1.974  12.032 -1.7785  1.9660 -0.6890
 9058TIP3   OH251368   0.892   3.882  11.340  0.2397  0.2173  0.3459
 9058TIP3    H151369   0.901   3.871  11.245 -0.5933 -0.8208  0.3645
 9058TIP3    H251370   0.978   3.912  11.369  1.0274 -1.0963 -0.5299
 9059TIP3   OH251371   2.215   4.810  11.055 -0.2279  0.0002  0.3614
 9059TIP3    H151372   2.191   4.795  11.146  1.8264  0.1997  0.9939
 9059TIP3    H251373   2.189   4.730  11.010 -1.0148 -0.2127  1.1719
 9060TIP3   OH251374   0.972   0.044  12.442  0.1094 -0.2928 -0.7230
 9060TIP3    H151375   1.033   0.057  12.514  0.3855  0.2535 -1.0462
 9060TIP3    H251376   0.959  -0.050  12.437  0.5654 -0.3762 -0.3547
 9061TIP3   OH251377   2.933   7.673  12.869 -0.0350  0.3347 -0.1307
 9061TIP3    H151378   2.913   7.733  12.797  0.1361  0.9088  0.2875
 9061TIP3    H251379   2.853   7.622  12.880  0.0413  0.0285 -0.9222
 9062TIP3   OH251380   5.641   4.750  12.599 -0.2509  0.2115 -0.0593
 9062TIP3    H151381   5.661   4.665  12.561 -2.5110  1.0134 -3.5242
 9062TIP3    H251382   5.719   4.803  12.582  0.6148 -0.7209  0.8506
 9063TIP3   OH251383   2.056   3.274  11.570  0.1235  0.0407 -0.0802
 9063TIP3    H151384   2.092   3.209  11.510  0.1383 -0.7122  0.7264
 9063TIP3    H251385   2.042   3.226  11.651 -1.2492  0.7007  0.0881
 9064TIP3   OH251386   3.381   2.724  12.369 -0.0795 -0.1630 -0.8584
 9064TIP3    H151387   3.411   2.710  12.458 -2.2127  0.6625  0.0547
 9064TIP3    H251388   3.455   2.766  12.325  1.2530 -1.2224  0.2938
 9065TIP3   OH251389   3.326   7.396  10.984 -0.3859 -0.1068 -0.4523
 9065TIP3    H151390   3.363   7.482  10.964 -0.1580  0.4421  2.0007
 9065TIP3    H251391   3.233   7.405  10.962 -0.1834  0.4517 -1.1112
 9066TIP3   OH251392   4.463   1.865  11.597  0.3684  0.0607 -0.1608
 9066TIP3    H151393   4.477   1.951  11.637  0.9510  0.0042 -0.2376
 9066TIP3    H251394   4.393   1.826  11.649 -0.9106  1.1448 -1.0111
 9067TIP3   OH251395   4.083   3.172  12.422 -0.0422 -0.0176  0.1122
 9067TIP3    H151396   4.172   3.194  12.451 -0.2543  1.4557 -0.2535
 9067TIP3    H251397   4.049   3.254  12.387 -0.8844 -1.0083 -1.5002
 9068TIP3   OH251398   4.361   6.089  12.708  0.4493 -0.0889  0.3893
 9068TIP3    H151399   4.370   6.052  12.620 -1.7466 -2.6811  1.1336
 9068TIP3    H251400   4.412   6.031  12.764 -0.4108 -0.1074  1.1757
 9069TIP3   OH251401   4.623   6.786  12.300 -0.3927  0.0476 -0.2953
 9069TIP3    H151402   4.570   6.774  12.379 -0.8170  0.2496 -0.5446
 9069TIP3    H251403   4.595   6.716  12.241  1.1876 -1.2173  0.3819
 9070TIP3   OH251404   1.900   5.975  13.426 -0.0409 -0.3404 -0.4488
 9070TIP3    H151405   1.866   6.051  13.474  0.0888 -1.3674  1.3800
 9070TIP3    H251406   1.982   6.005  13.388 -0.1826  0.5464 -0.0737
 9071TIP3   OH251407   3.706   5.435  12.671  0.1053 -0.4610 -0.5112
 9071TIP3    H151408   3.760   5.388  12.736 -1.6956  0.5444  1.8806
 9071TIP3    H251409   3.769   5.485  12.619  1.5637  0.8235  2.2728
 9072TIP3   OH251410   7.450   6.307  11.786  0.0231 -0.4050  0.3343
 9072TIP3    H151411   7.512   6.236  11.774  1.0340  0.5896 -0.5022
 9072TIP3    H251412   7.462   6.335  11.876 -0.2966 -1.2081  0.6311
 9073TIP3   OH251413   3.993   5.222  12.409  0.2862  0.2364 -0.1718
 9073TIP3    H151414   3.948   5.141  12.432  0.8558  0.4480  1.8245
 9073TIP3    H251415   4.085   5.202  12.422  0.6649  0.4786 -2.1336
 9074TIP3   OH251416   3.606   4.548  12.031  0.7826 -0.0359 -0.0694
 9074TIP3    H151417   3.555   4.617  11.988  0.4359  0.4631  1.0752
 9074TIP3    H251418   3.678   4.529  11.971  0.7253  1.1433 -0.5334
 9075TIP3   OH251419   3.439   2.851  10.698 -0.1996 -0.0202  0.3725
 9075TIP3    H151420   3.360   2.900  10.676  0.7462  1.2207 -0.3980
 9075TIP3    H251421   3.433   2.771  10.646 -0.5702  0.4263 -0.2809
 9076TIP3   OH251422   5.744   1.451  10.644  0.2533  0.3084 -0.0100
 9076TIP3    H151423   5.715   1.493  10.725  0.3659  1.2397 -0.4420
 9076TIP3    H251424   5.665   1.445  10.591  0.5951  1.8252 -0.7411
 9077TIP3   OH251425   3.634   0.676  12.621 -0.4630  0.8170 -0.0839
 9077TIP3    H151426   3.621   0.664  12.715 -2.1697 -0.9974 -0.4778
 9077TIP3    H251427   3.719   0.718  12.613 -0.6150  1.6748  2.2950
 9078TIP3   OH251428   7.489   2.780  12.055 -0.0523  0.1748  0.1333
 9078TIP3    H151429   7.452   2.866  12.035  2.3703  0.9633 -1.4240
 9078TIP3    H251430   7.524   2.749  11.971  1.2550 -1.1955  1.1352
 9079TIP3   OH251431   1.549   3.717  11.543 -0.0926 -0.1348 -0.1785
 9079TIP3    H151432   1.505   3.773  11.607 -0.4799  0.5606 -1.0364
 9079TIP3    H251433   1.507   3.632  11.554 -1.1418  0.3260 -0.4496
 9080TIP3   OH251434   4.419   7.465  12.617 -0.1765 -0.7618 -0.3577
 9080TIP3    H151435   4.460   7.392  12.571 -0.9646 -1.2309 -0.3367
 9080TIP3    H251436   4.464   7.543  12.585  0.1634 -1.1947 -0.9445
 9081TIP3   OH251437   5.084   4.115  11.714 -0.0188  0.1980 -0.1527
 9081TIP3    H151438   5.005   4.067  11.686  0.3906  0.5377 -2.0084
 9081TIP3    H251439   5.050   4.189  11.765 -0.9262  0.4466 -1.0856
 9082TIP3   OH251440   0.949   6.647  12.352  0.0093  0.0430 -0.0041
 9082TIP3    H151441   0.977   6.557  12.366  1.8892  0.6545  0.5015
 9082TIP3    H251442   0.974   6.666  12.262 -0.2370  0.0998 -0.0590
 9083TIP3   OH251443   6.923   7.322  10.955  0.1081  0.2780  0.0944
 9083TIP3    H151444   6.838   7.296  10.990  0.5912 -0.6898  0.5961
 9083TIP3    H251445   6.919   7.300  10.862  0.1421 -0.6868  0.3098
 9084TIP3   OH251446   2.148   0.601  12.418  0.0869  0.1302 -0.5666
 9084TIP3    H151447   2.201   0.539  12.368  0.6920  0.7438 -0.7043
 9084TIP3    H251448   2.126   0.670  12.355 -1.3437 -0.3741 -0.6572
 9085TIP3   OH251449   5.790   4.908  11.665 -0.0708  0.2934 -0.2973
 9085TIP3    H151450   5.881   4.888  11.642  0.8797  2.0744  1.6214
 9085TIP3    H251451   5.751   4.823  11.685  1.2146 -0.4748 -0.9125
 9086TIP3   OH251452   3.338   5.335  12.126 -0.1157 -0.0379 -0.1215
 9086TIP3    H151453   3.362   5.290  12.207 -2.6023 -1.5825 -0.1246
 9086TIP3    H251454   3.336   5.265  12.060  1.8243  1.1816 -1.5643
 9087TIP3   OH251455   4.855   6.029  10.850 -0.2846 -0.1068 -0.1088
 9087TIP3    H151456   4.766   6.061  10.835  0.1137  0.7658 -0.7046
 9087TIP3    H251457   4.874   5.975  10.773  0.3950  1.3064 -0.9675
 9088TIP3   OH251458   4.660   3.495  11.188 -0.2443 -0.0733  0.5317
 9088TIP3    H151459   4.697   3.441  11.118 -2.3659 -1.4763  0.3745
 9088TIP3    H251460   4.666   3.584  11.156  0.7104 -0.4934 -0.5180
 9089TIP3   OH251461   3.472   3.055  10.879 -0.6122 -0.5993  0.1301
 9089TIP3    H151462   3.471   2.998  10.803  0.0171 -0.0348 -0.3184
 9089TIP3    H251463   3.475   3.144  10.843  2.3706 -0.3427  0.7278
 9090TIP3   OH251464   1.126   2.747  11.467  0.2148 -0.3820 -0.1648
 9090TIP3    H151465   1.054   2.725  11.526 -0.4000 -0.7626 -1.0449
 9090TIP3    H251466   1.122   2.843  11.461 -0.7906 -0.4448 -0.8842
 9091TIP3   OH251467   1.270   1.864  11.478 -0.1522 -0.3713 -0.1830
 9091TIP3    H151468   1.335   1.926  11.446  0.4942 -2.0575 -2.3431
 9091TIP3    H251469   1.322   1.792  11.514 -0.8846 -0.3441  0.9831
 9092TIP3   OH251470   5.731   4.350  10.926  0.5799  0.2410  0.4452
 9092TIP3    H151471   5.808   4.360  10.983  0.7975  0.8373  0.0612
 9092TIP3    H251472   5.673   4.421  10.951  0.0488 -0.3474  0.8891
 9093TIP3   OH251473   0.158   2.297  12.651 -0.2561 -0.8105 -0.0397
 9093TIP3    H151474   0.145   2.203  12.638  0.0389 -0.7550 -0.7592
 9093TIP3    H251475   0.077   2.327  12.691  0.2349 -1.6459  1.7076
 9094TIP3   OH251476   5.819   7.583  11.413  0.1334 -0.3259 -0.0911
 9094TIP3    H151477   5.910   7.555  11.414 -0.5895 -3.0738 -1.1419
 9094TIP3    H251478   5.805   7.617  11.325 -0.1056 -0.9161 -0.2851
 9095TIP3   OH251479   7.516   3.337  12.036  0.4094 -0.5342 -0.1833
 9095TIP3    H151480   7.425   3.352  12.063  0.9018  1.7955  0.3450
 9095TIP3    H251481   7.523   3.242  12.030 -1.5766 -0.8702  1.5103
 9096TIP3   OH251482   2.365   5.347  11.677  0.0687 -0.6290  0.2795
 9096TIP3    H151483   2.312   5.387  11.746 -0.8632 -0.6476 -0.4004
 9096TIP3    H251484   2.427   5.291  11.723  1.0142  1.1223  1.2200
 9097TIP3   OH251485   3.985   1.060  10.716 -0.1804 -0.1077 -0.8147
 9097TIP3    H151486   3.927   1.050  10.641  0.3547 -0.4759 -1.1868
 9097TIP3    H251487   4.066   1.093  10.679  0.1382 -0.4358 -0.4218
 9098TIP3   OH251488   1.077   2.001  11.947 -0.1948 -0.3860 -0.4537
 9098TIP3    H151489   1.063   2.096  11.951 -1.5710 -0.4416 -2.1847
 9098TIP3    H251490   0.995   1.964  11.980 -0.5965 -0.8957 -1.9176
 9099TIP3   OH251491   0.861   5.767  13.039  0.1694 -0.3383  0.3976
 9099TIP3    H151492   0.789   5.719  12.998  0.5934  0.2514 -1.0946
 9099TIP3    H251493   0.819   5.844  13.078 -0.0442 -0.0992 -0.2889
 9100TIP3   OH251494   3.403   5.472  12.455  0.0737 -0.1047  0.4061
 9100TIP3    H151495   3.345   5.405  12.490 -1.0028  0.5279 -0.1188
 9100TIP3    H251496   3.410   5.537  12.525 -0.0512 -0.0589  0.3755
 9101TIP3   OH251497   3.071   6.301  11.822  0.2313 -0.4361  0.4088
 9101TIP3    H151498   2.988   6.253  11.814  0.3209 -0.4382 -0.7793
 9101TIP3    H251499   3.138   6.232  11.828  0.4937 -0.6105 -2.6407
 9102TIP3   OH251500   3.148   0.723  10.671  0.5390  0.3416  0.2496
 9102TIP3    H151501   3.079   0.763  10.724  1.5183  2.4292  0.0775
 9102TIP3    H251502   3.102   0.692  10.593 -0.0863  3.3797 -0.7468
 9103TIP3   OH251503   3.390   5.925  11.324  0.0081  0.0015  0.1759
 9103TIP3    H151504   3.421   5.885  11.243  2.0502 -1.6319  1.6391
 9103TIP3    H251505   3.404   6.019  11.312  0.1444 -0.2054 -1.4019
 9104TIP3   OH251506   2.330   6.922  10.895  0.3069 -0.5230  0.5218
 9104TIP3    H151507   2.281   6.898  10.974 -0.0302  0.3320  0.5797
 9104TIP3    H251508   2.287   6.873  10.825  1.1454 -1.9587  0.9727
 9105TIP3   OH251509   1.054   6.085  12.714 -0.2372 -0.1507  0.1187
 9105TIP3    H151510   1.021   6.174  12.726 -0.4832 -0.1345 -0.6418
 9105TIP3    H251511   1.148   6.096  12.698 -0.2539 -0.0363  0.0982
 9106TIP3   OH251512   1.534   1.183  12.491  0.2231  0.3589  0.2861
 9106TIP3    H151513   1.503   1.195  12.401 -0.5587  1.2201  0.6424
 9106TIP3    H251514   1.593   1.257  12.505  1.0071 -0.2497  0.2112
 9107TIP3   OH251515   3.216   6.754  10.964 -0.2315 -0.0628  0.3300
 9107TIP3    H151516   3.143   6.806  10.932  1.0847  1.8709  0.2835
 9107TIP3    H251517   3.271   6.738  10.887  0.9292  1.1710  0.8627
 9108TIP3   OH251518   5.790   0.190  13.646 -0.3209 -0.1933  0.4247
 9108TIP3    H151519   5.787   0.107  13.598 -0.8365  0.0311  0.0487
 9108TIP3    H251520   5.864   0.237  13.608 -0.8289  0.0524 -0.2932
 9109TIP3   OH251521   3.166   7.098  12.558  0.2965 -0.1211  0.0122
 9109TIP3    H151522   3.190   7.124  12.469 -0.8019  0.2055 -0.2038
 9109TIP3    H251523   3.164   7.181  12.607 -1.0223 -0.0351 -0.1459
 9110TIP3   OH251524   1.732   2.948  13.190  0.3715  0.0816  0.0697
 9110TIP3    H151525   1.746   3.042  13.199 -0.3574  0.2890 -0.8190
 9110TIP3    H251526   1.775   2.910  13.267  0.0843  1.1886  0.8037
 9111TIP3   OH251527   2.768   1.315  10.626 -0.3391  0.0623  0.2841
 9111TIP3    H151528   2.680   1.341  10.600 -0.6068 -2.4025 -1.6039
 9111TIP3    H251529   2.761   1.296  10.720 -1.1050  2.3729  0.7678
 9112TIP3   OH251530   2.674   4.265  11.271  0.0724  0.1378  0.4819
 9112TIP3    H151531   2.662   4.170  11.280 -0.7314  0.1246 -0.4706
 9112TIP3    H251532   2.686   4.278  11.177 -0.0422  1.0005  0.5799
 9113TIP3   OH251533   6.008   3.449  11.980  0.0488 -0.1122 -0.1927
 9113TIP3    H151534   5.967   3.416  11.901  0.3830  0.2440 -0.5171
 9113TIP3    H251535   5.968   3.399  12.051  0.9253 -1.5987 -0.6994
 9114TIP3   OH251536   7.357   3.711  12.319 -0.0113 -0.7614 -0.7501
 9114TIP3    H151537   7.392   3.800  12.322 -0.7376 -0.4436 -1.4510
 9114TIP3    H251538   7.413   3.665  12.256  0.5065 -0.8778 -0.2183
 9115TIP3   OH251539   6.520   3.139  12.678 -0.3919  0.2994 -0.3775
 9115TIP3    H151540   6.584   3.168  12.613  0.8395 -0.5317  0.4164
 9115TIP3    H251541   6.437   3.138  12.631  0.3700  0.2595 -1.7723
 9116TIP3   OH251542   0.016   3.704  11.472  0.1644 -0.2972 -0.0713
 9116TIP3    H151543  -0.056   3.644  11.452 -0.1643  0.0713  0.0154
 9116TIP3    H251544  -0.018   3.791  11.452  0.6706 -0.1397 -0.2808
 9117TIP3   OH251545   3.576   4.062  10.960  0.1134 -0.8073 -0.2810
 9117TIP3    H151546   3.511   4.104  11.016  0.6802  0.2614 -0.4085
 9117TIP3    H251547   3.625   4.005  11.019  1.4907  1.1968  0.6254
 9118TIP3   OH251548   2.364   3.729  12.285 -0.3944  0.3072  0.3242
 9118TIP3    H151549   2.369   3.648  12.234  3.5753  0.4328  0.2345
 9118TIP3    H251550   2.287   3.774  12.251 -1.1702 -2.1862 -1.5083
 9119TIP3   OH251551   4.202   0.881  13.133  0.1162  0.1057 -0.3160
 9119TIP3    H151552   4.112   0.898  13.106 -0.3721 -2.1719 -0.2917
 9119TIP3    H251553   4.240   0.969  13.145 -1.4545  1.1513 -2.3079
 9120TIP3   OH251554   0.823   1.166  13.564 -0.3242 -0.4176 -0.0084
 9120TIP3    H151555   0.822   1.074  13.588 -0.3533  0.0600  1.9785
 9120TIP3    H251556   0.888   1.172  13.494 -1.2622 -2.1179 -1.0974
 9121TIP3   OH251557   4.143   7.382  11.469 -0.0279 -0.4018 -0.3330
 9121TIP3    H151558   4.106   7.403  11.384 -0.8381 -2.5470 -0.5823
 9121TIP3    H251559   4.199   7.306  11.453 -1.4006 -1.8276  1.2427
 9122TIP3   OH251560   3.637   5.783  12.785  0.5015  0.1784  0.2334
 9122TIP3    H151561   3.717   5.730  12.786  0.3614 -0.0328  0.3381
 9122TIP3    H251562   3.633   5.822  12.872  1.0393  1.0282 -0.0996
 9123TIP3   OH251563   5.270   1.542  11.966  0.1464  0.2022 -0.6857
 9123TIP3    H151564   5.198   1.552  12.028  1.0707  0.3360  0.3959
 9123TIP3    H251565   5.249   1.602  11.894 -1.0048 -0.0558 -0.5789
 9124TIP3   OH251566   2.096   0.792  11.857  0.0791  0.3826 -0.4953
 9124TIP3    H151567   2.158   0.860  11.828  0.8550 -0.6837 -1.4434
 9124TIP3    H251568   2.023   0.841  11.895  0.2334  1.7997 -1.8957
 9125TIP3   OH251569   1.695   2.384  10.651  0.3655 -0.5615  0.4225
 9125TIP3    H151570   1.758   2.422  10.712  0.5590  3.0984 -1.7415
 9125TIP3    H251571   1.749   2.342  10.584  0.8062  2.5557 -1.4211
 9126TIP3   OH251572   0.013   3.612  13.273  0.7002 -0.0584 -0.8275
 9126TIP3    H151573  -0.064   3.662  13.246  0.3196  0.2455  0.7314
 9126TIP3    H251574   0.072   3.677  13.309  0.8144 -0.5513 -0.1164
 9127TIP3   OH251575   6.267   6.723  12.174 -0.5765 -0.0823 -0.5406
 9127TIP3    H151576   6.354   6.706  12.209 -0.4748 -1.7101 -1.5145
 9127TIP3    H251577   6.209   6.716  12.250 -0.0120 -0.3504 -0.1279
 9128TIP3   OH251578   2.484   1.169  11.007  0.4361 -0.0092  1.0036
 9128TIP3    H151579   2.558   1.222  11.038  1.1457 -0.7777  0.6643
 9128TIP3    H251580   2.411   1.231  11.002  1.6327  1.3375 -0.9693
 9129TIP3   OH251581   2.248   1.087  10.558 -0.4309 -0.1065 -0.0775
 9129TIP3    H151582   2.338   1.084  10.589 -0.3741  1.2100 -0.0788
 9129TIP3    H251583   2.197   1.046  10.628 -0.0821  1.1212  0.9280
 9130TIP3   OH251584   5.113   7.343  11.541 -0.3236  0.1029 -0.8095
 9130TIP3    H151585   5.206   7.345  11.565 -1.0781  0.1517  2.7132
 9130TIP3    H251586   5.110   7.294  11.459  2.6837 -1.2219 -0.2529
 9131TIP3   OH251587   1.595   6.030  10.982  0.3797 -0.3470 -0.0981
 9131TIP3    H151588   1.566   6.002  10.895  0.4647 -0.5663 -0.0554
 9131TIP3    H251589   1.534   6.100  11.006  1.1333  0.6135 -0.8895
 9132TIP3   OH251590   2.510   7.262  11.271  0.3120 -0.1710 -0.1406
 9132TIP3    H151591   2.446   7.246  11.201  0.8143  1.1814 -0.9546
 9132TIP3    H251592   2.480   7.208  11.344 -0.5455 -1.2001 -1.2081
 9133TIP3   OH251593   3.710   3.482  11.467  0.3744 -0.1739 -0.4141
 9133TIP3    H151594   3.636   3.492  11.527  0.1235  0.3339 -0.8124
 9133TIP3    H251595   3.785   3.518  11.515  0.3373 -0.5218 -0.0849
 9134TIP3   OH251596   5.063   2.545  11.357  0.1879  0.3739  0.0549
 9134TIP3    H151597   5.096   2.600  11.427  1.2887  2.0971 -1.7260
 9134TIP3    H251598   5.134   2.483  11.340  1.7330  2.6010 -2.2147
 9135TIP3   OH251599   4.669   1.910  11.990  0.9665 -0.4564  0.2376
 9135TIP3    H151600   4.681   1.936  11.899 -1.8136  0.8614  0.1483
 9135TIP3    H251601   4.654   1.815  11.986  0.2663 -0.3135 -0.7399
 9136TIP3   OH251602   5.472   4.310  10.575 -0.1867  0.0236  0.0324
 9136TIP3    H151603   5.421   4.389  10.552 -0.4590 -0.8877 -2.9290
 9136TIP3    H251604   5.534   4.301  10.503 -0.6891 -2.8813 -0.1313
 9137TIP3   OH251605   4.821   7.016  12.635  0.2121  0.3303 -0.5572
 9137TIP3    H151606   4.730   7.015  12.605  0.3623  1.1332 -1.0681
 9137TIP3    H251607   4.820   7.074  12.711  0.3500  0.5774 -0.7430
 9138TIP3   OH251608   2.294   2.867  12.282 -0.2023  0.1363 -0.3712
 9138TIP3    H151609   2.226   2.809  12.318  0.8078 -0.3400  0.8327
 9138TIP3    H251610   2.300   2.938  12.345  0.6171  0.0272 -0.3197
 9139TIP3   OH251611   3.921   1.364  12.660  0.2005  0.1184 -0.4111
 9139TIP3    H151612   3.908   1.313  12.580  1.5729 -0.2993 -0.4072
 9139TIP3    H251613   3.994   1.423  12.639  0.7078 -0.1294  0.5708
 9140TIP3   OH251614   2.039   5.568  11.180 -0.1448 -0.0513 -0.0407
 9140TIP3    H151615   2.055   5.645  11.125 -0.5018  0.0143 -0.0526
 9140TIP3    H251616   1.965   5.524  11.138  0.0676 -0.4077 -0.0408
 9141TIP3   OH251617   2.000   3.748  12.745 -0.0960  0.0756 -0.0294
 9141TIP3    H151618   2.092   3.726  12.750  0.3942  0.8871 -3.0841
 9141TIP3    H251619   1.996   3.818  12.680 -2.6045  2.0122  2.0084
 9142TIP3   OH251620   4.598   0.555  13.009  0.5507  0.1400 -0.0825
 9142TIP3    H151621   4.516   0.584  13.049  1.9178  0.2736  2.8073
 9142TIP3    H251622   4.586   0.461  12.996  0.2436 -0.0134  1.1663
 9143TIP3   OH251623   4.801   1.762  12.493  0.7533 -0.3141 -0.5042
 9143TIP3    H151624   4.896   1.766  12.502  0.9185 -0.6162 -1.8715
 9143TIP3    H251625   4.785   1.686  12.437 -0.3583 -0.7446  0.3406
 9144TIP3   OH251626   7.551   4.622  13.179 -0.0485  0.1079  0.4918
 9144TIP3    H151627   7.524   4.584  13.263 -0.7732 -2.1357 -0.6745
 9144TIP3    H251628   7.624   4.568  13.151 -0.4324  0.2197 -0.7651
 9145TIP3   OH251629   2.948   0.994  12.430  0.2111 -0.1404 -0.1157
 9145TIP3    H151630   3.029   1.046  12.427 -0.5329  1.0332 -1.9344
 9145TIP3    H251631   2.938   0.962  12.340 -1.0062 -0.8022  0.2441
 9146TIP3   OH251632   7.374   3.843  12.942 -0.1404  0.0074 -0.2923
 9146TIP3    H151633   7.293   3.877  12.903  1.0718  0.6120 -2.4255
 9146TIP3    H251634   7.416   3.793  12.872 -0.0576 -2.9281  1.6517
 9147TIP3   OH251635   0.223   4.668  11.622  0.3659  0.1976 -0.4643
 9147TIP3    H151636   0.209   4.595  11.682  0.0532  0.4557 -0.2184
 9147TIP3    H251637   0.302   4.644  11.573  0.2338 -0.3255 -0.4251
 9148TIP3   OH251638   5.579   3.260  11.519  0.4009 -0.1807  0.2364
 9148TIP3    H151639   5.593   3.215  11.436 -0.0150  1.8440 -0.9791
 9148TIP3    H251640   5.631   3.339  11.514 -0.3613  0.4484  1.5336
 9149TIP3   OH251641   0.012   7.498  12.689 -0.4952  0.0542  0.1355
 9149TIP3    H151642   0.077   7.543  12.636 -0.1886 -0.0834  0.3923
 9149TIP3    H251643   0.040   7.406  12.690 -1.6289 -0.3401 -1.1593
 9150TIP3   OH251644   1.049   7.625  12.708 -0.1404 -0.0269 -0.1196
 9150TIP3    H151645   0.962   7.627  12.747 -0.9285  0.2005 -1.8010
 9150TIP3    H251646   1.055   7.538  12.667 -0.1912  0.5016 -1.2941
 9151TIP3   OH251647   0.490   4.396  12.513  0.1396 -0.2268  0.0802
 9151TIP3    H151648   0.459   4.383  12.423  2.3662  0.4528 -0.8533
 9151TIP3    H251649   0.535   4.314  12.534  2.1501  0.6723 -0.5669
 9152TIP3   OH251650   0.490   6.775  10.976 -0.5321  0.3823 -0.0443
 9152TIP3    H151651   0.560   6.839  10.966  1.5257 -1.4336  1.7576
 9152TIP3    H251652   0.410   6.828  10.980  0.5843  2.5027 -2.6698
 9153TIP3   OH251653   1.530   7.593  11.894 -0.8221  0.3618  0.2196
 9153TIP3    H151654   1.577   7.566  11.973  1.4409  2.0113 -0.4383
 9153TIP3    H251655   1.487   7.513  11.863  1.3478 -1.2571  1.0662
 9154TIP3   OH251656   3.095   2.041  12.196 -0.2638  0.0740 -0.6360
 9154TIP3    H151657   3.183   2.033  12.234 -0.0209 -0.8167 -1.3370
 9154TIP3    H251658   3.049   2.101  12.254  0.1875 -0.9798  0.8826
 9155TIP3   OH251659   7.222   3.108  12.291  0.3746  0.0612 -0.3625
 9155TIP3    H151660   7.197   3.179  12.350  0.5153 -1.6952  1.9787
 9155TIP3    H251661   7.309   3.082  12.321 -0.2994 -2.0769 -0.0978
 9156TIP3   OH251662   5.588   6.353  11.849 -0.4287  0.3218 -0.5277
 9156TIP3    H151663   5.619   6.429  11.898 -0.9032  0.8179 -0.9889
 9156TIP3    H251664   5.634   6.358  11.765 -0.7478  0.3116 -0.7031
 9157TIP3   OH251665   5.741   6.309  11.636  0.0726 -0.9084  0.3933
 9157TIP3    H151666   5.691   6.358  11.570  1.6124 -1.8001 -1.5520
 9157TIP3    H251667   5.826   6.353  11.639  0.3528 -1.4755  1.0769
 9158TIP3   OH251668   7.194   6.431  11.783  0.7586  0.3678  0.1739
 9158TIP3    H151669   7.276   6.387  11.760  1.2773  0.9102  0.9222
 9158TIP3    H251670   7.199   6.443  11.878 -2.4057 -4.0790  1.2187
 9159TIP3   OH251671   0.248   0.224  11.853  0.1340  1.0789 -0.5846
 9159TIP3    H151672   0.153   0.227  11.865  0.2830  1.4845  0.6559
 9159TIP3    H251673   0.283   0.283  11.920  1.3555 -0.3765  0.1229
 9160TIP3   OH251674   7.606   6.734  10.987 -0.3444  0.1829  0.0039
 9160TIP3    H151675   7.650   6.682  11.054 -1.1516  0.5671  0.8502
 9160TIP3    H251676   7.627   6.825  11.010  1.4012  0.2879 -1.6916
 9161TIP3   OH251677   3.070   5.906  10.548  0.0487 -0.2618  0.6761
 9161TIP3    H151678   2.982   5.905  10.511  0.4459  0.0664 -0.3082
 9161TIP3    H251679   3.065   5.846  10.622 -0.7975 -0.8524  0.1586
 9162TIP3   OH251680   4.763   7.604  11.287  0.3725  0.9765 -0.2537
 9162TIP3    H151681   4.764   7.531  11.225  1.2250  1.0873 -0.3950
 9162TIP3    H251682   4.718   7.674  11.241 -0.8876  0.3962  0.0705
 9163TIP3   OH251683   2.966   5.812  12.373  0.1335  0.9535  0.0799
 9163TIP3    H151684   3.048   5.800  12.421 -0.1073  0.5301  0.3890
 9163TIP3    H251685   2.934   5.723  12.358 -1.8124  1.1142  2.6286
 9164TIP3   OH251686   1.998   7.665  11.965 -0.1906  0.0992  0.2156
 9164TIP3    H151687   1.948   7.733  12.009 -1.1155 -0.6492  0.3571
 9164TIP3    H251688   1.985   7.587  12.019  1.6221  0.0039  0.5768
 9165TIP3   OH251689   7.452   4.584  12.001  0.5603  0.0539 -0.2011
 9165TIP3    H151690   7.466   4.602  11.909 -0.4650 -1.0472 -0.5937
 9165TIP3    H251691   7.503   4.505  12.019  0.9610  0.4078  0.2458
 9166TIP3   OH251692   2.529   3.388  12.829 -0.1186 -0.4812  0.7719
 9166TIP3    H151693   2.448   3.356  12.789  0.1739 -0.5388  0.2221
 9166TIP3    H251694   2.522   3.483  12.824  0.3711 -0.4861 -0.3664
 9167TIP3   OH251695   5.366   3.335  11.150  0.3768 -0.0150 -0.1959
 9167TIP3    H151696   5.312   3.350  11.228  0.8203 -0.5824  0.2307
 9167TIP3    H251697   5.408   3.420  11.132  2.5868 -0.5376  1.9687
 9168TIP3   OH251698   3.965   6.054  12.404  0.2356 -0.3173  0.0628
 9168TIP3    H151699   4.038   6.040  12.343  0.3631  1.5174 -0.2721
 9168TIP3    H251700   3.888   6.025  12.356  0.8170 -4.1079  1.0998
 9169TIP3   OH251701   5.811   0.911  12.056  0.5282 -0.5258  0.1400
 9169TIP3    H151702   5.868   0.925  12.131 -0.5242 -0.2325  0.9170
 9169TIP3    H251703   5.762   0.831  12.077  0.4900 -0.6477 -0.4008
 9170TIP3   OH251704   4.798   7.324  12.551  0.1518 -0.1267 -0.0576
 9170TIP3    H151705   4.721   7.330  12.494  0.8389  2.0426 -0.8582
 9170TIP3    H251706   4.765   7.287  12.633 -1.1980 -1.7186 -1.2569
 9171TIP3   OH251707   0.769   4.098  12.323  0.1813 -0.0191  0.4252
 9171TIP3    H151708   0.760   4.020  12.269 -0.3137  0.0541  0.3883
 9171TIP3    H251709   0.694   4.094  12.383 -0.2237  0.7579 -0.0121
 9172TIP3   OH251710   5.069   2.784  13.588  0.4051 -0.0541 -0.4766
 9172TIP3    H151711   5.031   2.746  13.667  0.6574  0.7152  0.0301
 9172TIP3    H251712   5.075   2.711  13.527  2.5678 -1.2811  1.0722
 9173TIP3   OH251713   2.436   3.121  11.261  0.2261 -0.2565  0.6176
 9173TIP3    H151714   2.510   3.106  11.202  0.6917 -0.8728  1.3522
 9173TIP3    H251715   2.396   3.202  11.228  1.7408  0.5708  0.7396
 9174TIP3   OH251716   7.113   4.917  12.486  0.2877 -0.2223  0.8655
 9174TIP3    H151717   7.158   4.912  12.402 -0.3398  0.8005  0.4487
 9174TIP3    H251718   7.024   4.885  12.468  0.4593 -1.0092  1.3862
 9175TIP3   OH251719   1.781   6.790  11.889 -0.2829 -0.2979  0.0481
 9175TIP3    H151720   1.845   6.799  11.960 -0.0202 -1.2048 -0.0725
 9175TIP3    H251721   1.787   6.873  11.841  1.4443 -0.7090 -0.5046
 9176TIP3   OH251722   7.207   3.161  10.776  0.0298 -0.6334 -0.2463
 9176TIP3    H151723   7.125   3.197  10.742  0.1101 -0.6557 -0.4659
 9176TIP3    H251724   7.244   3.232  10.828  0.0556 -0.4915 -0.4568
 9177TIP3   OH251725   6.924   3.301  12.300  0.2639 -0.4932 -0.2550
 9177TIP3    H151726   6.985   3.313  12.373 -0.2851  1.0122 -0.0116
 9177TIP3    H251727   6.951   3.365  12.235  0.2279 -1.2566 -1.0389
 9178TIP3   OH251728   4.664   6.407  11.057 -0.0150  0.3084 -1.0947
 9178TIP3    H151729   4.747   6.423  11.013  0.9384  1.0701  0.8791
 9178TIP3    H251730   4.682   6.338  11.120 -0.6245  1.0930 -0.0250
 9179TIP3   OH251731   6.582   4.619  12.768 -0.0773 -0.3705 -0.4012
 9179TIP3    H151732   6.511   4.582  12.820 -0.9509  1.4904 -0.1748
 9179TIP3    H251733   6.597   4.556  12.698 -1.5632 -1.0751 -0.1217
 9180TIP3   OH251734   6.167   2.896  10.984 -0.4737  0.3110  0.5439
 9180TIP3    H151735   6.174   2.913  10.890 -0.4435 -1.2349  0.2463
 9180TIP3    H251736   6.078   2.922  11.006 -0.2352  1.4232  0.2666
 9181TIP3   OH251737   2.254   1.585  12.346  0.3425  0.1405  0.0029
 9181TIP3    H151738   2.248   1.679  12.326  0.0278 -0.0924 -1.1133
 9181TIP3    H251739   2.190   1.571  12.415  0.0391  0.6708 -0.1618
 9182TIP3   OH251740   0.769   5.749  11.686 -0.0305 -0.1692 -0.0532
 9182TIP3    H151741   0.794   5.814  11.752  0.3437 -1.1201  0.7574
 9182TIP3    H251742   0.760   5.800  11.605  0.5435  0.8478  0.5003
 9183TIP3   OH251743   0.167   2.311  11.016 -0.6044 -0.0701  0.2221
 9183TIP3    H151744   0.222   2.257  11.072  0.7521  0.5573 -0.4602
 9183TIP3    H251745   0.107   2.354  11.076 -1.1326 -1.6376  0.8649
 9184TIP3   OH251746   7.023   4.339  10.953  0.0665  0.2779 -0.2231
 9184TIP3    H151747   6.950   4.354  10.893 -0.3419 -0.8556 -0.0278
 9184TIP3    H251748   6.987   4.359  11.040  0.0707  0.0155 -0.1593
 9185TIP3   OH251749   2.981   6.467  13.518  0.1638  0.4754  0.0288
 9185TIP3    H151750   2.956   6.384  13.560 -1.7565  1.3576  0.7742
 9185TIP3    H251751   3.025   6.516  13.588  1.4325  0.0693 -0.4536
 9186TIP3   OH251752   5.440   2.106  10.673 -0.0786 -0.1369 -0.2812
 9186TIP3    H151753   5.404   2.154  10.599  0.1346  0.4933  0.0183
 9186TIP3    H251754   5.522   2.068  10.640 -0.6016 -0.8936 -0.7232
 9187TIP3   OH251755   4.358   3.602  12.361 -0.0623  0.3339 -0.2645
 9187TIP3    H151756   4.414   3.669  12.401  0.5277 -2.0427  3.3209
 9187TIP3    H251757   4.272   3.615  12.403 -0.4390 -0.0208 -0.9109
 9188TIP3   OH251758   0.601   2.745  11.635  0.2927  0.3916  0.4165
 9188TIP3    H151759   0.588   2.731  11.541  0.7976 -0.7740  0.5156
 9188TIP3    H251760   0.549   2.677  11.677 -1.0134  1.7091  1.0471
 9189TIP3   OH251761   7.525   1.191  12.282  0.1551 -0.4916  0.4024
 9189TIP3    H151762   7.473   1.114  12.260 -0.0232  0.0516 -1.2476
 9189TIP3    H251763   7.462   1.252  12.321 -0.2742 -0.2054 -0.7033
 9190TIP3   OH251764   1.241   0.815  12.246 -0.1174 -0.0448  0.0049
 9190TIP3    H151765   1.197   0.768  12.176 -0.4079  0.2716 -0.0269
 9190TIP3    H251766   1.214   0.906  12.235 -0.6243 -0.0853  0.8754
 9191TIP3   OH251767   6.148   0.436  11.150 -0.1825 -0.6317 -1.1206
 9191TIP3    H151768   6.152   0.496  11.075  1.7579  2.6923  1.4021
 9191TIP3    H251769   6.219   0.374  11.134 -0.0373 -0.2251 -2.1728
 9192TIP3   OH251770   4.697   3.005  11.440 -0.4660  0.2179  0.0770
 9192TIP3    H151771   4.763   2.969  11.381  0.0909  0.5961  0.4548
 9192TIP3    H251772   4.635   2.934  11.453  0.3306 -0.4317  0.3980
 9193TIP3   OH251773   4.326   3.308  12.371 -0.1017 -0.0200 -0.8089
 9193TIP3    H151774   4.303   3.257  12.293  0.1613 -0.1377 -0.8118
 9193TIP3    H251775   4.419   3.328  12.360  0.2744 -1.1462  0.0934
 9194TIP3   OH251776   1.269   7.401  12.219 -0.0223 -0.0854  0.7948
 9194TIP3    H151777   1.318   7.477  12.251 -1.2086  0.5904  1.0867
 9194TIP3    H251778   1.258   7.345  12.296 -2.2824  1.2158  1.5232
 9195TIP3   OH251779   2.402   7.000  11.918  0.3561  0.0894  0.7268
 9195TIP3    H151780   2.310   7.022  11.905  1.0194  1.6115 -2.7449
 9195TIP3    H251781   2.402   6.914  11.959 -2.6080 -0.3084  0.0567
 9196TIP3   OH251782   5.689   7.194  11.303 -0.1496 -0.8264  0.2210
 9196TIP3    H151783   5.612   7.138  11.311 -1.7626  1.4541  1.9411
 9196TIP3    H251784   5.672   7.248  11.225  0.8318 -1.8203 -0.7228
 9197TIP3   OH251785   3.219   7.442  10.582 -0.5307 -0.5113  0.5419
 9197TIP3    H151786   3.137   7.395  10.568 -0.1502 -0.5320 -2.2726
 9197TIP3    H251787   3.286   7.388  10.540  0.0861  1.8826 -1.8215
 9198TIP3   OH251788   5.163   1.574  11.189 -0.0676 -0.3290 -0.0631
 9198TIP3    H151789   5.095   1.632  11.156 -0.2463 -0.7567 -0.4438
 9198TIP3    H251790   5.115   1.505  11.235  0.1370 -0.3161  0.1740
 9199TIP3   OH251791   1.211   5.035  12.164 -0.0615 -0.6354  0.7177
 9199TIP3    H151792   1.172   5.070  12.084  0.8324 -0.3596  0.3965
 9199TIP3    H251793   1.180   5.093  12.233 -1.1042 -1.0651  0.6382
 9200TIP3   OH251794   7.344   3.365  10.915  0.1424 -0.1869  0.2564
 9200TIP3    H151795   7.427   3.318  10.910 -0.9675 -2.1098 -2.5232
 9200TIP3    H251796   7.349   3.430  10.845 -0.3800  0.2894  0.6512
 9201TIP3   OH251797   6.901   4.809  13.732 -0.7907 -0.2645 -0.2003
 9201TIP3    H151798   6.928   4.717  13.739 -1.4288 -0.4360  0.1159
 9201TIP3    H251799   6.983   4.858  13.730 -0.4451 -0.8227 -0.0601
 9202TIP3   OH251800   6.008   6.276  13.243  0.0674  0.1460  0.0226
 9202TIP3    H151801   5.975   6.344  13.185 -1.3921 -0.4664  0.0877
 9202TIP3    H251802   6.101   6.294  13.250  0.3464  0.1043 -2.6745
 9203TIP3   OH251803   1.619   5.611  12.939  0.3019  0.4127 -0.2138
 9203TIP3    H151804   1.614   5.589  12.845  1.7257  0.2608 -0.2752
 9203TIP3    H251805   1.538   5.575  12.975  0.4209 -0.9020 -1.1360
 9204TIP3   OH251806   5.359   4.663  11.345 -0.3163  0.5261 -0.2780
 9204TIP3    H151807   5.438   4.639  11.297  1.0002  0.7849  1.6567
 9204TIP3    H251808   5.294   4.598  11.318  0.6780  0.0212 -1.5450
 9205TIP3   OH251809   7.605   3.605  11.756 -0.2214 -0.0685  0.1714
 9205TIP3    H151810   7.542   3.675  11.740  1.2951  0.7840 -2.6759
 9205TIP3    H251811   7.583   3.537  11.693  0.5973 -0.5479  0.3855
 9206TIP3   OH251812   5.406   0.341  11.471 -0.3592  0.8686 -0.2357
 9206TIP3    H151813   5.496   0.335  11.440 -0.4462 -2.8126 -0.2122
 9206TIP3    H251814   5.411   0.318  11.564 -1.3904 -0.9653 -0.5792
 9207TIP3   OH251815   2.284   6.268  12.734  0.2767  0.1196 -0.6719
 9207TIP3    H151816   2.271   6.361  12.753 -0.6060 -0.4702  2.0740
 9207TIP3    H251817   2.373   6.249  12.766  0.1205 -0.1385 -0.3776
 9208TIP3   OH251818   5.459   6.356  10.618 -0.2978  0.1918  0.3183
 9208TIP3    H151819   5.425   6.275  10.580 -1.7108  0.2922  1.2899
 9208TIP3    H251820   5.547   6.334  10.647 -1.0253 -1.3116  1.4843
 9209TIP3   OH251821   6.428   3.927  12.137  0.4070 -0.1952 -0.5161
 9209TIP3    H151822   6.335   3.950  12.135  0.6059  0.6061 -1.1392
 9209TIP3    H251823   6.446   3.896  12.048  0.6482 -0.7284 -0.2826
 9210TIP3   OH251824   6.864   1.720  12.135  0.2073 -0.2292  0.2843
 9210TIP3    H151825   6.906   1.721  12.048 -0.0485  0.1972  0.1649
 9210TIP3    H251826   6.802   1.647  12.131 -1.5334  1.2189 -0.7249
 9211TIP3   OH251827   2.675   5.364  13.080 -0.0414 -0.4181  0.9028
 9211TIP3    H151828   2.663   5.312  13.160 -0.5621  1.0985  1.8528
 9211TIP3    H251829   2.751   5.419  13.097 -0.2035 -0.0204  0.3836
 9212TIP3   OH251830   3.710   1.248  10.755  0.2511 -0.3710 -0.4667
 9212TIP3    H151831   3.752   1.223  10.672 -0.7927  0.2599 -1.2065
 9212TIP3    H251832   3.620   1.270  10.731  0.0858  0.3823  0.7476
 9213TIP3   OH251833   3.088   1.064  11.139  0.3109  0.2349 -0.3622
 9213TIP3    H151834   3.103   1.122  11.215 -1.5857 -0.1018  0.3376
 9213TIP3    H251835   3.026   0.999  11.171  0.8087 -0.9638 -1.7465
 9214TIP3   OH251836   1.950   3.876  10.682  0.1353 -0.4318 -0.1602
 9214TIP3    H151837   1.896   3.808  10.722  1.6821 -1.7622 -0.2241
 9214TIP3    H251838   1.993   3.832  10.608  1.8571  0.3600  0.3248
 9215TIP3   OH251839   0.199   4.248  11.935 -0.5044 -0.0284 -0.3069
 9215TIP3    H151840   0.122   4.236  11.991 -0.9285  1.2039 -0.6046
 9215TIP3    H251841   0.240   4.161  11.933  0.0892  0.0493  2.7045
 9216TIP3   OH251842   5.896   4.146  10.867  0.6289  0.5037  0.1173
 9216TIP3    H151843   5.832   4.208  10.903  0.3610 -0.7156  1.8529
 9216TIP3    H251844   5.851   4.062  10.866  1.6878 -0.0770 -0.1729
 9217TIP3   OH251845   0.412   1.439  13.469  0.1391  0.4495  0.3550
 9217TIP3    H151846   0.342   1.472  13.413  0.0664 -0.2840  0.0108
 9217TIP3    H251847   0.398   1.345  13.474  0.0868  0.5096  1.6965
 9218TIP3   OH251848   3.082   0.115  11.830  0.8273  0.5763  0.3853
 9218TIP3    H151849   3.122   0.197  11.859 -0.8292  1.7419 -0.4507
 9218TIP3    H251850   3.011   0.099  11.892  1.4115 -0.5059  0.8110
 9219TIP3   OH251851   5.751   2.866  10.818 -0.4940  0.0454  0.5796
 9219TIP3    H151852   5.703   2.869  10.901  0.8028 -2.6268  1.5484
 9219TIP3    H251853   5.767   2.773  10.803  0.5438  0.5463 -1.9774
 9220TIP3   OH251854   7.199   2.296  12.098  0.3832  0.2703  0.3300
 9220TIP3    H151855   7.155   2.290  12.014  0.5634  0.5861  0.2117
 9220TIP3    H251856   7.276   2.351  12.081  0.8892 -0.3719  0.4994
 9221TIP3   OH251857   6.972   2.442  12.412  0.2104 -0.0162  0.1094
 9221TIP3    H151858   6.952   2.523  12.366  0.2919  1.0304  1.8147
 9221TIP3    H251859   7.068   2.441  12.416  0.2068  1.3759  2.5865
 9222TIP3   OH251860   3.305   6.000  12.153 -0.2281  0.2284 -0.1345
 9222TIP3    H151861   3.250   5.960  12.086 -0.2380  0.9353 -0.5584
 9222TIP3    H251862   3.291   6.094  12.142  0.6361  0.3936  0.1177
 9223TIP3   OH251863   7.650   2.285  10.577  0.4622 -0.0952  0.3921
 9223TIP3    H151864   7.648   2.201  10.622 -1.8607 -0.5851 -0.4605
 9223TIP3    H251865   7.622   2.348  10.644 -2.4472 -0.7446 -0.0538
 9224TIP3   OH251866   0.511   5.870  12.304  0.2660 -0.6312  0.1794
 9224TIP3    H151867   0.481   5.953  12.269  1.9190 -0.6627 -1.4722
 9224TIP3    H251868   0.534   5.889  12.395 -0.7517  0.3350  0.2502
 9225TIP3   OH251869   4.350   6.344  12.839 -0.3075  0.0154 -0.3941
 9225TIP3    H151870   4.278   6.337  12.901  0.7009 -0.6668  0.7322
 9225TIP3    H251871   4.345   6.264  12.787 -2.2306  1.3661 -2.4732
 9226TIP3   OH251872   5.354   4.350  12.926  0.4963 -0.0850  0.3115
 9226TIP3    H151873   5.305   4.271  12.904  0.4535 -0.3669  1.3440
 9226TIP3    H251874   5.286   4.417  12.942  0.5132  0.0079 -0.0045
 9227TIP3   OH251875   0.378   4.993  11.454  0.3073  0.3672 -0.1413
 9227TIP3    H151876   0.367   5.082  11.488 -0.8122  0.4685 -0.7012
 9227TIP3    H251877   0.384   4.937  11.531  0.4879  0.8705  0.2112
 9228TIP3   OH251878   2.319   7.409  10.598 -0.3308  0.8764 -0.0751
 9228TIP3    H151879   2.225   7.399  10.585 -0.1907  0.2515 -0.5982
 9228TIP3    H251880   2.344   7.333  10.651 -0.3345  1.7058  1.1609
 9229TIP3   OH251881   5.890   1.709  11.819 -0.3276 -0.7795  0.4458
 9229TIP3    H151882   5.834   1.757  11.759 -0.0821  0.7625  1.4154
 9229TIP3    H251883   5.830   1.654  11.869 -0.6184 -1.4432 -0.5959
 9230TIP3   OH251884   4.255   1.957  11.948  0.0911  0.2157  0.2994
 9230TIP3    H151885   4.319   2.018  11.911 -0.2874 -0.0426 -0.8341
 9230TIP3    H251886   4.186   2.013  11.982  0.2680  0.4581  0.2646
 9231TIP3   OH251887   4.883   1.534  11.571  0.0247 -0.5255  0.2274
 9231TIP3    H151888   4.910   1.494  11.489  0.2176 -0.2605  0.1602
 9231TIP3    H251889   4.792   1.559  11.558 -0.4057 -1.8364  0.6112
 9232TIP3   OH251890   3.803   2.775  12.839 -0.4962 -0.7163 -0.3108
 9232TIP3    H151891   3.886   2.741  12.874 -0.2870 -0.6084 -0.6871
 9232TIP3    H251892   3.742   2.701  12.845 -0.8973 -0.2528  1.6778
 9233TIP3   OH251893   4.611   6.599  11.685 -0.0001  0.1751  0.0761
 9233TIP3    H151894   4.560   6.560  11.614  0.9351 -0.7681 -0.0934
 9233TIP3    H251895   4.629   6.688  11.655 -2.3318  0.8826  0.5588
 9234TIP3   OH251896   6.782   6.600  10.831  0.1960  0.1324  0.2848
 9234TIP3    H151897   6.839   6.618  10.756 -2.2934  0.8104 -1.5718
 9234TIP3    H251898   6.835   6.624  10.907  2.7343 -0.2896 -1.2040
 9235TIP3   OH251899   1.095   0.592  11.493 -0.3724 -0.4499 -0.1943
 9235TIP3    H151900   1.001   0.590  11.511 -0.1095 -0.1525  1.3343
 9235TIP3    H251901   1.124   0.503  11.508 -0.2961 -0.3914  0.0064
 9236TIP3   OH251902   5.312   6.459  11.753  0.2317  0.5950 -0.0088
 9236TIP3    H151903   5.362   6.513  11.692  1.2415 -1.5323 -1.2156
 9236TIP3    H251904   5.379   6.415  11.805 -0.3915 -1.1706 -0.6167
 9237TIP3   OH251905   3.505   5.624  10.897  0.2514 -0.2611  0.3674
 9237TIP3    H151906   3.483   5.532  10.912 -0.7708  0.0055  0.5933
 9237TIP3    H251907   3.552   5.624  10.814 -0.5004 -0.8865 -0.0681
 9238TIP3   OH251908   4.340   5.738  11.440 -0.1689  0.0025  0.0841
 9238TIP3    H151909   4.426   5.697  11.431 -1.0636 -2.2011  0.8449
 9238TIP3    H251910   4.311   5.752  11.350 -0.4947 -2.6413 -0.2863
 9239TIP3   OH251911   6.393   5.677  11.837 -0.7400  0.2582 -0.7325
 9239TIP3    H151912   6.376   5.592  11.878 -0.3036  0.2921 -0.4715
 9239TIP3    H251913   6.454   5.658  11.765  0.0167  0.4497 -0.1607
 9240TIP3   OH251914   7.041   3.431  10.699 -0.2671  0.3371  0.2450
 9240TIP3    H151915   7.104   3.498  10.724  2.0493 -1.6396  0.1275
 9240TIP3    H251916   6.963   3.449  10.752  1.7157  0.7832  3.2324
 9241TIP3   OH251917   1.088   6.264  13.124  0.2765  0.0505 -0.2014
 9241TIP3    H151918   1.123   6.352  13.110 -0.4426  0.4811  0.5873
 9241TIP3    H251919   1.007   6.279  13.173  0.2018 -1.0581  0.0238
 9242TIP3   OH251920   3.484   6.194  12.919 -0.3302 -0.2012  0.5080
 9242TIP3    H151921   3.462   6.108  12.883 -0.2618 -0.3054  0.7140
 9242TIP3    H251922   3.401   6.241  12.921  0.2173  1.4296 -3.9579
 9243TIP3   OH251923   5.698   2.759  12.521  0.1342  0.0433  0.3297
 9243TIP3    H151924   5.627   2.696  12.512 -0.6991  0.9386  0.4842
 9243TIP3    H251925   5.778   2.707  12.511 -0.4776 -1.3017  2.0109
 9244TIP3   OH251926   5.600   2.866  11.038  0.3770  0.1272  0.1347
 9244TIP3    H151927   5.652   2.808  11.094  0.0463  0.0296  0.3419
 9244TIP3    H251928   5.610   2.952  11.078  1.2026  0.3032 -0.4057
 9245TIP3   OH251929   6.568   5.316  11.638  0.1001 -0.2319  0.3298
 9245TIP3    H151930   6.613   5.237  11.669  0.6537  0.1458  0.4992
 9245TIP3    H251931   6.518   5.286  11.562  0.6849 -0.6505  0.1032
 9246TIP3   OH251932   3.883   7.263  10.774 -0.1185  0.7179  0.4212
 9246TIP3    H151933   3.929   7.315  10.840  0.7438  0.6314 -0.0925
 9246TIP3    H251934   3.832   7.327  10.724 -1.0914  0.7360  1.4012
 9247TIP3   OH251935   2.343   5.756  11.732 -0.3017  0.8129  0.2329
 9247TIP3    H151936   2.431   5.768  11.766  0.3485  1.1485 -1.4736
 9247TIP3    H251937   2.350   5.680  11.674 -1.3007  0.4114  0.6159
 9248TIP3   OH251938   2.274   4.383  12.359  0.0134  0.1713 -0.0065
 9248TIP3    H151939   2.215   4.409  12.287 -0.2698  1.1194  0.5430
 9248TIP3    H251940   2.271   4.288  12.359  1.5341  0.0296 -2.5062
 9249TIP3   OH251941   5.076   2.401  11.103  0.5112  0.5025 -0.6844
 9249TIP3    H151942   5.038   2.410  11.190  0.3360 -2.8400 -0.2989
 9249TIP3    H251943   5.001   2.406  11.044  0.5278  1.9164 -0.6105
 9250TIP3   OH251944   4.883   7.179  11.574  0.0095  0.3336 -0.0023
 9250TIP3    H151945   4.839   7.257  11.540  0.3749  0.7679  0.4967
 9250TIP3    H251946   4.964   7.212  11.612 -0.7381  0.0267  2.0158
 9251TIP3   OH251947   0.762   3.376  11.583  0.1289 -0.3443  0.5604
 9251TIP3    H151948   0.712   3.349  11.661  1.6177  1.1482  2.1141
 9251TIP3    H251949   0.721   3.327  11.511 -1.3571 -1.7474  2.2377
 9252TIP3   OH251950   6.194   4.123  10.946  0.4208 -0.1659 -0.3452
 9252TIP3    H151951   6.112   4.103  10.901  0.0199 -2.2084  1.1699
 9252TIP3    H251952   6.230   4.038  10.971  2.3112  0.7442  0.2741
 9253TIP3   OH251953   2.881   5.947  11.027  0.3370 -0.5344  0.1118
 9253TIP3    H151954   2.910   6.033  11.059  0.2871 -0.8912  1.1560
 9253TIP3    H251955   2.794   5.964  10.992  0.3200 -0.1545  0.3239
 9254TIP3   OH251956   2.877   3.233  10.509  0.2999  0.6579  0.1366
 9254TIP3    H151957   2.786   3.204  10.497  0.3071 -0.2071  1.8411
 9254TIP3    H251958   2.869   3.324  10.537 -0.1302  0.2917  1.2628
 9255TIP3   OH251959   4.429   6.535  11.127 -0.2319 -0.1544  0.6924
 9255TIP3    H151960   4.428   6.606  11.063 -0.9373  0.1759  1.0618
 9255TIP3    H251961   4.511   6.489  11.110 -0.2571  0.1171 -0.2387
 9256TIP3   OH251962   0.064   2.136  10.770  0.1083  0.0325 -0.5195
 9256TIP3    H151963   0.012   2.198  10.820 -0.7347 -0.6851 -0.4814
 9256TIP3    H251964   0.076   2.061  10.829  1.5191  0.3280 -0.3904
 9257TIP3   OH251965   0.778   1.995  10.457 -0.8038  0.2705  0.4356
 9257TIP3    H151966   0.811   1.963  10.541 -0.7761  0.9864  0.7059
 9257TIP3    H251967   0.684   2.004  10.469 -0.9771 -0.8367 -0.0223
 9258TIP3   OH251968   7.592   1.883  13.352 -0.6704 -0.5535  0.1664
 9258TIP3    H151969   7.507   1.902  13.393 -0.8398 -1.3845  0.2341
 9258TIP3    H251970   7.651   1.950  13.385 -0.9332 -0.8889  1.3743
 9259TIP3   OH251971   4.115   6.654  11.614 -0.0584 -0.1419  0.1034
 9259TIP3    H151972   4.149   6.574  11.574 -1.2085 -0.5609 -0.0811
 9259TIP3    H251973   4.070   6.623  11.693 -0.9264  0.2633 -0.2259
 9260TIP3   OH251974   4.065   0.438  11.466 -0.2983 -0.4266  0.1835
 9260TIP3    H151975   4.124   0.511  11.483  1.0647 -1.7068  1.3086
 9260TIP3    H251976   4.027   0.456  11.381  0.2108  1.4380  0.3233
 9261TIP3   OH251977   6.204   3.015  10.739 -0.2325  0.1380 -0.1136
 9261TIP3    H151978   6.251   3.004  10.656 -0.5677  2.8191 -0.7331
 9261TIP3    H251979   6.250   3.086  10.783 -0.9629 -0.2859  1.3754
 9262TIP3   OH251980   3.472   5.113  11.368 -0.4222 -0.1872 -0.3990
 9262TIP3    H151981   3.541   5.150  11.313  0.3254 -2.0258 -0.7567
 9262TIP3    H251982   3.502   5.128  11.457  0.2888 -0.6684 -0.5487
 9263TIP3   OH251983   5.216   2.479  12.685  0.5352  0.0058  0.6938
 9263TIP3    H151984   5.309   2.493  12.698  0.4256  0.7671  0.7435
 9263TIP3    H251985   5.174   2.534  12.752  0.0349  1.1392 -0.4909
 9264TIP3   OH251986   3.786   0.847  11.952  0.3596  0.4435  0.4506
 9264TIP3    H151987   3.721   0.826  12.019  0.4838 -0.6025  0.2644
 9264TIP3    H251988   3.785   0.771  11.893  2.3451  0.0205  0.9070
 9265TIP3   OH251989   1.090   2.047  11.304 -0.1268  0.2023  0.2558
 9265TIP3    H151990   1.122   1.998  11.380 -0.7918  1.6074  1.4855
 9265TIP3    H251991   1.044   1.981  11.251  0.1033 -0.7565  1.2086
 9266TIP3   OH251992   2.748   3.952  11.289  0.0091 -0.3675  0.7994
 9266TIP3    H151993   2.708   3.975  11.373 -0.5465  1.8877 -0.0119
 9266TIP3    H251994   2.701   3.874  11.260 -1.8429  0.5372  1.2320
 9267TIP3   OH251995   2.731   1.721  12.016  0.1727 -0.0361 -0.0741
 9267TIP3    H151996   2.795   1.784  12.051 -0.3985  0.1987  0.5606
 9267TIP3    H251997   2.770   1.691  11.933  0.9638  0.3265  0.1577
 9268TIP3   OH251998   1.887   6.473  12.599  0.1542 -0.1051  0.0048
 9268TIP3    H151999   1.911   6.442  12.511 -1.2962  1.9802 -1.1970
 9268TIP3    H252000   1.943   6.549  12.613 -0.3469  0.1721  0.4766
 9269TIP3   OH252001   0.675   4.918  10.841  0.1287 -0.1185  0.6068
 9269TIP3    H152002   0.646   4.836  10.882  0.0880  0.4264  1.7095
 9269TIP3    H252003   0.626   4.922  10.759 -0.8339 -0.5844  1.1375
 9270TIP3   OH252004   6.302   6.824  11.698 -0.2823 -0.1133  0.0855
 9270TIP3    H152005   6.269   6.901  11.746 -0.5413 -0.1529 -0.0245
 9270TIP3    H252006   6.397   6.830  11.704 -0.2462  1.0918 -1.2945
 9271TIP3   OH252007   6.239   1.295  11.645  0.5124 -0.3814  0.1860
 9271TIP3    H152008   6.195   1.331  11.569 -1.1748 -1.9159  0.3798
 9271TIP3    H252009   6.305   1.361  11.668 -0.4998  1.1713 -1.1794
 9272TIP3   OH252010   1.617   0.140  11.731  0.0765  0.3877  0.1448
 9272TIP3    H152011   1.643   0.078  11.662  0.2516  1.2215 -0.5600
 9272TIP3    H252012   1.585   0.085  11.802 -0.1459 -0.5004 -0.6206
 9273TIP3   OH252013   0.055   2.904  10.994  0.8881 -0.1580  0.0490
 9273TIP3    H152014  -0.008   2.898  11.066  0.6563 -2.4749 -0.2708
 9273TIP3    H252015   0.103   2.984  11.012 -0.6578  0.5159  1.5367
 9274TIP3   OH252016   5.600   1.040  12.757  0.3243 -0.6830  0.2308
 9274TIP3    H152017   5.537   1.103  12.792 -0.2037 -0.8978 -0.2994
 9274TIP3    H252018   5.685   1.074  12.782 -0.0341 -1.3988  2.6929
 9275TIP3   OH252019   1.671   0.419  13.580  0.0264 -0.5681  0.2406
 9275TIP3    H152020   1.721   0.458  13.652 -0.0346 -0.4827  0.2371
 9275TIP3    H252021   1.654   0.329  13.607  0.4615 -0.6965  0.1031
 9276TIP3   OH252022   7.270   6.948  11.260  0.9584 -0.0328 -0.3632
 9276TIP3    H152023   7.304   6.859  11.260  2.2315  0.4297  0.3027
 9276TIP3    H252024   7.241   6.963  11.170 -0.3143 -1.4827 -0.2274
 9277TIP3   OH252025   1.320   7.179  12.459 -0.0399 -0.3209  0.0364
 9277TIP3    H152026   1.226   7.167  12.472  0.0868 -2.2917 -0.6263
 9277TIP3    H252027   1.358   7.092  12.470  1.4052 -0.0256 -1.9831
 9278TIP3   OH252028   4.079   3.090  11.375  0.3036  0.2848 -0.2145
 9278TIP3    H152029   4.009   3.076  11.311  0.0656 -0.4636  0.2057
 9278TIP3    H252030   4.045   3.052  11.456  0.7048  1.0037  0.3017
 9279TIP3   OH252031   6.890   5.727  11.745 -0.3327 -0.0002 -0.2303
 9279TIP3    H152032   6.960   5.791  11.760  0.3156 -0.6684 -0.3454
 9279TIP3    H252033   6.932   5.657  11.695 -1.3026 -0.0031 -1.0872
 9280TIP3   OH252034   4.972   2.417  11.881  0.1385 -0.0664 -0.1193
 9280TIP3    H152035   4.933   2.488  11.831 -0.4097 -0.0944  0.2619
 9280TIP3    H252036   4.956   2.339  11.828 -0.0916 -0.0394 -0.0898
 9281TIP3   OH252037   6.924   5.192  11.806  0.0142  0.1880  0.1622
 9281TIP3    H152038   6.853   5.193  11.742  0.4699 -0.5952 -0.3738
 9281TIP3    H252039   6.958   5.102  11.803  0.7607  0.4430  0.7019
 9282TIP3   OH252040   4.779   3.647  11.951 -0.1282  0.5806  0.6177
 9282TIP3    H152041   4.761   3.685  12.037 -1.3371  0.0728  0.6007
 9282TIP3    H252042   4.722   3.570  11.946  0.2392  0.3621 -0.4746
 9283TIP3   OH252043   1.890   2.243  10.495 -0.3738  0.5901 -0.1448
 9283TIP3    H152044   1.973   2.196  10.494 -1.0608 -0.6939  0.5289
 9283TIP3    H252045   1.824   2.175  10.481 -1.5918  0.9011  3.1838
 9284TIP3   OH252046   7.093   0.839  12.157  0.0428 -0.2237 -0.4698
 9284TIP3    H152047   7.092   0.815  12.065  1.2345 -0.2320 -0.5004
 9284TIP3    H252048   7.086   0.756  12.204 -0.6402 -0.2128 -0.5500
 9285TIP3   OH252049   4.136   3.949  11.565  0.0553  1.0160  0.1328
 9285TIP3    H152050   4.217   3.994  11.588  0.7646  0.2612 -0.7950
 9285TIP3    H252051   4.149   3.858  11.592 -0.1004  0.6846 -0.8307
 9286TIP3   OH252052   7.353   5.849  11.598  0.0131 -0.1862  0.7019
 9286TIP3    H152053   7.302   5.898  11.534  0.7190 -0.3610 -0.0131
 9286TIP3    H252054   7.441   5.846  11.561  0.2584 -0.9619  1.3130
 9287TIP3   OH252055   2.090   7.543  13.275 -0.5391 -0.3971 -0.4907
 9287TIP3    H152056   2.000   7.573  13.265 -0.6621  0.1535  1.6088
 9287TIP3    H252057   2.100   7.531  13.370  1.2465 -1.5849 -0.7820
 9288TIP3   OH252058   5.858   7.008  12.529  0.1969 -0.1735  0.1061
 9288TIP3    H152059   5.766   6.982  12.529  0.0428  0.0987  2.7213
 9288TIP3    H252060   5.858   7.096  12.568  1.5690 -0.2383  0.3135
 9289TIP3   OH252061   0.027   5.053  11.331  0.1357  0.5089 -0.2747
 9289TIP3    H152062   0.093   5.003  11.379 -0.8979 -0.7182 -0.0656
 9289TIP3    H252063   0.064   5.065  11.244 -0.7381 -3.4316 -1.4228
 9290TIP3   OH252064   1.826   1.741  10.551  0.5953 -0.7203  0.2831
 9290TIP3    H152065   1.911   1.781  10.565  0.6447  0.3775 -2.5052
 9290TIP3    H252066   1.845   1.650  10.528  1.2116 -0.1297 -1.7590
 9291TIP3   OH252067   3.685   1.811  11.494  0.0740 -0.0503 -0.0927
 9291TIP3    H152068   3.622   1.751  11.456 -0.5203  0.0935  0.6495
 9291TIP3    H252069   3.764   1.759  11.507  0.9282  0.3125 -3.1565
 9292TIP3   OH252070   6.625   0.628  12.123  0.0672 -0.1485 -0.1735
 9292TIP3    H152071   6.593   0.719  12.126 -0.9339 -0.4985  0.1642
 9292TIP3    H252072   6.717   0.635  12.148 -0.6115  0.5139  2.4321
 9293TIP3   OH252073   5.755   5.702  12.462 -0.0216  0.1069  0.6501
 9293TIP3    H152074   5.715   5.742  12.539 -0.8370  0.8214 -0.1071
 9293TIP3    H252075   5.847   5.728  12.467 -0.1073  0.3080  1.2780
 9294TIP3   OH252076   4.998   6.773  12.943 -0.3019  0.2336 -0.3958
 9294TIP3    H152077   5.092   6.764  12.960 -0.5486 -0.4012  0.7118
 9294TIP3    H252078   4.972   6.850  12.993 -0.5215 -0.0537 -0.0662
 9295TIP3   OH252079   4.659   2.840  12.577 -0.0735  0.4087 -0.2335
 9295TIP3    H152080   4.662   2.902  12.504  0.7822  0.0752 -0.4899
 9295TIP3    H252081   4.677   2.893  12.655  1.2679  0.4009 -0.5174
 9296TIP3   OH252082   5.871   3.462  11.136 -0.2155  0.2102 -0.0156
 9296TIP3    H152083   5.873   3.391  11.073 -0.2706  0.2240 -0.0333
 9296TIP3    H252084   5.780   3.493  11.134  0.1407  1.2497 -1.0849
 9297TIP3   OH252085   4.253   4.235  11.005  0.0458  0.4211 -0.3512
 9297TIP3    H152086   4.326   4.244  11.066  0.3784  0.5500 -0.7668
 9297TIP3    H252087   4.203   4.316  11.014  0.1973  0.5178 -0.3836
 9298TIP3   OH252088   1.858   6.198  11.435  0.4266  0.8611  0.2773
 9298TIP3    H152089   1.824   6.118  11.476  0.3324  1.0863  0.6410
 9298TIP3    H252090   1.882   6.254  11.509  2.2106  0.4530  0.0526
 9299TIP3   OH252091   6.626   0.467  11.248  0.2742  0.4786 -0.0082
 9299TIP3    H152092   6.618   0.551  11.292  0.9792 -0.5820  2.3589
 9299TIP3    H252093   6.711   0.433  11.278 -0.0519 -1.1183 -0.7710
 9300TIP3   OH252094   0.917   5.193  11.618  0.5814  0.2240  0.4145
 9300TIP3    H152095   0.924   5.101  11.644  0.8612  0.6061  1.7584
 9300TIP3    H252096   0.823   5.209  11.608  0.4225  0.2107  1.7887
 9301TIP3   OH252097   4.963   4.211  11.441  0.4784 -0.1191  0.0768
 9301TIP3    H152098   4.950   4.305  11.445  0.6316 -0.0544 -0.6519
 9301TIP3    H252099   5.001   4.187  11.525 -2.0445  0.0379  1.3596
 9302TIP3   OH252100   1.573   3.408  11.334 -0.3031 -0.0529 -0.2306
 9302TIP3    H152101   1.617   3.409  11.419 -1.6822 -1.3152  0.5455
 9302TIP3    H252102   1.601   3.489  11.292  1.6278 -0.1229  0.7706
 9303TIP3   OH252103   5.757   3.406  10.739  0.6432 -0.1473  0.0616
 9303TIP3    H152104   5.723   3.338  10.681  1.1920  0.6049 -1.1697
 9303TIP3    H252105   5.834   3.441  10.694  1.3419  0.1726  1.4424
 9304TIP3   OH252106   2.546   5.158  11.747  0.1507  0.1218 -0.5867
 9304TIP3    H152107   2.603   5.213  11.694  1.8875  0.3194  1.4027
 9304TIP3    H252108   2.605   5.097  11.791 -1.2690 -0.3059  0.8026
 9305TIP3   OH252109   6.095   5.266  12.022 -0.7012 -1.3237  0.0661
 9305TIP3    H152110   6.081   5.283  11.929 -1.9210  1.0384  0.6116
 9305TIP3    H252111   6.012   5.230  12.054 -0.7586 -0.8276  0.4953
 9306TIP3   OH252112   1.194   5.855  12.763  0.8739 -0.1025 -0.1645
 9306TIP3    H152113   1.157   5.943  12.761  1.8167  0.3014 -0.5072
 9306TIP3    H252114   1.166   5.818  12.847  0.5557  0.5582  0.0209
 9307TIP3   OH252115   0.731   3.512  10.755 -0.3254 -0.1298 -0.0643
 9307TIP3    H152116   0.642   3.508  10.720 -0.1990 -1.9244 -0.2819
 9307TIP3    H252117   0.754   3.604  10.751 -2.4882  0.5137  0.8059
 9308TIP3   OH252118   4.157   3.774  12.916 -0.2939  0.0632 -0.7297
 9308TIP3    H152119   4.123   3.861  12.936 -0.0059  0.5568 -2.2700
 9308TIP3    H252120   4.079   3.721  12.901 -0.5053 -0.2127  1.0934
 9309TIP3   OH252121   4.504   7.450  10.725 -0.4210 -0.0862 -0.5027
 9309TIP3    H152122   4.536   7.453  10.815 -1.6044 -0.1698 -0.0714
 9309TIP3    H252123   4.428   7.508  10.724 -0.7532 -0.5184 -1.3083
 9310TIP3   OH252124   0.470   3.286  10.454  0.4658 -0.0825  0.3005
 9310TIP3    H152125   0.390   3.274  10.505  0.9347 -0.9213  0.8608
 9310TIP3    H252126   0.440   3.322  10.371 -0.6077 -1.2909  0.1289
 9311TIP3   OH252127   3.149   7.601  12.707  0.3266  0.2771  0.1183
 9311TIP3    H152128   3.180   7.692  12.707  0.5292  0.2376  1.6560
 9311TIP3    H252129   3.074   7.602  12.766  0.4180 -0.5725  0.2595
 9312TIP3   OH252130   0.271   2.697  11.323  0.0619  0.0490  0.1851
 9312TIP3    H152131   0.287   2.644  11.401  1.3532 -0.5027 -0.4263
 9312TIP3    H252132   0.178   2.718  11.327 -0.4158 -1.9810  0.6367
 9313TIP3   OH252133   5.088   6.486  11.883  0.3990 -0.0224  0.1052
 9313TIP3    H152134   5.013   6.451  11.834 -0.2287  0.8975  0.3948
 9313TIP3    H252135   5.152   6.508  11.815  0.4897 -0.9503 -0.1361
 9314TIP3   OH252136   4.541   2.358  12.095 -0.4267 -0.2096  0.2435
 9314TIP3    H152137   4.588   2.439  12.111 -1.9734  1.0504 -1.1876
 9314TIP3    H252138   4.608   2.290  12.096  0.7289  0.8795  2.6960
 9315TIP3   OH252139   0.131   5.117  11.085 -0.0422  0.1486  0.2612
 9315TIP3    H152140   0.068   5.115  11.012  0.3755  0.9829 -0.1330
 9315TIP3    H252141   0.205   5.065  11.054 -0.8222 -1.5008  1.0283
 9316TIP3   OH252142   5.746   3.858  10.501  0.9584  0.4255 -0.1024
 9316TIP3    H152143   5.691   3.925  10.542 -0.1299  0.0989 -0.9855
 9316TIP3    H252144   5.823   3.853  10.557  0.1672  1.0120  1.0793
 9317TIP3   OH252145   3.197   5.458  11.445 -0.2633  0.5672 -0.4962
 9317TIP3    H152146   3.221   5.551  11.447  0.9886  0.2561  0.4328
 9317TIP3    H252147   3.137   5.450  11.371 -0.0347  2.0406 -0.8680
 9318TIP3   OH252148   7.106   7.198  11.222  0.2495 -0.0289 -0.0807
 9318TIP3    H152149   7.091   7.123  11.164  0.1247  1.0375 -1.4529
 9318TIP3    H252150   7.039   7.189  11.290 -0.0056 -0.9324 -0.4352
 9319TIP3   OH252151   1.945   6.825  12.109 -0.0573 -0.1871 -0.4970
 9319TIP3    H152152   2.041   6.826  12.114 -0.0632 -0.6335 -0.2364
 9319TIP3    H252153   1.919   6.752  12.166 -0.5705  0.1867 -0.2477
 9320TIP3   OH252154   1.728   3.093  12.536  0.1094 -0.1150 -0.2899
 9320TIP3    H152155   1.671   3.159  12.576  2.1818  0.4874  1.8932
 9320TIP3    H252156   1.785   3.143  12.478 -0.5915 -0.5093 -1.3331
 9321TIP3   OH252157   4.521   6.121  12.140  1.0157 -0.2193  0.1837
 9321TIP3    H152158   4.608   6.159  12.151  1.5282 -0.6203 -1.9351
 9321TIP3    H252159   4.487   6.162  12.060 -0.3740 -0.7257  0.4844
 9322TIP3   OH252160   6.186   1.092  11.137  0.7162 -0.1893  0.2652
 9322TIP3    H152161   6.129   1.023  11.170  1.3221 -0.6089  0.4600
 9322TIP3    H252162   6.202   1.068  11.045  2.6235 -1.5158  0.8720
 9323TIP3   OH252163   3.018   4.686  11.677  0.3797 -0.1466  0.5148
 9323TIP3    H152164   3.075   4.692  11.600  0.4666  0.8539  0.6434
 9323TIP3    H252165   2.933   4.718  11.647  0.5934  0.9184  0.9948
 9324TIP3   OH252166   3.078   0.911  12.660  0.0362  0.4653  0.4782
 9324TIP3    H152167   3.091   0.969  12.735 -0.7542  1.0089  0.2070
 9324TIP3    H252168   3.036   0.966  12.594 -0.3430 -0.3000  0.0626
 9325TIP3   OH252169   3.138   2.141  10.744 -0.1830 -0.1823 -0.1354
 9325TIP3    H152170   3.074   2.157  10.674 -0.4618  0.5853  0.2748
 9325TIP3    H252171   3.190   2.222  10.747 -0.2952 -0.1351  0.6595
 9326TIP3   OH252172   6.603   2.813  11.719 -0.2631 -0.3796 -0.0635
 9326TIP3    H152173   6.674   2.864  11.757 -0.0027 -0.1568 -0.8374
 9326TIP3    H252174   6.597   2.843  11.628  0.9724 -2.8144 -1.0521
 9327TIP3   OH252175   3.583   0.192  12.970 -0.2942  0.6876  0.3463
 9327TIP3    H152176   3.662   0.236  12.999 -0.1377  0.7433 -0.1529
 9327TIP3    H252177   3.519   0.208  13.039  0.9548 -1.9157  2.2955
 9328TIP3   OH252178   7.625   4.826  10.739  0.4083  0.3226 -0.1129
 9328TIP3    H152179   7.636   4.736  10.771  0.3143 -0.2141 -1.5211
 9328TIP3    H252180   7.531   4.837  10.731  0.3724  0.8657  0.8565
 9329TIP3   OH252181   1.698   0.257  12.875 -0.8107 -0.1375 -0.0964
 9329TIP3    H152182   1.763   0.326  12.859 -1.0886  0.3883  0.9710
 9329TIP3    H252183   1.743   0.193  12.929 -0.2210 -1.3657 -1.9319
 9330TIP3   OH252184   4.411   6.279  11.917 -0.2837 -0.3569  0.2796
 9330TIP3    H152185   4.320   6.274  11.945 -0.3165  1.4538  0.6037
 9330TIP3    H252186   4.420   6.211  11.850 -1.8541 -0.5609  0.2558
 9331TIP3   OH252187   6.856   2.428  10.353  0.0746  0.3941  0.2679
 9331TIP3    H152188   6.857   2.338  10.385 -0.2437  0.7906  1.4755
 9331TIP3    H252189   6.946   2.458  10.363  1.0446 -0.8184 -3.4214
 9332TIP3   OH252190   6.531   0.236  11.363 -0.5772 -0.2756 -0.2946
 9332TIP3    H152191   6.518   0.298  11.292 -0.1799  0.0013 -0.1279
 9332TIP3    H252192   6.533   0.150  11.319  0.5408 -0.0396 -0.7283
 9333TIP3   OH252193   2.270   2.918  11.191 -0.1951  0.1967  0.0711
 9333TIP3    H152194   2.273   2.942  11.099  0.7040 -0.6840 -0.1486
 9333TIP3    H252195   2.329   2.980  11.234 -1.5307  1.3810  0.2700
 9334TIP3   OH252196   1.951   4.464  10.667  0.5044  0.2235 -0.1122
 9334TIP3    H152197   1.957   4.374  10.697  1.2401  0.8719  1.8382
 9334TIP3    H252198   2.001   4.466  10.585 -0.1719 -1.2718 -0.5847
 9335TIP3   OH252199   6.655   3.738  10.699 -0.2122 -0.4466 -0.4008
 9335TIP3    H152200   6.714   3.781  10.760  0.6038 -0.2637 -1.3035
 9335TIP3    H252201   6.608   3.810  10.656 -1.6594 -0.6019  0.8223
 9336TIP3   OH252202   0.394   1.550  12.322 -0.7311  0.2157 -0.0671
 9336TIP3    H152203   0.304   1.518  12.326 -0.0596 -2.0056 -1.2517
 9336TIP3    H252204   0.392   1.633  12.370 -3.2804 -0.0223  0.3682
 9337TIP3   OH252205   2.945   3.468  13.542  0.1166 -0.1594 -0.5937
 9337TIP3    H152206   2.937   3.372  13.545  0.5782 -0.1942 -0.3637
 9337TIP3    H252207   3.002   3.490  13.615 -1.2338  0.4481  0.3057
 9338TIP3   OH252208   7.025   5.994  11.061  0.5988  0.1087 -0.1415
 9338TIP3    H152209   7.064   6.081  11.063  0.3729  0.2220 -0.5928
 9338TIP3    H252210   6.988   5.986  10.973  2.0500 -1.0637 -0.6916
 9339TIP3   OH252211   0.876   3.917  10.419 -0.3690 -0.3163  0.2967
 9339TIP3    H152212   0.893   3.961  10.502 -0.1100  0.3896 -0.1188
 9339TIP3    H252213   0.942   3.847  10.415  0.8113  0.7773 -0.1205
 9340TIP3   OH252214   6.202   3.170  10.368  0.2038  0.6684 -0.5082
 9340TIP3    H152215   6.131   3.234  10.377 -0.5805 -0.4188  2.2692
 9340TIP3    H252216   6.186   3.128  10.284 -1.2773  1.7864 -0.8348
 9341TIP3   OH252217   4.206   1.709  10.725 -0.2124 -0.5660 -0.0718
 9341TIP3    H152218   4.193   1.701  10.630  1.1392  0.4052 -0.3699
 9341TIP3    H252219   4.188   1.801  10.744 -1.5420 -0.9788  0.8273
 9342TIP3   OH252220   3.362   5.562  13.307  0.4481  0.2095  0.4698
 9342TIP3    H152221   3.290   5.623  13.322 -0.5504 -0.5387 -1.0050
 9342TIP3    H252222   3.344   5.489  13.365 -0.3860 -0.2724 -0.3689
 9343TIP3   OH252223   6.970   4.685  13.375  0.6946 -0.1940  0.2662
 9343TIP3    H152224   6.909   4.750  13.411  0.9445 -0.8843  2.0111
 9343TIP3    H252225   7.032   4.736  13.323  1.0320  1.0281  1.7950
 9344TIP3   OH252226   0.506   6.873  11.921  0.1370 -0.0777  0.3484
 9344TIP3    H152227   0.456   6.873  11.839  0.1267 -1.5017  0.3229
 9344TIP3    H252228   0.593   6.904  11.897  0.4749 -1.5594 -0.4551
 9345TIP3   OH252229   0.544   0.697  11.132  0.2558  0.4018  0.0395
 9345TIP3    H152230   0.469   0.730  11.180  0.6759  1.5756 -0.0657
 9345TIP3    H252231   0.520   0.608  11.107 -1.0093  0.6903  0.1742
 9346TIP3   OH252232   3.408   4.390  12.130 -0.3481  0.9632 -0.5161
 9346TIP3    H152233   3.365   4.318  12.085  0.2854  0.9724 -1.1560
 9346TIP3    H252234   3.490   4.403  12.083  0.4448  0.8407  0.7719
 9347TIP3   OH252235   1.417   5.472  11.513  0.3864  0.1154 -0.4728
 9347TIP3    H152236   1.367   5.552  11.503 -0.5047 -0.4527 -0.6442
 9347TIP3    H252237   1.358   5.412  11.559  1.4303 -0.0884  0.6576
 9348TIP3   OH252238   7.595   2.450  10.791 -0.5476 -0.2307  0.0908
 9348TIP3    H152239   7.533   2.418  10.857 -0.4904  0.0044  0.2593
 9348TIP3    H252240   7.657   2.504  10.840 -1.5076  1.3770 -0.3890
 9349TIP3   OH252241   6.866   4.768  12.440  0.0702  0.0468  0.0076
 9349TIP3    H152242   6.915   4.690  12.417 -0.1221 -0.0806  0.0234
 9349TIP3    H252243   6.774   4.740  12.439  0.0481  0.0746  0.7795
 9350TIP3   OH252244   3.280   3.113  12.478  0.0712  0.2812  0.7961
 9350TIP3    H152245   3.363   3.079  12.511  0.0713  0.1385  0.6532
 9350TIP3    H252246   3.271   3.072  12.392  0.1437  0.7605  0.5586
 9351TIP3   OH252247   6.153   3.848  11.855  0.2468  0.2662  0.1499
 9351TIP3    H152248   6.220   3.813  11.914 -0.4125 -0.7696  0.3140
 9351TIP3    H252249   6.190   3.837  11.767  0.0647 -0.8644  0.1974
 9352TIP3   OH252250   3.822   4.764  11.800  0.4211  0.4152 -0.3085
 9352TIP3    H152251   3.794   4.672  11.801 -0.1068  0.5352  1.9617
 9352TIP3    H252252   3.806   4.793  11.711  0.9533 -1.7927 -1.1837
 9353TIP3   OH252253   4.853   1.849  10.802 -0.6851  0.2906  0.1863
 9353TIP3    H152254   4.811   1.930  10.832  1.4090  1.1648  0.9561
 9353TIP3    H252255   4.791   1.780  10.824 -3.1522  1.7249 -1.6955
 9354TIP3   OH252256   0.880   6.029  13.161  0.3635 -0.3440  0.0426
 9354TIP3    H152257   0.946   5.967  13.193  1.7494  0.1581 -1.6786
 9354TIP3    H252258   0.868   6.091  13.233  0.8305 -1.1497  0.8431
 9355TIP3   OH252259   6.887   5.174  13.235 -0.1357  0.3553 -0.0394
 9355TIP3    H152260   6.908   5.089  13.196  0.1718 -0.0685  1.0223
 9355TIP3    H252261   6.795   5.168  13.259  0.3084 -0.3315  1.6032
 9356TIP3   OH252262   5.373   1.030  10.896  0.0574 -0.1603  0.3612
 9356TIP3    H152263   5.427   1.091  10.846 -1.9270 -0.5761 -2.5713
 9356TIP3    H252264   5.385   0.946  10.852 -0.5115 -0.9464  1.6543
 9357TIP3   OH252265   6.321   5.935  12.729 -0.4182 -0.1456  0.1718
 9357TIP3    H152266   6.394   5.997  12.724 -1.5704  1.2944  0.4264
 9357TIP3    H252267   6.290   5.926  12.639  0.0326 -0.7083  0.0724
 9358TIP3   OH252268   1.014   0.608  12.387  0.2156 -0.8047 -0.1720
 9358TIP3    H152269   0.995   0.514  12.391  0.2767 -0.9301 -2.0548
 9358TIP3    H252270   0.999   0.632  12.296  1.4062  0.7663  0.0009
 9359TIP3   OH252271   3.872   6.415  10.957 -0.0554 -0.3616  0.2144
 9359TIP3    H152272   3.922   6.451  10.883 -0.9052 -0.4968 -0.4405
 9359TIP3    H252273   3.863   6.489  11.017 -0.2885  0.0517 -0.3197
 9360TIP3   OH252274   4.425   1.963  10.807  0.0320 -0.4553  0.5210
 9360TIP3    H152275   4.427   2.058  10.796 -0.1550 -0.5998 -1.0053
 9360TIP3    H252276   4.449   1.948  10.899  1.3077  0.9958  0.4619
 9361TIP3   OH252277   2.483   6.825  11.507 -0.3973  0.4952 -0.5331
 9361TIP3    H152278   2.522   6.861  11.587 -0.8081  0.0005 -0.1003
 9361TIP3    H252279   2.552   6.832  11.441 -0.3021  1.6110 -0.3386
 9362TIP3   OH252280   2.502   0.691  12.446  0.6005 -0.7897  0.3923
 9362TIP3    H152281   2.574   0.629  12.443  2.4267  1.2419 -0.3709
 9362TIP3    H252282   2.535   0.765  12.498 -0.2848  0.8670 -1.2573
 9363TIP3   OH252283   4.666   4.681  11.152 -0.2067  0.2330 -0.5143
 9363TIP3    H152284   4.603   4.735  11.199  0.7465 -0.9329  2.2643
 9363TIP3    H252285   4.752   4.717  11.176  0.3706 -1.3671 -0.0729
 9364TIP3   OH252286   6.502   4.483  10.458 -0.0992 -0.3200  0.3342
 9364TIP3    H152287   6.467   4.459  10.373  0.1412 -1.0153  0.4226
 9364TIP3    H252288   6.597   4.469  10.450 -0.1066 -0.6913  0.8034
 9365TIP3   OH252289   2.189   3.956  13.329  0.0687 -0.4384 -0.7519
 9365TIP3    H152290   2.239   3.882  13.363 -0.8430 -1.2011 -1.0326
 9365TIP3    H252291   2.151   3.997  13.406  1.1818  0.2033 -0.5276
 9366TIP3   OH252292   6.070   3.102  11.955  0.2612  0.3399 -0.3096
 9366TIP3    H152293   6.035   3.189  11.934 -0.1771  0.2173 -0.0887
 9366TIP3    H252294   6.125   3.117  12.033  0.4906  0.4816 -0.4938
 9367TIP3   OH252295   2.139   0.446  11.005  0.0572  0.5441  0.2446
 9367TIP3    H152296   2.116   0.372  11.062  0.3684 -1.1348 -1.6715
 9367TIP3    H252297   2.061   0.458  10.951  0.3839  0.9481 -0.1351
 9368TIP3   OH252298   1.943   4.101  12.758 -0.0940 -0.2751 -0.6764
 9368TIP3    H152299   1.895   4.098  12.675 -0.2938  1.2007 -0.6540
 9368TIP3    H252300   1.907   4.030  12.810 -1.1904 -0.1415 -1.2326
 9369TIP3   OH252301   1.951   0.286  12.517 -0.4470  0.4376 -0.2678
 9369TIP3    H152302   1.882   0.319  12.574  0.3967 -0.3249  1.2391
 9369TIP3    H252303   2.015   0.357  12.511  0.5472 -0.2574  1.5941
 9370TIP3   OH252304   6.807   5.870  10.603 -0.2124  1.0196  0.0978
 9370TIP3    H152305   6.724   5.822  10.611 -0.3359  1.0333 -0.9971
 9370TIP3    H252306   6.867   5.806  10.565  0.7345  0.5253  2.2896
 9371TIP3   OH252307   5.706   6.735  12.148  0.2363 -0.0964  0.0153
 9371TIP3    H152308   5.702   6.697  12.236  2.0325 -0.8761 -0.1820
 9371TIP3    H252309   5.775   6.801  12.154  2.1841 -1.8649 -1.3264
 9372TIP3   OH252310   0.859   1.956  10.721 -0.5919  0.1653  0.1943
 9372TIP3    H152311   0.880   1.864  10.737  0.8336  0.4509  0.0973
 9372TIP3    H252312   0.768   1.964  10.748 -1.2616 -1.6404 -1.3288
 9373TIP3   OH252313   7.302   1.248  12.793  1.0707  0.9533  0.3442
 9373TIP3    H152314   7.261   1.323  12.836  0.6258  1.7910 -1.4553
 9373TIP3    H252315   7.373   1.223  12.852 -0.6489  0.7999  2.4964
 9374TIP3   OH252316   0.154   3.443  12.249  0.5853  0.0373 -0.1596
 9374TIP3    H152317   0.168   3.518  12.191 -0.9523  1.0895  0.7893
 9374TIP3    H252318   0.211   3.460  12.324 -0.2425  0.6106  0.3528
 9375TIP3   OH252319   2.484   6.747  11.994  0.6402 -0.0337 -0.4180
 9375TIP3    H152320   2.505   6.703  11.912  1.1024  1.0842 -0.9189
 9375TIP3    H252321   2.569   6.769  12.032  0.4346  1.5539 -0.8177
 9376TIP3   OH252322   0.395   3.790  12.800  0.1546 -0.1773  0.0635
 9376TIP3    H152323   0.364   3.708  12.840  3.2543 -1.3028  0.5137
 9376TIP3    H252324   0.407   3.768  12.708  0.1991 -0.0003  0.0277
 9377TIP3   OH252325   0.537   5.338  12.472  0.3092  0.3468 -0.2160
 9377TIP3    H152326   0.506   5.248  12.481  1.2000 -0.0566 -1.0217
 9377TIP3    H252327   0.492   5.386  12.541  0.4198 -0.8634  0.7185
 9378TIP3   OH252328   6.230   6.227  11.326 -0.3686  0.0863 -0.3300
 9378TIP3    H152329   6.198   6.190  11.408  0.9812  1.5860  0.9388
 9378TIP3    H252330   6.324   6.210  11.326 -0.0297  1.7463 -0.6293
 9379TIP3   OH252331   2.050   3.450  12.620 -0.1229 -0.0665 -0.4766
 9379TIP3    H152332   2.073   3.476  12.709  0.5331  1.9943 -1.1914
 9379TIP3    H252333   1.975   3.505  12.598 -0.9013 -1.2463 -0.9082
 9380TIP3   OH252334   4.981   0.885  11.518 -0.3521  0.0580  0.2686
 9380TIP3    H152335   4.977   0.803  11.568 -0.1369 -0.2685 -0.2378
 9380TIP3    H252336   4.972   0.953  11.584  1.3192 -0.3249  0.9684
 9381TIP3   OH252337   5.365   7.373  11.398 -0.8147 -0.5003  0.2098
 9381TIP3    H152338   5.397   7.284  11.387  2.2607  0.4858  0.3661
 9381TIP3    H252339   5.433   7.418  11.447 -2.3532  1.9117  0.3207
 9382TIP3   OH252340   1.075   7.093  12.525 -0.3874  0.3122  0.0288
 9382TIP3    H152341   1.136   7.033  12.568  0.4379  1.2629  0.2219
 9382TIP3    H252342   1.000   7.039  12.501  1.6544 -1.5343 -2.7635
 9383TIP3   OH252343   0.951   1.981  12.793 -0.0685  0.1063  0.1754
 9383TIP3    H152344   1.042   1.999  12.770 -0.3816  1.3066 -0.2067
 9383TIP3    H252345   0.902   2.052  12.752 -1.1312 -0.2763  0.7521
 9384TIP3   OH252346   1.270   1.820  11.862 -0.3554 -0.2218 -0.4935
 9384TIP3    H152347   1.233   1.890  11.916  1.7218 -0.4835  1.3991
 9384TIP3    H252348   1.201   1.754  11.859 -1.6364  1.0700 -0.7171
 9385TIP3   OH252349   6.413   0.035  12.839 -0.0245  0.3460 -0.0062
 9385TIP3    H152350   6.480   0.040  12.772 -0.1610 -0.1278 -0.1862
 9385TIP3    H252351   6.356   0.110  12.823 -0.2495  0.0415 -0.6291
 9386TIP3   OH252352   1.260   6.871  11.625  0.1378  0.1489 -0.0216
 9386TIP3    H152353   1.327   6.915  11.573  0.4429  0.0258  0.2669
 9386TIP3    H252354   1.305   6.843  11.704 -0.7896  2.1932  1.2994
 9387TIP3   OH252355   2.063   0.673  11.589  0.2867 -0.9340  0.2008
 9387TIP3    H152356   2.091   0.697  11.677  1.3217  0.3386 -0.4302
 9387TIP3    H252357   1.968   0.665  11.595  0.4059 -1.4491  1.5558
 9388TIP3   OH252358   1.904   1.497  10.406  0.7014  0.7906  0.0295
 9388TIP3    H152359   1.873   1.406  10.397 -1.6477  1.5942 -0.7159
 9388TIP3    H252360   1.999   1.490  10.401  0.6142 -1.6703  0.3588
 9389TIP3   OH252361   6.436   2.470  10.716 -0.3990 -0.2832 -0.0716
 9389TIP3    H152362   6.433   2.566  10.712 -1.2363 -0.3159 -0.4321
 9389TIP3    H252363   6.350   2.442  10.684 -0.0290 -1.1661 -0.3249
 9390TIP3   OH252364   3.517   4.062  11.939  0.1897 -0.1876  0.1324
 9390TIP3    H152365   3.503   4.073  11.845 -1.8832 -0.3831  0.3639
 9390TIP3    H252366   3.438   4.098  11.979  1.0096 -0.1630  1.8026
 9391TIP3   OH252367   4.392   3.162  12.974  0.1455  0.5552  0.4482
 9391TIP3    H152368   4.365   3.072  12.956  0.9981  0.6139 -1.3121
 9391TIP3    H252369   4.478   3.171  12.932  0.6813  1.8100  1.7284
 9392TIP3   OH252370   0.247   4.904  11.997 -0.2227  0.8575 -0.0309
 9392TIP3    H152371   0.162   4.892  12.040  0.6427 -3.2874  0.9315
 9392TIP3    H252372   0.286   4.979  12.042 -1.5316 -0.0553  2.8921
 9393TIP3   OH252373   0.733   1.049  10.772  0.3860 -0.6697 -0.0144
 9393TIP3    H152374   0.649   1.044  10.726  0.0296  0.3422  0.4895
 9393TIP3    H252375   0.721   0.997  10.851 -0.4254  0.9910  0.9984
 9394TIP3   OH252376   0.319   4.518  10.631  0.4500  0.2085 -0.1694
 9394TIP3    H152377   0.267   4.551  10.558 -2.3412 -2.1945  0.5324
 9394TIP3    H252378   0.326   4.592  10.691  1.9709  1.9474 -2.3102
 9395TIP3   OH252379   1.148   5.450  12.305 -0.0279 -0.8483  0.3125
 9395TIP3    H152380   1.110   5.389  12.242 -2.2402 -1.0978  1.8011
 9395TIP3    H252381   1.088   5.524  12.307  1.7494  0.6813 -0.2388
 9396TIP3   OH252382   0.112   2.765  11.970  0.1850 -0.3329  0.4234
 9396TIP3    H152383   0.146   2.775  11.881  0.7151 -1.1935  0.5184
 9396TIP3    H252384   0.036   2.708  11.961  0.3991 -0.6434  0.5468
 9397TIP3   OH252385   2.595   5.966  13.162 -0.3074 -0.0811 -0.1797
 9397TIP3    H152386   2.521   5.905  13.172  0.7713 -1.6859 -1.5423
 9397TIP3    H252387   2.642   5.960  13.246  0.0485 -1.5190 -0.4626
 9398TIP3   OH252388   4.056   0.699  12.062 -0.1449 -0.0111  0.3473
 9398TIP3    H152389   4.015   0.681  11.977  0.0515  1.0533  0.0002
 9398TIP3    H252390   4.147   0.719  12.041  0.2598 -1.1300  0.9759
 9399TIP3   OH252391   1.804   0.870  12.350  0.0349  0.3739 -0.6323
 9399TIP3    H152392   1.757   0.786  12.350 -0.0996  0.4474 -0.3046
 9399TIP3    H252393   1.783   0.909  12.436  2.9217 -0.8344  0.7446
 9400TIP3   OH252394   1.377   6.779  10.997  0.1641  0.9297  0.3057
 9400TIP3    H152395   1.327   6.763  10.917 -0.2794  1.4318  0.4745
 9400TIP3    H252396   1.403   6.692  11.027  0.9770  0.7771 -0.7812
 9401TIP3   OH252397   2.922   0.993  10.398 -0.2801  0.6939 -0.1483
 9401TIP3    H152398   2.919   0.905  10.359  0.0080  0.2904  0.7093
 9401TIP3    H252399   2.996   0.990  10.458  0.1078  1.7242 -0.5554
 9402TIP3   OH252400   5.432   1.674  10.729  0.3572  0.0421  0.1928
 9402TIP3    H152401   5.491   1.613  10.773 -0.0491 -0.0626  0.6028
 9402TIP3    H252402   5.347   1.659  10.771  0.0138  0.1058 -0.4698
 9403TIP3   OH252403   3.815   5.549  11.489 -0.1197  0.3448  0.0038
 9403TIP3    H152404   3.813   5.531  11.395  0.3823 -0.5915  0.1633
 9403TIP3    H252405   3.839   5.466  11.529 -0.9387  0.5767  1.0125
 9404TIP3   OH252406   7.297   4.247  12.972  0.1128  0.9286  0.8742
 9404TIP3    H152407   7.207   4.216  12.973  0.3693  0.1404  0.4337
 9404TIP3    H252408   7.293   4.336  13.008 -0.8519  0.9496  0.7269
 9405TIP3   OH252409   6.907   0.145  12.584  0.5295 -0.0645  0.1314
 9405TIP3    H152410   6.897   0.135  12.489  1.0750  3.3806 -0.4343
 9405TIP3    H252411   6.821   0.124  12.620  0.3984 -1.7419 -1.0388
 9406TIP3   OH252412   4.867   5.989  11.702  0.4226  0.0551 -0.0564
 9406TIP3    H152413   4.955   5.991  11.740  0.4510 -1.5784  0.0199
 9406TIP3    H252414   4.868   6.058  11.636  0.9701  1.7077  1.5848
 9407TIP3   OH252415   6.375   1.884  11.587 -0.3638 -0.0155  0.4528
 9407TIP3    H152416   6.431   1.943  11.638 -0.1297  1.6831 -1.5752
 9407TIP3    H252417   6.424   1.803  11.582  0.5301  0.4573  1.2067
 9408TIP3   OH252418   0.359   0.770  12.595  0.4627  0.2304  0.1615
 9408TIP3    H152419   0.400   0.735  12.674  0.3524 -0.3223 -0.0263
 9408TIP3    H252420   0.430   0.817  12.551  0.9371 -0.8395 -0.2316
 9409TIP3   OH252421   4.585   7.304  12.375 -0.2613  0.2010 -0.2989
 9409TIP3    H152422   4.511   7.243  12.376 -1.0798  1.1896  0.5450
 9409TIP3    H252423   4.585   7.340  12.286 -1.0330  0.4971 -0.1770
 9410TIP3   OH252424   5.866   5.464  11.388 -0.3966  0.2155  0.7929
 9410TIP3    H152425   5.817   5.403  11.444  1.0229 -1.3043  0.4771
 9410TIP3    H252426   5.957   5.435  11.396  0.0159  0.7660 -1.2924
 9411TIP3   OH252427   2.948   5.283  11.909  0.0620  0.7727  0.6807
 9411TIP3    H152428   2.927   5.329  11.991  0.1587  0.4419  0.8947
 9411TIP3    H252429   3.041   5.260  11.918 -0.0303  0.3819  0.6520
 9412TIP3   OH252430   4.962   0.706  12.442 -0.3586  0.6952  0.3401
 9412TIP3    H152431   4.902   0.645  12.398 -1.5497  2.5552 -0.7670
 9412TIP3    H252432   4.955   0.683  12.535  0.7230 -2.0579 -0.1547
 9413TIP3   OH252433   0.894   4.524  11.649  0.1354  0.3589 -0.5972
 9413TIP3    H152434   0.841   4.600  11.671 -0.1920  0.0484 -0.3017
 9413TIP3    H252435   0.983   4.558  11.641  0.1463  0.6024  0.4845
 9414TIP3   OH252436   1.521   0.216  12.100 -0.3582 -0.1435  0.0629
 9414TIP3    H152437   1.525   0.126  12.132 -0.4580  0.1000  0.7910
 9414TIP3    H252438   1.532   0.269  12.179  1.0627  0.4893 -0.5267
 9415TIP3   OH252439   7.603   3.067  10.664  0.0822  0.4093  0.3452
 9415TIP3    H152440   7.517   3.025  10.666  0.8474 -1.5405 -2.2490
 9415TIP3    H252441   7.618   3.086  10.572  2.3646  0.8738  0.7620
 9416TIP3   OH252442   4.862   2.278  13.317  0.1300 -0.0483 -0.5209
 9416TIP3    H152443   4.842   2.287  13.411 -1.3625  0.5741 -0.8741
 9416TIP3    H252444   4.918   2.353  13.298 -0.9497  0.7993 -0.4659
 9417TIP3   OH252445   7.053   3.146  11.715 -0.1305 -0.0702 -0.0511
 9417TIP3    H152446   6.999   3.176  11.642 -1.2176  2.7008  1.7652
 9417TIP3    H252447   7.002   3.075  11.755 -2.0201  1.7687  0.9685
 9418TIP3   OH252448   6.795   2.412  12.631  0.4898 -0.2080 -0.5509
 9418TIP3    H152449   6.830   2.396  12.718  0.6471  1.5122 -0.2537
 9418TIP3    H252450   6.873   2.418  12.575  0.5768  1.2088 -0.3221
 9419TIP3   OH252451   7.370   0.966  12.226 -0.0304 -0.5408  0.4939
 9419TIP3    H152452   7.393   0.880  12.264 -0.6706 -0.7968  0.3174
 9419TIP3    H252453   7.327   0.945  12.144  1.5969  0.0234 -0.5522
 9420TIP3   OH252454   0.588   4.932  13.010  0.0514 -0.1164 -0.2507
 9420TIP3    H152455   0.572   4.986  12.933 -2.1615 -0.6583 -0.2301
 9420TIP3    H252456   0.524   4.963  13.075  0.8485 -0.6856  0.8523
 9421TIP3   OH252457   4.309   0.617  12.515  0.2596  0.2096 -0.0911
 9421TIP3    H152458   4.222   0.581  12.531  0.6705  0.0127  2.0897
 9421TIP3    H252459   4.310   0.639  12.422 -1.5958 -1.1413 -0.4777
 9422TIP3   OH252460   5.455   2.551  10.702  0.0304  0.1997  0.7969
 9422TIP3    H152461   5.402   2.508  10.770  1.4032  0.8512  2.3653
 9422TIP3    H252462   5.521   2.601  10.752 -0.2012  2.4311 -0.9828
 9423TIP3   OH252463   5.935   6.039  12.363  0.2409  0.0647  0.4210
 9423TIP3    H152464   5.866   6.101  12.340  0.3427  0.5855  1.4386
 9423TIP3    H252465   6.017   6.088  12.351  0.3985 -0.3285 -0.1228
 9424TIP3   OH252466   5.594   6.924  12.764 -0.1231 -0.1506  0.6666
 9424TIP3    H152467   5.542   7.000  12.788  0.6674  0.4045  0.6502
 9424TIP3    H252468   5.684   6.950  12.781  0.2584 -0.6313 -0.5258
 9425TIP3   OH252469   0.316   4.378  12.858  0.1117 -0.2669  0.0601
 9425TIP3    H152470   0.263   4.354  12.934  1.0230 -0.8390  0.5343
 9425TIP3    H252471   0.254   4.422  12.799 -1.4141 -2.7145 -0.3350
 9426TIP3   OH252472   4.388   7.101  12.838  0.4932  0.2253 -0.3215
 9426TIP3    H152473   4.477   7.071  12.855  0.4348  0.2003 -0.0605
 9426TIP3    H252474   4.384   7.189  12.874  0.4554  0.2838 -0.4657
 9427TIP3   OH252475   1.195   7.074  10.736  0.0347 -0.3936 -0.1607
 9427TIP3    H152476   1.149   7.066  10.819  0.2699  1.2928  0.1612
 9427TIP3    H252477   1.274   7.125  10.756 -0.5419  1.1467 -1.6261
 9428TIP3   OH252478   4.879   2.377  12.443  0.3805  0.0505  0.1939
 9428TIP3    H152479   4.887   2.281  12.446 -1.8449 -0.1525  1.2822
 9428TIP3    H252480   4.853   2.395  12.352 -0.6411 -0.5326  0.3546
 9429TIP3   OH252481   6.762   1.627  11.700 -0.3572 -0.4674  0.5483
 9429TIP3    H152482   6.677   1.628  11.745 -0.1634 -1.4246  0.9487
 9429TIP3    H252483   6.824   1.662  11.765 -0.5999  1.3054 -0.1180
 9430TIP3   OH252484   6.506   0.676  10.856  0.3330 -0.3031  0.2425
 9430TIP3    H152485   6.494   0.709  10.945  1.5026  1.5357 -0.2221
 9430TIP3    H252486   6.418   0.670  10.820  0.0004  1.4883  0.6790
 9431TIP3   OH252487   6.975   1.968  13.127  0.7356 -0.1957 -0.0826
 9431TIP3    H152488   6.992   1.948  13.035 -1.2502 -0.1866 -0.4814
 9431TIP3    H252489   6.940   2.057  13.127 -0.8672 -0.7896  0.4637
 9432TIP3   OH252490   7.203   3.024  11.210 -0.1119  0.2090 -0.3892
 9432TIP3    H152491   7.165   2.954  11.158 -0.5570 -1.1555  1.6302
 9432TIP3    H252492   7.194   2.994  11.301 -0.4804  2.9719  0.5938
 9433TIP3   OH252493   6.074   3.026  12.476 -0.4053  0.4587  0.2909
 9433TIP3    H152494   6.055   3.111  12.436 -1.1457  0.4197  0.5547
 9433TIP3    H252495   6.026   2.963  12.422 -1.1133  0.3680  1.0184
 9434TIP3   OH252496   4.099   2.246  11.894  0.8684 -0.6143 -0.0701
 9434TIP3    H152497   4.100   2.340  11.913 -1.1782 -0.4896 -0.3726
 9434TIP3    H252498   4.146   2.207  11.968  2.3818  0.6613 -0.2895
 9435TIP3   OH252499   4.245   6.915  11.690  0.4301 -0.4717  0.4344
 9435TIP3    H152500   4.221   6.825  11.666 -1.2763 -0.2755  1.2375
 9435TIP3    H252501   4.338   6.921  11.670  0.7252 -2.6097  0.9164
 9436TIP3   OH252502   3.173   2.259  11.310 -0.6177  0.0500 -0.5376
 9436TIP3    H152503   3.235   2.332  11.315 -1.0481  0.3939 -0.1217
 9436TIP3    H252504   3.091   2.299  11.281 -1.2819  0.0104  1.2072
 9437TIP3   OH252505   2.866   6.654  11.523 -0.1723  0.2197  0.0113
 9437TIP3    H152506   2.885   6.748  11.530  0.4566  0.0069  1.6881
 9437TIP3    H252507   2.936   6.612  11.574 -2.1784 -0.9329  2.0059
 9438TIP3   OH252508   7.371   1.493  13.325  0.0522  0.0495 -0.1244
 9438TIP3    H152509   7.309   1.510  13.396 -0.1210  0.0690 -0.2798
 9438TIP3    H252510   7.370   1.398  13.315  1.1112 -0.0837  0.8266
 9439TIP3   OH252511   3.692   6.056  11.926 -0.2287 -0.5470 -0.0504
 9439TIP3    H152512   3.744   6.135  11.938  0.9422 -1.1897 -0.7253
 9439TIP3    H252513   3.683   6.047  11.831 -2.1738 -0.0897  0.0561
 9440TIP3   OH252514   2.533   7.059  11.028  0.2744 -0.5275 -0.0153
 9440TIP3    H152515   2.480   7.004  10.970 -0.9881 -1.1103  1.6074
 9440TIP3    H252516   2.522   7.148  10.995 -0.8278 -0.7912 -0.3887
 9441TIP3   OH252517   1.972   0.876  10.698 -0.1480  0.2950 -0.1492
 9441TIP3    H152518   1.928   0.878  10.783 -2.0019  0.3092 -1.0537
 9441TIP3    H252519   2.053   0.828  10.713 -0.1904  0.7504  1.7191
 9442TIP3   OH252520   4.001   1.264  10.174 -0.3728  0.0670  0.6725
 9442TIP3    H152521   3.955   1.338  10.134 -0.2274 -1.2335 -2.1369
 9442TIP3    H252522   4.089   1.299  10.193 -0.4469  0.7729 -0.1841
 9443TIP3   OH252523   2.057   7.642  11.202  0.1382 -0.3859  0.7564
 9443TIP3    H152524   2.005   7.624  11.281  1.1545 -0.0793  1.5191
 9443TIP3    H252525   2.128   7.578  11.205 -0.8056 -1.6094 -0.9242
 9444TIP3   OH252526   6.018   2.873  10.279 -0.0850  0.0119 -0.1440
 9444TIP3    H152527   6.005   2.851  10.371  2.0459  1.0444  0.4679
 9444TIP3    H252528   6.107   2.842  10.260 -0.6613 -0.6129 -2.0110
 9445TIP3   OH252529   6.568   0.961  10.624  0.5129  0.1610 -0.5201
 9445TIP3    H152530   6.638   0.970  10.560 -0.5601  0.2339 -1.7198
 9445TIP3    H252531   6.488   0.955  10.572 -0.5775  1.8204  0.8397
 9446TIP3   OH252532   7.505   7.455  11.955 -0.9680 -0.3541 -0.0273
 9446TIP3    H152533   7.562   7.476  11.881  0.3632 -1.1809  0.7201
 9446TIP3    H252534   7.470   7.369  11.934 -1.1197 -0.2963 -0.0083
 9447TIP3   OH252535   0.549   6.542  11.509  0.6750 -0.2712 -0.6287
 9447TIP3    H152536   0.456   6.547  11.531  0.7882 -0.8168  0.0170
 9447TIP3    H252537   0.554   6.575  11.420 -0.0606  0.2826 -0.4776
 9448TIP3   OH252538   1.772   7.561  12.693 -0.2096 -0.1672  0.0963
 9448TIP3    H152539   1.689   7.604  12.676 -0.7506 -0.8361  0.9620
 9448TIP3    H252540   1.778   7.556  12.788  1.9082  1.9365  0.1710
 9449TIP3   OH252541   7.335   7.159  11.424  0.0554  0.3452 -0.0821
 9449TIP3    H152542   7.342   7.085  11.364  0.4781 -0.0212  0.4022
 9449TIP3    H252543   7.251   7.200  11.403 -0.0132 -0.0565 -0.6000
 9450TIP3   OH252544   7.046   2.381  11.385  0.0871 -0.3631  0.3040
 9450TIP3    H152545   7.004   2.464  11.407 -0.3607 -0.7422  0.9256
 9450TIP3    H252546   7.018   2.321  11.454  2.0487 -0.5137  1.0059
 9451TIP3   OH252547   1.605   5.471  12.458 -0.3987 -0.0229  0.0444
 9451TIP3    H152548   1.550   5.439  12.387 -0.0226  0.4365 -0.4728
 9451TIP3    H252549   1.551   5.464  12.536 -0.2592 -2.0951  0.0009
 9452TIP3   OH252550   0.859   5.989  12.281  0.0811 -0.1008  0.3441
 9452TIP3    H152551   0.947   6.022  12.261  0.2468  0.2550  1.5221
 9452TIP3    H252552   0.856   5.902  12.243  1.1017 -0.2721  0.6305
 9453TIP3   OH252553   5.851   6.788  10.951  0.3583 -0.0622  1.0571
 9453TIP3    H152554   5.819   6.727  11.018 -1.5516 -1.1345 -0.7139
 9453TIP3    H252555   5.771   6.823  10.912  1.2604 -1.5194 -2.4459
 9454TIP3   OH252556   0.325   2.122  10.295 -0.1921  0.3667 -0.1155
 9454TIP3    H152557   0.268   2.091  10.225  0.6559  1.7956 -1.4947
 9454TIP3    H252558   0.289   2.208  10.319  0.0103  0.2521  0.6448
 9455TIP3   OH252559   2.159   3.735  10.566 -0.3119 -0.1706  0.8388
 9455TIP3    H152560   2.214   3.751  10.489 -1.6110 -0.2003 -0.1407
 9455TIP3    H252561   2.200   3.661  10.610  1.0375  0.4973  0.7652
 9456TIP3   OH252562   5.102   2.835  10.450 -0.4828  0.0049  0.1134
 9456TIP3    H152563   5.078   2.925  10.472 -0.2387  0.3056 -0.8000
 9456TIP3    H252564   5.146   2.842  10.365  1.3994 -0.7028  0.9633
 9457TIP3   OH252565   1.947   0.510  12.125  0.0685 -0.5562  0.2038
 9457TIP3    H152566   1.946   0.604  12.105  0.3263 -0.4207  0.7976
 9457TIP3    H252567   2.040   0.487  12.126 -0.0430 -1.2726 -1.9159
 9458TIP3   OH252568   1.344   4.089  11.280  0.4801  0.3612  0.5560
 9458TIP3    H152569   1.364   4.177  11.249 -1.4615  0.7928  0.4089
 9458TIP3    H252570   1.386   4.085  11.366 -1.3224  2.3441  1.6317
 9459TIP3   OH252571   5.691   0.893  11.773  0.1894 -0.1092  0.0355
 9459TIP3    H152572   5.739   0.820  11.733  1.0662  0.4317  0.0824
 9459TIP3    H252573   5.753   0.931  11.835 -0.6773 -0.0684  0.9106
 9460TIP3   OH252574   5.755   6.627  12.395  0.1379 -0.6215  0.2953
 9460TIP3    H152575   5.716   6.543  12.373  1.6178 -1.4282  0.6682
 9460TIP3    H252576   5.742   6.636  12.490 -2.2386  0.7853 -0.0629
 9461TIP3   OH252577   2.827   2.397  11.866 -0.4397 -0.3884  0.1323
 9461TIP3    H152578   2.794   2.311  11.840 -3.3241  0.8933 -0.8360
 9461TIP3    H252579   2.763   2.430  11.929 -0.5838  1.8356 -1.0612
 9462TIP3   OH252580   4.628   3.686  11.540 -0.0436  0.2900 -0.2382
 9462TIP3    H152581   4.585   3.639  11.469  2.1765 -0.7904 -0.9935
 9462TIP3    H252582   4.562   3.693  11.608 -1.7597 -0.0759 -1.8043
 9463TIP3   OH252583   0.450   1.248  12.598 -0.0075  0.0443  0.4111
 9463TIP3    H152584   0.390   1.187  12.641 -0.4637  0.4991  0.4402
 9463TIP3    H252585   0.460   1.214  12.509 -0.0496 -0.2231  0.5100
 9464TIP3   OH252586   3.305   2.453  10.478 -0.0159  0.7825  0.0116
 9464TIP3    H152587   3.243   2.440  10.406 -0.8637 -0.5453  0.9448
 9464TIP3    H252588   3.377   2.501  10.438  0.2069 -1.1308 -2.1421
 9465TIP3   OH252589   6.735   5.098  12.668 -0.5504 -0.8802 -0.5823
 9465TIP3    H152590   6.726   5.024  12.728 -0.5203  0.9312  1.8138
 9465TIP3    H252591   6.804   5.151  12.708 -2.2475  1.6473 -0.8439
 9466TIP3   OH252592   0.746   4.497  10.775  0.1398 -0.8156 -0.3989
 9466TIP3    H152593   0.717   4.582  10.807 -0.1736 -0.8216 -0.6576
 9466TIP3    H252594   0.684   4.475  10.705  0.5648 -0.9923 -0.7234
 9467TIP3   OH252595   1.703   3.032  10.615 -0.2897  0.7249  0.0801
 9467TIP3    H152596   1.696   2.959  10.553  0.4537  1.6338 -1.1323
 9467TIP3    H252597   1.778   3.009  10.670  0.9264  1.2462 -1.2991
 9468TIP3   OH252598   5.597   2.489  12.447  0.0788 -0.2497 -0.4020
 9468TIP3    H152599   5.670   2.440  12.409  0.7986  0.8484 -0.4727
 9468TIP3    H252600   5.520   2.435  12.429  1.0557 -2.3424  1.2919
 9469TIP3   OH252601   5.231   6.339  12.260 -0.1998 -0.0900  0.5292
 9469TIP3    H152602   5.265   6.393  12.332  0.5739 -0.3966  0.4032
 9469TIP3    H252603   5.306   6.288  12.230 -0.5762 -0.1673 -0.3249
 9470TIP3   OH252604   1.040   3.443  11.904 -0.4254  0.6735  0.4283
 9470TIP3    H152605   1.027   3.482  11.817  0.5091  2.4148  1.0059
 9470TIP3    H252606   1.093   3.366  11.888 -0.9407  0.5128 -0.6230
 9471TIP3   OH252607   2.497   3.741  10.905 -0.2388  0.0832  0.2851
 9471TIP3    H152608   2.489   3.835  10.889  2.3684  0.6118  1.5616
 9471TIP3    H252609   2.420   3.720  10.957 -0.7636  1.5462  0.1696
 9472TIP3   OH252610   5.820   7.079  12.852 -0.6273 -0.1142 -0.3242
 9472TIP3    H152611   5.800   7.082  12.945  0.1402  0.3461 -0.1702
 9472TIP3    H252612   5.915   7.078  12.848 -0.5925 -3.0738 -1.0113
 9473TIP3   OH252613   4.919   4.913  11.462 -0.7115  0.1894  0.1879
 9473TIP3    H152614   4.999   4.899  11.412 -0.6878 -1.8841  0.7112
 9473TIP3    H252615   4.937   4.988  11.518  1.6286 -1.3858  1.7205
 9474TIP3   OH252616   6.558   1.437  10.664  0.0123  0.5864 -0.4511
 9474TIP3    H152617   6.646   1.418  10.632 -0.6260 -0.6798 -1.5415
 9474TIP3    H252618   6.572   1.482  10.747  1.6999  2.0857 -1.4712
 9475TIP3   OH252619   3.260   4.440  11.098 -0.1655  0.0666  0.3560
 9475TIP3    H152620   3.177   4.432  11.144 -0.0815 -2.1398  0.2175
 9475TIP3    H252621   3.251   4.384  11.021  0.4365  2.0891 -1.2638
 9476TIP3   OH252622   4.936   3.531  11.204 -0.0983  0.2081  0.0348
 9476TIP3    H152623   4.853   3.493  11.230 -0.0832  1.0358  1.3873
 9476TIP3    H252624   4.999   3.497  11.267 -0.0226  2.0977  1.0647
 9477TIP3   OH252625   2.871   3.902  10.696  0.5095 -0.3320  0.1580
 9477TIP3    H152626   2.833   3.847  10.628  0.3966  0.9310 -0.8368
 9477TIP3    H252627   2.804   3.905  10.764 -1.2032  1.7137 -1.4911
 9478TIP3   OH252628   0.653   0.572  11.801  0.1491  0.7073 -0.6479
 9478TIP3    H152629   0.738   0.535  11.779 -0.1859 -0.5660  0.0668
 9478TIP3    H252630   0.635   0.636  11.733  0.2179 -1.3351 -2.6965
 9479TIP3   OH252631   3.956   6.138  13.170 -0.1350  0.0953 -0.8796
 9479TIP3    H152632   3.951   6.228  13.140 -0.6119  0.3861  0.0184
 9479TIP3    H252633   3.869   6.119  13.205  0.7778  0.3601  1.7872
 9480TIP3   OH252634   7.627   0.280  11.828 -0.4691  0.5134  0.6519
 9480TIP3    H152635   7.573   0.313  11.756  0.3452  0.9978  0.2486
 9480TIP3    H252636   7.573   0.293  11.906 -1.8419 -1.1120  0.0354
 9481TIP3   OH252637   0.670   5.289  12.126  0.7860  0.1759  0.0695
 9481TIP3    H152638   0.716   5.317  12.205 -1.7202  1.8192  1.0505
 9481TIP3    H252639   0.616   5.216  12.154 -0.8093  1.3493  0.1716
 9482TIP3   OH252640   0.878   3.105  10.637 -0.2058 -0.0294  0.3835
 9482TIP3    H152641   0.904   3.064  10.554  1.5126  0.0316  0.8583
 9482TIP3    H252642   0.873   3.198  10.617 -1.0206 -0.1336  0.0640
 9483TIP3   OH252643   2.091   1.690  11.497 -0.5285  0.0578 -0.0407
 9483TIP3    H152644   2.119   1.609  11.456 -0.9804 -0.0058 -0.2275
 9483TIP3    H252645   1.999   1.675  11.520 -0.5318  0.4107  0.1840
 9484TIP3   OH252646   2.477   7.508  11.891  0.0084  0.3563 -0.1712
 9484TIP3    H152647   2.418   7.582  11.876 -1.6154 -0.7779  0.2176
 9484TIP3    H252648   2.505   7.482  11.803 -0.2375  0.8162 -0.3883
 9485TIP3   OH252649   0.888   3.348  10.571  0.6111 -0.2268  0.1778
 9485TIP3    H152650   0.840   3.391  10.500  0.5022  0.2146  0.5138
 9485TIP3    H252651   0.852   3.387  10.651  1.1345 -0.2993  0.4516
 9486TIP3   OH252652   7.270   3.366  12.137  0.0928  0.0179  0.1915
 9486TIP3    H152653   7.197   3.425  12.154 -0.8521 -1.2436  0.7358
 9486TIP3    H252654   7.228   3.282  12.117  1.3408 -1.5311  3.3654
 9487TIP3   OH252655   4.207   5.295  11.411 -0.0587 -0.4301 -0.3290
 9487TIP3    H152656   4.284   5.346  11.384 -0.3643 -0.4640 -1.2894
 9487TIP3    H252657   4.150   5.358  11.455  0.3120 -0.3100 -0.0157
 9488TIP3   OH252658   7.679   3.938  13.483 -0.2640  0.2187  0.0604
 9488TIP3    H152659   7.763   3.908  13.519 -0.1620  0.5010  0.0634
 9488TIP3    H252660   7.678   4.032  13.501 -1.1453  0.0132  1.1861
 9489TIP3   OH252661   3.851   2.679  10.768 -0.3849 -0.4241  0.7265
 9489TIP3    H152662   3.803   2.754  10.732 -1.0444 -0.4955  1.4272
 9489TIP3    H252663   3.809   2.663  10.853  1.0562 -0.3138  1.4934
 9490TIP3   OH252664   3.880   6.268  10.541 -0.1278 -0.1610  0.6189
 9490TIP3    H152665   3.970   6.261  10.573 -0.1032  0.8624  0.8054
 9490TIP3    H252666   3.836   6.191  10.577  0.9978 -1.4820 -0.6401
 9491TIP3   OH252667   2.646   5.243  12.104  0.2450 -0.2654  0.0223
 9491TIP3    H152668   2.663   5.260  12.011  2.4312 -0.0680  0.4236
 9491TIP3    H252669   2.661   5.150  12.115 -0.3619 -0.3588  0.1344
 9492TIP3   OH252670   2.029   7.286  12.418 -0.5300  0.0628  0.7830
 9492TIP3    H152671   2.066   7.299  12.505  0.5541  2.0163  0.0993
 9492TIP3    H252672   1.939   7.316  12.425 -0.5975 -0.2776  1.3537
 9493TIP3   OH252673   4.175   0.364  11.166 -0.0126  0.4021  0.1918
 9493TIP3    H152674   4.229   0.442  11.157 -1.2868  1.1926 -1.1259
 9493TIP3    H252675   4.090   0.397  11.195 -0.1200 -0.6880  1.1867
 9494TIP3   OH252676   5.321   0.271  11.113  0.3320 -0.3143 -0.0927
 9494TIP3    H152677   5.294   0.196  11.164 -0.5486  1.2358  1.8578
 9494TIP3    H252678   5.244   0.327  11.109  0.9286  0.4627 -1.5781
 9495TIP3   OH252679   7.379   3.640  10.466 -0.3466 -0.1066 -0.1559
 9495TIP3    H152680   7.377   3.572  10.533 -2.1916 -1.6218 -1.6322
 9495TIP3    H252681   7.373   3.592  10.383  0.3597  1.7705 -1.3521
 9496TIP3   OH252682   2.110   3.415  12.017  0.1068  0.4784 -0.0600
 9496TIP3    H152683   2.108   3.498  11.969 -0.1334  0.9162  0.6894
 9496TIP3    H252684   2.164   3.358  11.963  1.3638  1.5106  0.0399
 9497TIP3   OH252685   0.975   5.655  12.310  0.4896  0.0272  0.6571
 9497TIP3    H152686   1.037   5.710  12.358 -1.0041  1.9065  0.5889
 9497TIP3    H252687   0.948   5.710  12.236  0.4554 -1.6400 -0.6134
 9498TIP3   OH252688   1.865   4.759  12.298  0.2048  0.1085 -0.5794
 9498TIP3    H152689   1.823   4.690  12.349  0.1025  0.6052  0.0233
 9498TIP3    H252690   1.799   4.829  12.293  1.3406  1.4092  1.4426
 9499TIP3   OH252691   1.610   2.186  12.721 -0.8183  0.0197  0.1694
 9499TIP3    H152692   1.587   2.278  12.726  1.9254  0.7534  1.4860
 9499TIP3    H252693   1.624   2.160  12.813 -0.1712 -1.2793 -0.2718
 9500TIP3   OH252694   5.754   4.029  12.910  0.3149  0.3248  0.4875
 9500TIP3    H152695   5.701   4.107  12.927 -1.4743 -0.5492 -0.7822
 9500TIP3    H252696   5.757   4.023  12.814  0.0886 -1.3604  0.5580
 9501TIP3   OH252697   1.241   1.470  11.998 -0.2507  0.4220 -0.5203
 9501TIP3    H152698   1.275   1.390  11.959  1.1844  0.6599  0.1908
 9501TIP3    H252699   1.182   1.506  11.931 -1.9045 -1.8248 -0.3639
 9502TIP3   OH252700   3.154   5.323  10.932  0.1139  0.5863  0.5834
 9502TIP3    H152701   3.156   5.227  10.938  1.5143  0.5347 -0.1645
 9502TIP3    H252702   3.243   5.350  10.955  0.3861  1.5422 -1.4128
 9503TIP3   OH252703   3.948   5.899  12.769  0.2464 -0.1201  0.7140
 9503TIP3    H152704   3.993   5.902  12.854  1.2854  0.9867  0.1537
 9503TIP3    H252705   3.972   5.814  12.732  1.5877  0.2832  0.6028
 9504TIP3   OH252706   2.574   7.349  10.898  0.2220 -0.3464  0.5354
 9504TIP3    H152707   2.497   7.406  10.903  0.0898 -0.1592 -2.1844
 9504TIP3    H252708   2.546   7.274  10.847  1.3333 -1.2656  1.2112
 9505TIP3   OH252709   3.093   5.873  10.861  0.2720  0.0131  0.2143
 9505TIP3    H152710   3.102   5.967  10.843 -1.8534  0.1215 -0.6033
 9505TIP3    H252711   3.040   5.868  10.940  0.9939 -0.5122  0.6754
 9506TIP3   OH252712   4.569   6.606  11.975  0.3979 -0.0248  0.4777
 9506TIP3    H152713   4.572   6.577  11.884 -0.7914 -1.3717  0.8335
 9506TIP3    H252714   4.518   6.539  12.020  0.7542  0.7413  2.1018
 9507TIP3   OH252715   6.393   6.239  11.937 -0.2473 -0.2509 -0.1711
 9507TIP3    H152716   6.320   6.250  11.877  0.7012 -0.8573 -1.5001
 9507TIP3    H252717   6.376   6.155  11.980 -0.5116 -0.2152 -0.2067
 9508TIP3   OH252718   2.788   6.686  12.989  0.0549 -0.5375  0.0036
 9508TIP3    H152719   2.723   6.741  13.032 -0.2928 -0.3408 -0.7732
 9508TIP3    H252720   2.848   6.661  13.060 -0.9495 -0.8573  0.7648
 9509TIP3   OH252721   4.926   2.382  12.154  0.3714  0.0254  0.0324
 9509TIP3    H152722   4.959   2.403  12.066 -1.7024  1.0603 -0.5608
 9509TIP3    H252723   4.878   2.300  12.143 -3.0891  1.9470 -0.7887
 9510TIP3   OH252724   6.909   4.097  11.306  0.7645 -0.0465  0.2362
 9510TIP3    H152725   6.913   4.192  11.322 -0.0473  0.1054 -0.3967
 9510TIP3    H252726   6.985   4.078  11.252  0.6208  0.3447 -0.1068
 9511TIP3   OH252727   0.239   3.393  11.148  0.4780  0.4077 -0.1295
 9511TIP3    H152728   0.181   3.469  11.155 -2.6912 -1.8442 -0.0709
 9511TIP3    H252729   0.307   3.408  11.215  0.5269  3.5352 -0.7413
 9512TIP3   OH252730   4.872   1.531  12.378 -0.2841  0.3981  0.3257
 9512TIP3    H152731   4.820   1.472  12.322  0.6158 -0.1374  0.0215
 9512TIP3    H252732   4.906   1.474  12.447  0.3584  0.6147  0.1940
 9513TIP3   OH252733   2.734   5.257  11.594 -0.7121  0.5197 -0.3757
 9513TIP3    H152734   2.723   5.166  11.566 -0.2375  1.0396 -2.3894
 9513TIP3    H252735   2.829   5.269  11.599 -0.7324  0.1612  2.6646
 9514TIP3   OH252736   5.092   6.664  12.327  0.9960 -0.1398 -0.6769
 9514TIP3    H152737   5.155   6.675  12.398  1.5517 -2.6495 -0.6706
 9514TIP3    H252738   5.007   6.686  12.365  1.5058  0.4029  0.1766
 9515TIP3   OH252739   0.872   2.974  12.495  0.2085  0.9699  0.1558
 9515TIP3    H152740   0.916   2.933  12.569 -0.9489  2.5319  1.7985
 9515TIP3    H252741   0.823   2.903  12.454  0.7826  0.0928  0.9461
 9516TIP3   OH252742   6.049   7.349  13.534 -0.6190 -0.2029  0.0412
 9516TIP3    H152743   5.963   7.318  13.564  0.0228 -1.6533  0.4909
 9516TIP3    H252744   6.078   7.281  13.473  0.9112 -0.6220  1.1671
 9517TIP3   OH252745   2.390   5.972  12.967  0.3146 -0.5065 -0.0581
 9517TIP3    H152746   2.315   5.987  13.024 -0.4722 -2.0378 -0.6466
 9517TIP3    H252747   2.464   6.010  13.015 -0.4809 -0.8488  1.5132
 9518TIP3   OH252748   7.257   1.742  12.041 -0.4558  0.0956  0.1117
 9518TIP3    H152749   7.313   1.683  11.991  1.8363  1.4900  0.9052
 9518TIP3    H252750   7.267   1.714  12.132 -0.0687  1.1041  0.3946
 9519TIP3   OH252751   0.928   2.953  10.415 -0.4364  0.0834  0.1497
 9519TIP3    H152752   0.977   2.957  10.332 -0.6048  0.3484  0.0604
 9519TIP3    H252753   0.856   2.893  10.397  0.5467 -1.3124  0.6575
 9520TIP3   OH252754   1.417   0.012  11.076  0.1642 -0.1615 -0.2875
 9520TIP3    H152755   1.360  -0.028  11.141 -0.6093 -0.8906 -1.3806
 9520TIP3    H252756   1.493   0.042  11.125 -0.0193 -1.4435  0.8260
 9521TIP3   OH252757   7.489   1.781  10.716 -0.5894 -0.0353  0.3302
 9521TIP3    H152758   7.404   1.813  10.685 -0.7081 -0.6758 -0.0042
 9521TIP3    H252759   7.485   1.686  10.705  1.4423  0.1241 -2.9827
 9522TIP3   OH252760   0.963   2.856  11.144  0.4660  0.0779 -0.5721
 9522TIP3    H152761   1.013   2.877  11.065  0.1037 -0.1920 -0.8748
 9522TIP3    H252762   1.006   2.907  11.213  0.9317  0.1312 -0.8955
 9523TIP3   OH252763   5.883   0.771  10.572 -0.1123  0.4667  0.0777
 9523TIP3    H152764   5.947   0.840  10.583 -1.6083  1.7216  1.4737
 9523TIP3    H252765   5.843   0.788  10.486  0.0812  0.8499  0.0641
 9524TIP3   OH252766   0.268   3.538  12.470 -0.3703 -0.4599  0.0115
 9524TIP3    H152767   0.348   3.583  12.443 -0.6473 -1.0805 -2.0517
 9524TIP3    H252768   0.222   3.601  12.526  1.4219 -0.0083  1.0449
 9525TIP3   OH252769   2.199   3.015  10.623 -0.3980  0.6363 -0.2733
 9525TIP3    H152770   2.206   3.109  10.609  0.5007  1.0254  2.2780
 9525TIP3    H252771   2.107   3.000  10.645 -0.0864  1.3720  1.7401
 9526TIP3   OH252772   6.655   3.369  12.164 -0.3706  0.0390 -0.0906
 9526TIP3    H152773   6.613   3.455  12.172  0.9510  0.5290  3.3617
 9526TIP3    H252774   6.742   3.382  12.200  0.2718 -2.5124 -0.5946
 9527TIP3   OH252775   6.749   1.430  11.289  0.5774 -0.2544 -0.0825
 9527TIP3    H152776   6.769   1.428  11.195 -1.0916 -0.8138 -0.4636
 9527TIP3    H252777   6.812   1.492  11.326  0.4553  0.9364 -1.7679
 9528TIP3   OH252778   5.748   6.622  11.119 -0.4231 -0.0757 -0.2623
 9528TIP3    H152779   5.778   6.646  11.206 -1.1994  3.0915 -0.7421
 9528TIP3    H252780   5.659   6.590  11.131  0.7616 -3.5615  0.4403
 9529TIP3   OH252781   2.859   4.387  12.748 -0.5082 -0.5549 -0.5543
 9529TIP3    H152782   2.890   4.303  12.713 -0.1803  0.0850 -1.8847
 9529TIP3    H252783   2.799   4.363  12.819 -1.0820 -1.9347 -1.4524
 9530TIP3   OH252784   4.832   1.161  11.367  0.0610 -0.0596 -0.3248
 9530TIP3    H152785   4.759   1.124  11.318 -0.5364  0.1040  0.4169
 9530TIP3    H252786   4.800   1.167  11.457  0.9435  0.1430 -0.0116
 9531TIP3   OH252787   2.649   0.326  11.294  0.6302  0.1834 -0.2274
 9531TIP3    H152788   2.618   0.403  11.341 -1.2193  0.1402 -1.2698
 9531TIP3    H252789   2.630   0.252  11.352  1.4400  0.3971  0.3283
 9532TIP3   OH252790   1.276   4.714  12.572  0.7140  0.0891 -0.2161
 9532TIP3    H152791   1.344   4.649  12.556  0.1345 -0.0930 -2.2559
 9532TIP3    H252792   1.296   4.785  12.512  0.3467  1.0305  0.7447
 9533TIP3   OH252793   0.012   4.437  11.389  0.3260  0.3766  0.1305
 9533TIP3    H152794  -0.017   4.528  11.383 -0.2674  0.1955  0.1271
 9533TIP3    H252795  -0.063   4.391  11.426  1.1905  0.1541  1.7009
 9534TIP3   OH252796   7.053   5.541  11.606  0.2492  0.1542  0.0220
 9534TIP3    H152797   7.116   5.584  11.547  1.0380 -2.6468 -1.3703
 9534TIP3    H252798   7.104   5.471  11.647 -1.5052 -0.9557  0.3675
 9535TIP3   OH252799   6.343   0.576  13.378  0.5825  0.7408  0.4856
 9535TIP3    H152800   6.427   0.536  13.357 -0.1595 -0.7464  0.2093
 9535TIP3    H252801   6.365   0.665  13.406  2.3695 -0.0015  1.6482
 9536TIP3   OH252802   0.013   0.974  11.273  0.2395  0.0752  0.0170
 9536TIP3    H152803  -0.033   1.050  11.238  1.6500  1.2469  0.5593
 9536TIP3    H252804   0.004   0.982  11.368 -1.6891 -1.8541  0.0711
 9537TIP3   OH252805   6.594   2.507  11.823 -0.3015  0.3350  0.0524
 9537TIP3    H152806   6.566   2.598  11.809 -2.2807  0.2492  2.6832
 9537TIP3    H252807   6.656   2.512  11.896  0.5624 -0.3172 -0.6218
 9538TIP3   OH252808   3.935   1.403  10.868  0.2635 -0.2290  0.4215
 9538TIP3    H152809   3.935   1.415  10.963 -0.5113  0.6972  0.3217
 9538TIP3    H252810   3.866   1.338  10.852 -1.0225  1.1016  0.3556
 9539TIP3   OH252811   6.599   5.375  10.496  0.8121  0.3706 -0.2898
 9539TIP3    H152812   6.608   5.315  10.422  1.4456  0.3427 -0.1938
 9539TIP3    H252813   6.510   5.360  10.529  0.3318  0.7576 -1.3644
 9540TIP3   OH252814   4.310   6.102  11.310 -0.9422 -0.2149  0.5187
 9540TIP3    H152815   4.224   6.144  11.305  0.0076  1.7988 -0.6391
 9540TIP3    H252816   4.332   6.102  11.403 -1.3153  1.2986  0.6453
 9541TIP3   OH252817   4.951   1.135  10.716 -0.5463 -0.2680 -0.2671
 9541TIP3    H152818   4.948   1.227  10.689 -1.0594  0.6452  2.5508
 9541TIP3    H252819   4.911   1.134  10.803 -0.8642 -3.2425 -0.3250
 9542TIP3   OH252820   2.044   1.525  10.798  0.3359  0.2241 -0.4976
 9542TIP3    H152821   2.008   1.527  10.709 -0.9760  0.2923  0.0072
 9542TIP3    H252822   2.069   1.616  10.815 -1.3193  0.6430 -0.0899
 9543TIP3   OH252823   1.106   4.870  11.817  0.1711  0.1188 -0.3552
 9543TIP3    H152824   1.171   4.820  11.769  1.7878 -0.0017  1.7885
 9543TIP3    H252825   1.150   4.953  11.837 -1.2443  1.0431 -0.9471
 9544TIP3   OH252826   5.028   3.779  12.853 -0.1589 -0.3542  0.2461
 9544TIP3    H152827   5.033   3.836  12.776 -0.1911  0.6059  0.9359
 9544TIP3    H252828   4.949   3.808  12.899  1.5154  1.2920  2.2994
 9545TIP3   OH252829   3.996   6.869  11.498  0.3639  0.1602 -0.0320
 9545TIP3    H152830   4.013   6.783  11.536 -2.1267 -1.0917 -1.5055
 9545TIP3    H252831   4.081   6.898  11.466  1.6399 -0.7834  2.2895
 9546TIP3   OH252832   5.491   1.847  12.052 -0.3332 -0.5241 -0.9587
 9546TIP3    H152833   5.494   1.917  12.117  2.0612 -1.4932  0.0843
 9546TIP3    H252834   5.438   1.882  11.981 -1.5729  1.2389  0.7321
 9547TIP3   OH252835   6.334   4.516  11.337  0.5480  0.0639  0.2733
 9547TIP3    H152836   6.316   4.422  11.333 -0.2831  0.1918  0.7265
 9547TIP3    H252837   6.320   4.547  11.247 -1.4720  0.1287  0.5581
 9548TIP3   OH252838   7.472   3.013  12.372 -0.0434 -0.2223  0.2253
 9548TIP3    H152839   7.540   2.988  12.309 -0.0343  0.2385  0.0528
 9548TIP3    H252840   7.470   2.940  12.435  0.6559 -0.2049  0.2716
 9549TIP3   OH252841   4.745   7.391  11.490  0.1554 -0.2066  0.0653
 9549TIP3    H152842   4.770   7.441  11.412 -0.4099 -1.2105 -0.7813
 9549TIP3    H252843   4.686   7.449  11.538  0.1391  0.2392 -0.4879
 9550TIP3   OH252844   0.556   3.161  12.390  0.1008  0.4284 -0.0545
 9550TIP3    H152845   0.615   3.107  12.337  0.1471 -0.6367  1.0281
 9550TIP3    H252846   0.482   3.180  12.333  0.2186 -0.5610 -0.5515
 9551TIP3   OH252847   5.656   5.012  10.498 -0.4239 -0.0819 -0.0043
 9551TIP3    H152848   5.586   4.947  10.486 -0.1851 -0.2000 -0.8228
 9551TIP3    H252849   5.712   4.974  10.566  0.4110 -1.3575 -1.3482
 9552TIP3   OH252850   3.150   1.469  10.981 -0.1365 -0.0434  0.0005
 9552TIP3    H152851   3.129   1.480  11.074  0.5719 -3.2172  0.6665
 9552TIP3    H252852   3.064   1.464  10.938 -0.6121 -1.6978  1.0224
 9553TIP3   OH252853   5.095   0.428  11.061  0.0368  0.3389 -0.3590
 9553TIP3    H152854   5.060   0.442  11.149 -0.1180 -0.3728 -0.2988
 9553TIP3    H252855   5.140   0.509  11.040 -1.1931  1.0906 -0.2231
 9554TIP3   OH252856   4.694   1.447  11.027  0.4528  0.9183  0.9418
 9554TIP3    H152857   4.737   1.532  11.034 -0.5564  1.3226  2.7427
 9554TIP3    H252858   4.606   1.467  10.994  0.4728  0.4775  0.6100
 9555TIP3   OH252859   2.733   0.833  11.853  0.2024 -0.1613  0.0829
 9555TIP3    H152860   2.747   0.891  11.928  0.8598 -2.1166  1.5579
 9555TIP3    H252861   2.662   0.775  11.881  1.8008 -2.2310  0.0712
 9556TIP3   OH252862   0.993   0.815  11.847 -0.0290  0.6622  0.0156
 9556TIP3    H152863   0.994   0.799  11.753  2.6962  0.5758 -0.0185
 9556TIP3    H252864   0.984   0.910  11.856  1.7215  0.9189 -0.4753
 9557TIP3   OH252865   7.249   5.496  11.013 -0.0410  0.3491  0.3914
 9557TIP3    H152866   7.195   5.482  11.090 -1.1939  2.5754  0.0883
 9557TIP3    H252867   7.259   5.409  10.974 -4.3057 -0.1393 -0.0743
 9558TIP3   OH252868   3.932   1.699  11.557  0.2840  0.5692 -0.0742
 9558TIP3    H152869   3.948   1.716  11.650 -0.5034  0.2670  0.1283
 9558TIP3    H252870   4.017   1.711  11.515  0.4722  1.5407  0.5593
 9559TIP3   OH252871   5.390   2.766  12.299  0.0621  0.0677 -0.0490
 9559TIP3    H152872   5.336   2.735  12.226  1.1238 -0.0788 -0.7896
 9559TIP3    H252873   5.338   2.747  12.377 -0.3939 -1.2800 -0.6592
 9560TIP3   OH252874   0.254   3.019  11.475  0.2909 -0.0519  0.1837
 9560TIP3    H152875   0.273   3.110  11.497 -1.8576  0.8820 -1.4442
 9560TIP3    H252876   0.314   2.998  11.404 -0.3383  0.7126 -0.5999
 9561TIP3   OH252877   4.319   1.658  11.790  0.2273  0.0172 -0.2586
 9561TIP3    H152878   4.265   1.736  11.801 -2.7837 -1.8006 -0.9833
 9561TIP3    H252879   4.290   1.599  11.859  0.0957 -1.6307 -1.6682
 9562TIP3   OH252880   1.623   3.672  11.260  0.2211 -0.0138  0.1986
 9562TIP3    H152881   1.611   3.698  11.351 -0.7636 -0.8958  0.3520
 9562TIP3    H252882   1.709   3.705  11.235  0.7760 -0.3217  1.6482
 9563TIP3   OH252883   3.187   4.583  12.534  0.4928  0.0379  0.3025
 9563TIP3    H152884   3.134   4.537  12.468 -0.5819  0.2677  0.9746
 9563TIP3    H252885   3.173   4.532  12.615 -1.5164  2.0032  1.3102
 9564TIP3   OH252886   6.385   5.891  11.115 -0.1958  0.3106  0.7550
 9564TIP3    H152887   6.417   5.881  11.025 -1.9025 -0.3533  0.1857
 9564TIP3    H252888   6.300   5.934  11.106 -1.6243 -2.0709  1.7930
 9565TIP3   OH252889   4.332   2.505  10.791 -0.3338  0.1928  0.1606
 9565TIP3    H152890   4.375   2.590  10.789 -0.4470  0.2420 -1.2224
 9565TIP3    H252891   4.260   2.513  10.729 -0.2643 -0.9575 -0.0913
 9566TIP3   OH252892   1.997   6.297  11.209 -0.1213 -0.2226  0.4206
 9566TIP3    H152893   1.962   6.384  11.190 -0.8936 -0.6059  0.0712
 9566TIP3    H252894   1.943   6.265  11.282 -2.3573 -1.9010 -1.8165
 9567TIP3   OH252895   3.433   5.015  12.129 -0.5485  0.8626  0.0416
 9567TIP3    H152896   3.438   5.082  12.197 -0.4739 -0.7299  1.6853
 9567TIP3    H252897   3.523   5.005  12.098  0.5431 -2.0031  3.4915
 9568TIP3   OH252898   5.955   2.582  10.796 -0.1380 -0.1958 -0.4860
 9568TIP3    H152899   5.879   2.591  10.853  0.1767  0.9160 -0.2209
 9568TIP3    H252900   6.030   2.580  10.855  0.1786  0.7755 -0.8340
 9569TIP3   OH252901   2.193   6.859  11.660 -0.8567  0.0502 -0.1511
 9569TIP3    H152902   2.194   6.817  11.573 -0.2652  2.4514 -1.3755
 9569TIP3    H252903   2.242   6.798  11.716  0.1238 -0.8322 -1.8712
 9570TIP3   OH252904   6.792   3.286  11.229 -0.7097 -0.4318 -0.1160
 9570TIP3    H152905   6.867   3.344  11.238 -0.3475 -0.8745 -0.2260
 9570TIP3    H252906   6.764   3.295  11.138 -1.7258  0.8485  0.2931
 9571TIP3   OH252907   6.201   5.960  12.985  0.2418 -0.2095  0.3786
 9571TIP3    H152908   6.284   5.996  13.016  0.4297 -0.5013  0.2272
 9571TIP3    H252909   6.220   5.931  12.896 -0.9570  2.9971 -1.0511
 9572TIP3   OH252910   6.357   4.545  11.649 -0.1356 -0.2314  0.2152
 9572TIP3    H152911   6.312   4.500  11.577  1.1212 -1.1664 -0.0234
 9572TIP3    H252912   6.373   4.633  11.615 -2.8704  0.5824  0.7868
 9573TIP3   OH252913   1.939   0.462  12.862 -0.4620  0.1672 -0.3651
 9573TIP3    H152914   1.936   0.504  12.776  0.2741  1.4634  0.2056
 9573TIP3    H252915   1.980   0.377  12.846  1.3214  1.1064 -1.0504
 9574TIP3   OH252916   3.021   6.562  12.186  0.0357  0.0241 -0.3156
 9574TIP3    H152917   2.985   6.489  12.237 -0.8117  0.3092 -0.5005
 9574TIP3    H252918   2.985   6.550  12.098  0.8734 -0.0199 -0.6672
 9575TIP3   OH252919   3.425   6.860  12.213  0.1755 -0.3249  0.3898
 9575TIP3    H152920   3.366   6.828  12.281 -0.2701  0.6317  0.4699
 9575TIP3    H252921   3.512   6.860  12.254 -0.0352 -0.1229  0.8423
 9576TIP3   OH252922   5.761   3.002  10.387  0.2031 -0.5035  0.3800
 9576TIP3    H152923   5.713   2.922  10.409  1.3648 -1.1022  0.8518
 9576TIP3    H252924   5.850   2.971  10.368  0.2399  0.4738 -1.2041
 9577TIP3   OH252925   7.336   5.469  12.070  0.1599 -0.3789  0.1819
 9577TIP3    H152926   7.261   5.528  12.069  0.4205 -0.0521 -0.3982
 9577TIP3    H252927   7.310   5.399  12.131 -2.0135 -2.0683 -2.4519
 9578TIP3   OH252928   1.443   0.320  11.403 -0.1415  0.2914  0.6851
 9578TIP3    H152929   1.500   0.397  11.402 -1.1981  1.1042  1.1787
 9578TIP3    H252930   1.444   0.291  11.494  1.5232 -1.2968  0.2249
 9579TIP3   OH252931   1.037   6.776  10.976 -0.3900  0.2687 -0.4462
 9579TIP3    H152932   0.961   6.828  10.950  0.4427  1.2558 -0.9907
 9579TIP3    H252933   1.097   6.783  10.901  0.9977  1.0453  0.6956
 9580TIP3   OH252934   3.098   2.418  11.848 -0.0545 -0.3199  0.5188
 9580TIP3    H152935   3.137   2.362  11.782 -1.6337 -0.5180 -0.2872
 9580TIP3    H252936   3.004   2.407  11.837 -0.4979  3.0118 -0.1682
 9581TIP3   OH252937   3.730   2.571  10.536 -0.3385 -0.1341  0.3113
 9581TIP3    H152938   3.772   2.501  10.487  1.1546  2.2599 -2.1149
 9581TIP3    H252939   3.797   2.639  10.543 -1.7098  1.0912  2.5272
 9582TIP3   OH252940   4.977   4.441  12.305  0.5076 -0.1695 -0.7286
 9582TIP3    H152941   5.019   4.525  12.285  1.1037  0.3815  2.3274
 9582TIP3    H252942   5.003   4.383  12.233  1.0134  1.9197 -2.3324
 9583TIP3   OH252943   5.956   3.845  10.703  0.6097 -0.0786  0.1372
 9583TIP3    H152944   5.935   3.810  10.790  3.4901  0.1873  1.0291
 9583TIP3    H252945   6.041   3.807  10.681  1.3035  2.0868 -1.2990
 9584TIP3   OH252946   1.444   4.033  11.524 -0.0358  0.4459  0.0164
 9584TIP3    H152947   1.444   3.968  11.594 -2.8453  1.8508  1.4708
 9584TIP3    H252948   1.496   4.105  11.558 -0.2344  0.5642  0.0677
 9585TIP3   OH252949   2.988   0.494  12.338 -0.1124 -0.0646  0.2818
 9585TIP3    H152950   2.999   0.404  12.311  0.3078 -0.2222  0.9451
 9585TIP3    H252951   2.947   0.538  12.263  0.3486 -0.6344 -0.3053
 9586TIP3   OH252952   2.172   2.241  13.130  0.6261  0.3173 -0.1281
 9586TIP3    H152953   2.191   2.239  13.224 -0.9827  0.7213  0.2380
 9586TIP3    H252954   2.199   2.155  13.098 -0.5960 -0.5805  1.1094
 9587TIP3   OH252955   6.428   7.432  11.144 -0.2095 -0.6085  0.1892
 9587TIP3    H152956   6.399   7.471  11.062  0.5630  1.4492  0.8231
 9587TIP3    H252957   6.348   7.398  11.185 -0.6100 -1.5643 -1.3274
 9588TIP3   OH252958   5.669   0.217  11.417  0.6227  0.7412  0.4383
 9588TIP3    H152959   5.685   0.277  11.343  0.9141  0.7399  0.4978
 9588TIP3    H252960   5.724   0.252  11.487  0.8415  0.3694  0.4548
 9589TIP3   OH252961   2.119   4.212  11.220  0.1544 -0.0587 -0.2900
 9589TIP3    H152962   2.120   4.117  11.211  0.0427 -0.0531 -0.3647
 9589TIP3    H252963   2.115   4.228  11.314  0.2373 -0.1281 -0.2751
 9590TIP3   OH252964   0.048   3.321  11.522 -0.1937  0.0085  0.2175
 9590TIP3    H152965  -0.027   3.272  11.556  0.0371  0.0787  0.8475
 9590TIP3    H252966   0.033   3.325  11.428 -0.3088 -1.1160  0.1776
 9591TIP3   OH252967   6.011   1.021  10.639  0.5337  0.2587  1.0078
 9591TIP3    H152968   5.960   1.014  10.558 -0.5778 -0.0327  1.7038
 9591TIP3    H252969   6.003   1.113  10.664 -0.4241  0.0444  1.5693
 9592TIP3   OH252970   1.491   3.029  10.799 -0.1560  0.1225  0.6483
 9592TIP3    H152971   1.445   2.967  10.742 -0.5549  0.5342  0.5177
 9592TIP3    H252972   1.583   3.021  10.773 -0.3659  0.4920 -0.2330
 9593TIP3   OH252973   1.282   5.875  12.108  0.0078 -0.1723 -0.0715
 9593TIP3    H152974   1.353   5.811  12.116  0.7729  0.5980 -0.5421
 9593TIP3    H252975   1.203   5.824  12.125  0.5491 -1.3667 -0.9122
 9594TIP3   OH252976   6.239   2.712  12.956 -0.4767  0.6057 -0.5560
 9594TIP3    H152977   6.189   2.724  13.037 -1.0777 -2.9676 -0.2305
 9594TIP3    H252978   6.172   2.708  12.888 -0.2193  0.5403 -0.8036
 9595TIP3   OH252979   2.255   7.676  11.517  1.0292 -0.3908  0.6781
 9595TIP3    H152980   2.161   7.661  11.528  1.1896 -1.1737  1.0516
 9595TIP3    H252981   2.289   7.593  11.484  1.2770  0.5425 -1.5604
 9596TIP3   OH252982   3.291   7.111  10.554 -0.0155 -0.0920 -0.5509
 9596TIP3    H152983   3.326   7.107  10.643 -1.5603 -1.4126  0.0615
 9596TIP3    H252984   3.319   7.029  10.513 -0.5971 -0.1994 -0.7516
 9597TIP3   OH252985   2.961   4.171  11.333  0.4930  0.7659 -0.6198
 9597TIP3    H152986   2.920   4.193  11.417 -0.9496  0.1371 -1.1291
 9597TIP3    H252987   2.892   4.128  11.283  1.0202  1.9987 -2.5174
 9598TIP3   OH252988   6.237   3.466  12.434 -0.5916 -0.0203  0.1839
 9598TIP3    H152989   6.248   3.528  12.506 -1.2819  1.3572 -0.8568
 9598TIP3    H252990   6.291   3.501  12.363 -2.5332  0.5436 -1.1022
 9599TIP3   OH252991   6.143   1.832  10.665  0.1259 -0.0862 -0.2087
 9599TIP3    H152992   6.131   1.881  10.746 -2.0746 -0.8271 -0.0290
 9599TIP3    H252993   6.142   1.900  10.597  0.8738  0.4368  0.2808
 9600TIP3   OH252994   4.206   5.560  12.588 -0.3005  0.0734  0.1800
 9600TIP3    H152995   4.203   5.636  12.647  1.6748  0.5846 -0.2933
 9600TIP3    H252996   4.167   5.591  12.507  0.5018  0.6194 -0.0125
 9601TIP3   OH252997   2.502   1.636  10.836  0.3878  0.2084 -0.2454
 9601TIP3    H152998   2.439   1.567  10.815 -0.4035  0.2870  1.6958
 9601TIP3    H252999   2.549   1.650  10.754 -0.6966 -1.3152 -1.1962
 9602TIP3   OH253000   0.374   5.218  13.178 -0.7646  0.4589  0.1032
 9602TIP3    H153001   0.289   5.262  13.171 -0.8209  0.3266 -0.0727
 9602TIP3    H253002   0.438   5.288  13.178 -0.8070  0.5172 -0.9905
 9603TIP3   OH253003   1.503   3.841  10.900 -0.7536  0.2558 -0.3412
 9603TIP3    H153004   1.451   3.804  10.828 -2.0860  0.2756  0.5699
 9603TIP3    H253005   1.440   3.852  10.971  0.4923  0.4068  0.7747
 9604TIP3   OH253006   7.271   1.666  13.144 -0.3781 -0.3910 -0.4901
 9604TIP3    H153007   7.234   1.736  13.197 -3.0944 -2.4086  0.4632
 9604TIP3    H253008   7.315   1.608  13.206 -0.2421 -0.7964 -0.9519
 9605TIP3   OH253009   2.671   2.842  11.592 -0.3632  0.3732 -0.1442
 9605TIP3    H153010   2.719   2.808  11.668 -2.5481 -0.2971  1.0492
 9605TIP3    H253011   2.639   2.764  11.548 -1.0227  0.7920 -0.4232
 9606TIP3   OH253012   3.748   2.111  12.034 -0.2421 -0.5764 -0.0210
 9606TIP3    H153013   3.739   2.157  11.950  1.6601 -2.8651 -1.6122
 9606TIP3    H253014   3.803   2.168  12.087 -0.6465  0.4538 -0.6762
 9607TIP3   OH253015   2.203   0.172  12.171  0.0979  0.1427  0.0072
 9607TIP3    H153016   2.190   0.101  12.234  0.7058 -0.3471 -0.3997
 9607TIP3    H253017   2.256   0.132  12.102  0.8725  1.1336  0.0135
 9608TIP3   OH253018   6.595   1.882  12.029 -0.3118  0.2786 -0.1705
 9608TIP3    H153019   6.574   1.825  11.955  1.1405 -0.1410 -0.2902
 9608TIP3    H253020   6.687   1.904  12.017 -0.2191  0.7091  1.1734
 9609TIP3   OH253021   0.022   0.045  10.911 -0.0317  0.3755  0.3527
 9609TIP3    H153022  -0.019   0.087  10.836  1.5787  0.9938 -0.2296
 9609TIP3    H253023  -0.046  -0.011  10.948 -0.1053 -2.2980 -3.3044
 9610TIP3   OH253024   4.629   1.622  11.598 -0.3724  0.1094 -0.1239
 9610TIP3    H153025   4.555   1.668  11.559 -0.3690  0.3298  0.1322
 9610TIP3    H253026   4.594   1.579  11.676 -0.5504 -0.9496 -0.7663
 9611TIP3   OH253027   7.388   2.193  13.495  0.2642  0.0149 -0.1608
 9611TIP3    H153028   7.394   2.106  13.455  1.1437  0.1051 -0.2660
 9611TIP3    H253029   7.475   2.208  13.532 -0.0888  0.5648  0.4672
 9612TIP3   OH253030   5.682   5.557  11.186 -0.1223 -0.2279 -0.3283
 9612TIP3    H153031   5.628   5.529  11.260  0.1817 -0.5626 -0.2297
 9612TIP3    H253032   5.761   5.503  11.192  0.0137 -0.0802 -0.7512
 9613TIP3   OH253033   4.869   5.947  10.584 -0.0339  0.6338 -0.2059
 9613TIP3    H153034   4.825   6.005  10.521  0.2460  1.1111  0.0328
 9613TIP3    H253035   4.962   5.969  10.575  0.0957  0.0641 -0.2672
 9614TIP3   OH253036   5.738   3.283  10.990 -0.0552  0.3373  0.4332
 9614TIP3    H153037   5.727   3.349  10.922 -0.1354 -1.0968 -1.0336
 9614TIP3    H253038   5.745   3.200  10.941  2.7535 -0.4715  1.9766
 9615TIP3   OH253039   4.283   4.891  13.049  0.1754 -0.5832  0.6764
 9615TIP3    H153040   4.279   4.810  12.998 -1.1668  0.4322 -0.9450
 9615TIP3    H253041   4.196   4.899  13.088 -0.5266  1.1675 -1.0634
 9616TIP3   OH253042   7.579   2.923  11.740 -0.3115 -0.0691  0.1572
 9616TIP3    H153043   7.538   2.861  11.679 -0.7538  0.8496 -0.5092
 9616TIP3    H253044   7.672   2.903  11.737  0.0211  1.4740 -2.6801
 9617TIP3   OH253045   0.364   5.919  10.933  0.3409 -0.2618 -0.0112
 9617TIP3    H153046   0.320   5.960  11.007  0.0431 -0.4860 -0.0604
 9617TIP3    H253047   0.360   5.985  10.863 -0.5334 -0.5360 -0.2296
 9618TIP3   OH253048   0.326   7.068  11.270 -0.0470  0.5326 -0.5217
 9618TIP3    H153049   0.365   7.155  11.281 -0.8806  0.8846 -0.2055
 9618TIP3    H253050   0.238   7.077  11.306 -0.3434 -0.2910 -1.0055
 9619TIP3   OH253051   5.435   5.183  11.425  0.1490 -0.0822 -0.6033
 9619TIP3    H153052   5.364   5.244  11.447 -0.6571 -0.8715 -0.9638
 9619TIP3    H253053   5.464   5.211  11.338  0.8181  0.7220 -0.1351
 9620TIP3   OH253054   4.390   1.105  11.046  0.6577  0.0491  0.1417
 9620TIP3    H153055   4.347   1.028  11.083 -0.5892  0.5097 -0.2985
 9620TIP3    H253056   4.318   1.164  11.022  1.4754  0.4402 -1.5229
 9621TIP3   OH253057   1.339   4.505  11.448  0.1907  0.3038 -0.0131
 9621TIP3    H153058   1.424   4.466  11.426  1.3697  1.1941  2.6079
 9621TIP3    H253059   1.319   4.472  11.536  0.0338  3.4828  1.2802
 9622TIP3   OH253060   7.089   3.961  11.694 -0.3262  0.1624  0.3062
 9622TIP3    H153061   7.036   3.908  11.754 -1.1900  2.0366  1.3042
 9622TIP3    H253062   7.024   4.001  11.635  0.3945 -0.6065 -1.0460
 9623TIP3   OH253063   5.518   2.018  12.263  0.0871  0.0239 -0.6810
 9623TIP3    H153064   5.484   1.994  12.349  0.5110 -1.3093 -0.8592
 9623TIP3    H253065   5.495   2.110  12.253 -1.5293 -0.2506  0.1101
 9624TIP3   OH253066   6.288   3.554  11.397 -0.2415 -0.2817  0.4335
 9624TIP3    H153067   6.325   3.466  11.391  0.0476 -0.1410  0.0931
 9624TIP3    H253068   6.197   3.544  11.368 -1.3389 -1.1341  3.7718
 9625TIP3   OH253069   5.063   0.027  10.944  0.2060 -1.1086 -0.1132
 9625TIP3    H153070   5.090   0.011  10.853 -0.8107 -0.9287 -0.4576
 9625TIP3    H253071   4.979   0.072  10.937 -1.6728 -4.1075  0.8778
 9626TIP3   OH253072   3.796   6.515  12.711 -0.4149  0.3712  0.3649
 9626TIP3    H153073   3.880   6.534  12.752  0.3482 -2.0478  0.0716
 9626TIP3    H253074   3.763   6.601  12.684  1.3909  1.5042  1.5207
 9627TIP3   OH253075   6.006   4.829  12.330  0.7509  0.8544 -0.4606
 9627TIP3    H153076   5.957   4.910  12.339  1.8794  1.4260  0.8208
 9627TIP3    H253077   6.043   4.813  12.417  1.0556 -0.7061 -0.8397
 9628TIP3   OH253078   1.962   2.789  11.454 -0.3040  0.4663  0.1251
 9628TIP3    H153079   2.023   2.748  11.392 -0.5063  0.1733  0.1142
 9628TIP3    H253080   2.002   2.775  11.539 -0.3272  0.3184  0.1130
 9629TIP3   OH253081   5.955   1.256  10.736 -0.0075 -0.2824 -0.4696
 9629TIP3    H153082   6.035   1.308  10.747 -0.5275  0.0358  2.5551
 9629TIP3    H253083   5.899   1.312  10.682  1.1226  0.2761 -1.1152
 9630TIP3   OH253084   1.954   6.037  11.827  0.0513 -0.2020 -0.0841
 9630TIP3    H153085   1.953   6.072  11.916  0.7721  1.5092 -0.7202
 9630TIP3    H253086   2.041   5.999  11.817 -0.1982 -0.8330  0.0890
 9631TIP3   OH253087   7.642   7.275  12.262 -0.5177  0.2842  0.4536
 9631TIP3    H153088   7.696   7.247  12.336 -1.5969 -0.9869  0.8054
 9631TIP3    H253089   7.634   7.197  12.207 -1.3262  0.6733  0.0004
 9632TIP3   OH253090   0.297   5.475  10.893  0.1691  0.1517  0.0985
 9632TIP3    H153091   0.310   5.467  10.988 -1.0454  1.6352  0.4273
 9632TIP3    H253092   0.285   5.568  10.878 -1.8889 -0.2507 -1.1830
 9633TIP3   OH253093   3.066   2.044  11.018 -0.0632 -0.4337  0.0733
 9633TIP3    H153094   3.062   2.058  10.924 -2.6717  2.9565  0.4788
 9633TIP3    H253095   3.110   2.122  11.052  0.9292 -1.6348  1.6911
 9634TIP3   OH253096   5.455   2.057  11.624  0.3617 -0.2033  0.9725
 9634TIP3    H153097   5.405   2.053  11.543 -0.4235 -1.8905  1.4916
 9634TIP3    H253098   5.533   2.108  11.602  0.4438 -1.0938 -0.9994
 9635TIP3   OH253099   7.650   2.535  10.330 -0.6969 -0.3754  0.0721
 9635TIP3    H153100   7.568   2.525  10.282 -0.3783 -0.3766 -0.4766
 9635TIP3    H253101   7.641   2.619  10.377 -1.0254 -0.3959  0.0449
 9636TIP3   OH253102   6.791   0.593  11.554  0.1469  0.4612  0.7926
 9636TIP3    H153103   6.727   0.659  11.529  0.1183  0.5411  1.0687
 9636TIP3    H253104   6.739   0.521  11.591  0.2890  1.2101  2.5629
 9637TIP3   OH253105   0.232   5.769  12.914  0.4525  0.3939 -0.3277
 9637TIP3    H153106   0.320   5.804  12.896  1.0190 -1.4615 -1.4841
 9637TIP3    H253107   0.249   5.688  12.962 -0.6823  0.4002  0.1013
 9638TIP3   OH253108   0.666   5.634  12.898 -0.5805  0.3250 -0.1733
 9638TIP3    H153109   0.663   5.661  12.807 -0.9526  2.3320  0.3874
 9638TIP3    H253110   0.577   5.602  12.917 -0.4558 -0.2508 -0.5433
 9639TIP3   OH253111   0.203   0.384  11.106 -0.2316  0.9488 -0.1722
 9639TIP3    H153112   0.221   0.314  11.043  0.2238  1.3189 -0.4578
 9639TIP3    H253113   0.115   0.413  11.084 -0.3657  0.5682 -0.1502
 9640TIP3   OH253114   5.978   0.386  12.517  0.8077 -0.6229 -0.0573
 9640TIP3    H153115   6.039   0.421  12.453 -0.7692  1.5207 -0.4919
 9640TIP3    H253116   5.893   0.421  12.491 -0.5444 -2.9807  0.8934
 9641TIP3   OH253117   4.128   3.866  11.209 -0.4468  0.1698 -0.1948
 9641TIP3    H153118   4.110   3.960  11.202  0.3781  0.2967 -0.7502
 9641TIP3    H253119   4.203   3.861  11.268  1.0992  0.0717 -2.0582
 9642TIP3   OH253120   2.963   5.060  12.141  0.2799  0.3294 -0.2907
 9642TIP3    H153121   3.058   5.069  12.154  0.5755  0.1163 -2.0766
 9642TIP3    H253122   2.955   4.987  12.079 -1.0090  0.8923 -0.8049
 9643TIP3   OH253123   1.436   6.673  12.463  0.4815  0.2053  0.5330
 9643TIP3    H153124   1.505   6.695  12.400  0.6353  1.9226  1.2659
 9643TIP3    H253125   1.450   6.580  12.481  0.8847 -0.1614 -1.3991
 9644TIP3   OH253126   1.031   7.352  13.128 -0.5533  0.8134 -0.1808
 9644TIP3    H153127   1.038   7.303  13.209 -0.0202 -1.1782 -1.3651
 9644TIP3    H253128   1.000   7.288  13.063 -1.1999  2.3887 -1.5113
 9645TIP3   OH253129   0.221   1.309  12.405 -0.1488  0.2083 -0.0156
 9645TIP3    H153130   0.254   1.261  12.329 -1.2913 -0.1882 -0.2865
 9645TIP3    H253131   0.298   1.324  12.459  0.3540 -1.4283 -0.2126
 9646TIP3   OH253132   0.236   2.579  10.658  0.0808 -0.2203  0.0586
 9646TIP3    H153133   0.201   2.497  10.692  0.5455  0.0383  1.1774
 9646TIP3    H253134   0.188   2.647  10.705 -0.0036  0.1512 -0.5561
 9647TIP3   OH253135   2.804   0.903  11.612  0.9172 -0.2735 -0.1595
 9647TIP3    H153136   2.784   0.816  11.577 -0.1381 -0.6395  1.2587
 9647TIP3    H253137   2.787   0.896  11.706  0.3516  1.6003 -0.0753
 9648TIP3   OH253138   1.412   0.067  10.738 -0.1108  0.5145  0.8170
 9648TIP3    H153139   1.395   0.159  10.721  0.0573  0.2938 -0.7998
 9648TIP3    H253140   1.507   0.058  10.728 -0.3837 -0.3023 -2.1235
 9649TIP3   OH253141   2.881   2.100  12.984 -0.0327  0.6644  0.0572
 9649TIP3    H153142   2.788   2.115  13.004 -0.2912 -0.2322 -0.4430
 9649TIP3    H253143   2.897   2.010  13.012  0.3278  0.3436 -1.1350
 9650TIP3   OH253144   3.518   4.826  11.379 -0.2645 -0.2709 -0.5093
 9650TIP3    H153145   3.461   4.893  11.416 -0.3227 -1.1177  1.0378
 9650TIP3    H253146   3.461   4.775  11.321 -0.5421  0.1982 -0.6500
 9651TIP3   OH253147   6.815   5.588  10.668  0.2601  0.0228  0.0234
 9651TIP3    H153148   6.824   5.508  10.615  0.3159 -1.3200  1.9422
 9651TIP3    H253149   6.905   5.613  10.687  0.2312  0.0698  0.0961
 9652TIP3   OH253150   2.646   0.226  10.557  0.3870  0.1970  0.1531
 9652TIP3    H153151   2.574   0.163  10.554  0.1662  0.4471 -2.8373
 9652TIP3    H253152   2.615   0.295  10.616 -1.6138  0.0236 -0.6274
 9653TIP3   OH253153   6.629   3.555  13.009  0.3644 -0.0353  0.4635
 9653TIP3    H153154   6.535   3.533  13.013  0.7156 -1.5489  1.1952
 9653TIP3    H253155   6.659   3.513  12.928  0.4396  0.2892  0.3253
 9654TIP3   OH253156   0.576   4.415  10.575  0.1543  0.2559  0.5522
 9654TIP3    H153157   0.560   4.324  10.549  0.9169  0.1904  0.2693
 9654TIP3    H253158   0.491   4.448  10.604 -0.0937 -0.5994  0.8176
 9655TIP3   OH253159   3.216   0.190  12.718 -0.5328  0.1062 -0.1628
 9655TIP3    H153160   3.175   0.238  12.790 -0.7994 -1.2287  0.6166
 9655TIP3    H253161   3.189   0.237  12.639 -0.1227  1.6782  0.6002
 9656TIP3   OH253162   5.763   1.760  10.894  0.2096  0.4082 -0.6448
 9656TIP3    H153163   5.708   1.684  10.877  0.7229 -0.1278  0.0243
 9656TIP3    H253164   5.767   1.766  10.989  0.7799  0.8343 -0.6906
 9657TIP3   OH253165   6.308   2.948  12.097 -0.2236  0.0345 -0.6428
 9657TIP3    H153166   6.311   2.906  12.011 -0.6393  2.6369 -2.0359
 9657TIP3    H253167   6.345   3.035  12.082 -0.4327  0.6131  1.8184
 9658TIP3   OH253168   3.457   2.700  10.417  0.3560  0.2779 -0.6725
 9658TIP3    H153169   3.468   2.795  10.414  1.6001  0.1992  0.3865
 9658TIP3    H253170   3.543   2.665  10.395 -0.1833 -0.6224 -1.4108
 9659TIP3   OH253171   1.807   5.972  11.161 -0.1025  0.0532  0.3087
 9659TIP3    H153172   1.777   6.010  11.244  0.7340 -0.5880  0.9262
 9659TIP3    H253173   1.735   5.987  11.100 -0.6349  0.7465  1.0886
 9660TIP3   OH253174   1.177   1.723  10.452 -0.0174 -0.2812 -0.4936
 9660TIP3    H153175   1.153   1.786  10.519  0.1676  0.7596 -1.3804
 9660TIP3    H253176   1.269   1.743  10.432 -0.2791 -0.0911 -1.5598
 9661TIP3   OH253177   0.371   4.789  10.732 -0.5321 -0.2224  0.2756
 9661TIP3    H153178   0.326   4.873  10.718 -0.5032 -0.1969  0.3357
 9661TIP3    H253179   0.403   4.794  10.822  1.8695  0.8578 -0.5481
 9662TIP3   OH253180   0.364   3.743  11.459  0.1013  0.3091  0.3591
 9662TIP3    H153181   0.285   3.750  11.406 -0.4642 -0.7275  1.0356
 9662TIP3    H253182   0.357   3.658  11.501  1.3834  0.3853  0.7545
 9663TIP3   OH253183   0.845   2.224  11.512  0.3511  0.1453 -0.4088
 9663TIP3    H153184   0.925   2.172  11.512 -0.8098 -1.8081 -2.3714
 9663TIP3    H253185   0.776   2.163  11.535 -0.6446  1.8026  1.3232
 9664TIP3   OH253186   0.479   4.811  12.712  0.3644  0.3016  0.7574
 9664TIP3    H153187   0.397   4.765  12.694  1.3624 -2.1543  2.0547
 9664TIP3    H253188   0.478   4.886  12.651 -2.8326  0.4438  0.8146
 9665TIP3   OH253189   6.438   0.654  12.634 -0.3826 -0.5350 -0.3656
 9665TIP3    H153190   6.391   0.674  12.553  0.3346 -0.9809 -0.8998
 9665TIP3    H253191   6.402   0.716  12.698  0.4774  1.2444 -1.5261
 9666TIP3   OH253192   2.499   2.588  10.616 -0.2950  0.1171  0.1087
 9666TIP3    H153193   2.529   2.557  10.702  1.3271  1.3702  0.0362
 9666TIP3    H253194   2.510   2.512  10.558 -3.9087 -1.6543  1.3922
 9667TIP3   OH253195   1.581   4.383  11.871 -0.2503 -0.4748 -0.0922
 9667TIP3    H153196   1.627   4.426  11.800  1.4047 -0.9764  0.6176
 9667TIP3    H253197   1.543   4.454  11.922 -1.1889 -0.0999 -1.2690
 9668TIP3   OH253198   7.372   2.494  12.838 -0.4189 -0.4295 -0.4196
 9668TIP3    H153199   7.368   2.398  12.830 -1.8241 -0.3017 -1.8593
 9668TIP3    H253200   7.287   2.524  12.805  0.1269  1.3408 -0.3139
 9669TIP3   OH253201   2.623   1.623  12.507 -0.0785 -0.7448 -0.3246
 9669TIP3    H153202   2.618   1.718  12.498 -1.4212 -0.8262 -0.6272
 9669TIP3    H253203   2.653   1.609  12.597 -0.0905 -0.0446 -0.2051
 9670TIP3   OH253204   1.462   7.067  12.107  0.6433  0.2744  0.1107
 9670TIP3    H153205   1.500   6.980  12.120  1.1868  0.3574 -0.8031
 9670TIP3    H253206   1.373   7.049  12.077  0.7363  0.0271 -0.0253
 9671TIP3   OH253207   2.965   1.879  13.127 -0.2945 -0.0277  0.1204
 9671TIP3    H153208   2.884   1.832  13.146 -0.3702 -0.3227 -0.8795
 9671TIP3    H253209   3.034   1.814  13.138 -0.1027  0.3751  1.5870
 9672TIP3   OH253210   3.117   3.452  13.755 -0.0684  0.4695 -0.7841
 9672TIP3    H153211   3.166   3.398  13.694  0.5718  0.6778 -0.4663
 9672TIP3    H253212   3.184   3.499  13.805 -0.6024  1.2612 -0.7888
 9673TIP3   OH253213   0.113   6.363  13.072  0.0755  0.4965  0.6331
 9673TIP3    H153214   0.032   6.403  13.039 -0.4977 -1.4283 -0.4777
 9673TIP3    H253215   0.161   6.435  13.113 -0.4775  2.4955 -1.9910
 9674TIP3   OH253216   7.351   2.058  10.475 -0.3076  0.4208  0.2871
 9674TIP3    H153217   7.430   2.008  10.453 -1.2324 -0.3216 -1.5605
 9674TIP3    H253218   7.371   2.148  10.451  0.1854  0.3531  0.4332
 9675TIP3   OH253219   2.691   2.928  10.759 -0.1528 -0.5383 -0.0551
 9675TIP3    H153220   2.606   2.896  10.731 -0.1173 -0.8916  0.2306
 9675TIP3    H253221   2.742   2.849  10.777 -0.7744 -0.3964  2.8326
 9676TIP3   OH253222   5.238   0.736  13.059  0.3943  0.0597 -0.2374
 9676TIP3    H153223   5.322   0.754  13.101  0.6689  0.7634 -1.0486
 9676TIP3    H253224   5.236   0.796  12.984 -1.0804  0.4481  0.0838
 9677TIP3   OH253225   5.435   3.948  11.430 -0.3063  0.0470  0.3182
 9677TIP3    H153226   5.406   4.012  11.365  0.2186  0.5720  0.5838
 9677TIP3    H253227   5.397   3.979  11.512 -0.1902 -0.0803  0.4204
 9678TIP3   OH253228   2.028   7.622  10.909  0.3141  0.3531 -0.3696
 9678TIP3    H153229   2.094   7.675  10.863  1.3869  0.9132  1.6747
 9678TIP3    H253230   2.067   7.605  10.995 -2.4541  1.2325  1.1920
 9679TIP3   OH253231   2.506   4.560  12.676  0.2348 -0.1311  0.1982
 9679TIP3    H153232   2.438   4.608  12.722  1.4927  0.7401  1.2329
 9679TIP3    H253233   2.539   4.497  12.740  2.6504  1.7327  0.9206
 9680TIP3   OH253234   6.666   2.549  10.563 -0.5142  0.0953 -0.0002
 9680TIP3    H153235   6.575   2.522  10.555 -0.7505  0.9934 -0.5727
 9680TIP3    H253236   6.716   2.470  10.543 -1.1669 -0.3097 -0.0675
 9681TIP3   OH253237   6.389   1.561  12.592 -0.0125  0.0015 -0.3610
 9681TIP3    H153238   6.369   1.635  12.535  0.3064  1.7447  1.6445
 9681TIP3    H253239   6.319   1.498  12.576 -0.6871  1.0289 -1.6529
 9682TIP3   OH253240   2.051   2.342  12.920  0.1284  0.4286  0.1422
 9682TIP3    H153241   2.087   2.301  12.998 -0.2022  1.5412  0.8941
 9682TIP3    H253242   2.092   2.294  12.847 -0.0862 -1.0778  0.9674
 9683TIP3   OH253243   0.287   2.647  12.551  0.0043  0.3094 -0.3569
 9683TIP3    H153244   0.263   2.570  12.499  1.4177 -0.1784 -0.3328
 9683TIP3    H253245   0.204   2.679  12.586 -0.9447  0.4043 -2.5299
 9684TIP3   OH253246   3.515   0.633  11.606 -0.3332 -0.3063 -0.0503
 9684TIP3    H153247   3.523   0.728  11.617 -1.8885 -0.2740  1.1939
 9684TIP3    H253248   3.420   0.617  11.603 -0.0984 -1.7012 -1.5992
 9685TIP3   OH253249   2.803   5.080  10.962 -0.3581  0.2807  0.1673
 9685TIP3    H153250   2.795   5.146  11.031 -0.5897  1.2676 -0.7791
 9685TIP3    H253251   2.818   5.130  10.882  0.2389 -0.8572 -0.4642
 9686TIP3   OH253252   5.310   2.724  11.431 -0.7620  0.3458 -0.0603
 9686TIP3    H153253   5.404   2.714  11.416 -0.3713  2.9127  0.1070
 9686TIP3    H253254   5.277   2.765  11.351 -1.8240 -0.7580 -0.2193
 9687TIP3   OH253255   6.908   3.126  10.711  0.2826  0.1657  0.3558
 9687TIP3    H153256   6.879   3.201  10.763  2.0947  2.0745 -1.2079
 9687TIP3    H253257   6.840   3.115  10.645 -0.0529  0.3124  0.6704
 9688TIP3   OH253258   1.276   2.415  11.056 -0.8182  0.4002  0.4437
 9688TIP3    H153259   1.333   2.440  10.983 -2.6286  0.2819 -1.0612
 9688TIP3    H253260   1.285   2.488  11.118  2.6856 -0.6280  1.3966
 9689TIP3   OH253261   1.416   4.312  11.146 -0.0983  0.1340  0.0473
 9689TIP3    H153262   1.382   4.398  11.123  0.9597  0.8283  0.9458
 9689TIP3    H253263   1.486   4.296  11.082  1.9829  1.4998  1.8136
 9690TIP3   OH253264   1.099   4.255  11.505 -0.0303  0.3472  0.0399
 9690TIP3    H153265   1.120   4.268  11.413  0.3459 -2.0424 -0.2814
 9690TIP3    H253266   1.004   4.265  11.510 -0.0947  0.1663 -0.6956
 9691TIP3   OH253267   3.651   6.436  10.513 -0.6054 -0.3869  0.1039
 9691TIP3    H153268   3.729   6.390  10.542 -0.6856  0.5034  1.9128
 9691TIP3    H253269   3.630   6.398  10.428  1.9221 -0.4773 -0.5608
 9692TIP3   OH253270   2.881   7.258  11.806  0.1626  0.3771  0.0816
 9692TIP3    H153271   2.924   7.179  11.839  2.0697  0.6934 -1.4818
 9692TIP3    H253272   2.856   7.235  11.716  0.4432  1.4338 -0.2728
 9693TIP3   OH253273   7.627   0.492  11.464 -0.4750 -0.1031  0.0973
 9693TIP3    H153274   7.587   0.409  11.436  1.7379 -1.0777 -0.4488
 9693TIP3    H253275   7.630   0.545  11.384 -0.1277 -0.2881 -0.0165
 9694TIP3   OH253276   5.349   0.869  12.834  0.2456 -0.3996 -0.1854
 9694TIP3    H153277   5.438   0.898  12.851 -0.1865  0.8419  0.0788
 9694TIP3    H253278   5.314   0.932  12.770 -0.0470 -1.6032 -1.2606
 9695TIP3   OH253279   6.715   6.205  13.200 -0.0864  0.5956 -0.8294
 9695TIP3    H153280   6.749   6.125  13.159  0.4882  1.0293 -1.2191
 9695TIP3    H253281   6.626   6.182  13.228  0.3215 -0.3805 -0.3200
 9696TIP3   OH253282   2.294   6.430  10.891  0.0632 -0.5340 -0.2591
 9696TIP3    H153283   2.288   6.404  10.983 -2.0427  0.0856 -0.1724
 9696TIP3    H253284   2.216   6.394  10.851  0.8869 -0.6673 -1.8058
 9697TIP3   OH253285   6.834   6.138  12.582 -0.4085  0.4268  0.2238
 9697TIP3    H153286   6.761   6.178  12.628 -0.4467 -0.3375  0.8528
 9697TIP3    H253287   6.890   6.102  12.651 -0.0409 -0.0216 -0.2893
 9698TIP3   OH253288   3.486   5.705  11.732 -0.5121 -0.1483 -0.4136
 9698TIP3    H153289   3.491   5.633  11.794  0.9195  0.8065  0.6277
 9698TIP3    H253290   3.392   5.719  11.720 -0.8079 -1.4124  0.2595
 9699TIP3   OH253291   2.235   3.136  12.001 -0.2695  0.4443  0.7512
 9699TIP3    H153292   2.285   3.200  11.950  1.1542 -0.6457  0.7124
 9699TIP3    H253293   2.260   3.052  11.964  0.5391 -0.3698  2.9864
 9700TIP3   OH253294   5.268   0.959  12.131  0.3366  0.9290  1.1165
 9700TIP3    H153295   5.322   0.957  12.210 -1.7355  1.4848  2.6375
 9700TIP3    H253296   5.247   1.052  12.119  0.0806  0.7739  0.2921
 9701TIP3   OH253297   3.634   1.639  12.075  0.2066 -0.2186 -0.0755
 9701TIP3    H153298   3.720   1.633  12.035 -0.7657 -1.6694 -2.1451
 9701TIP3    H253299   3.593   1.555  12.056 -0.6764 -0.7220  3.3922
 9702TIP3   OH253300   7.529   4.867  11.226 -0.1784  0.3158 -0.2521
 9702TIP3    H153301   7.582   4.941  11.255  0.8987  0.1810 -1.7651
 9702TIP3    H253302   7.590   4.794  11.219 -0.7052 -0.0477 -1.2924
 9703TIP3   OH253303   1.445   3.074  13.017 -0.5372 -0.3364  0.1769
 9703TIP3    H153304   1.474   3.040  13.101 -1.4658  0.7338  0.9632
 9703TIP3    H253305   1.357   3.036  13.005 -0.0037 -1.3257 -0.8368
 9704TIP3   OH253306   4.523   1.248  13.199  0.2548  0.0323 -0.6030
 9704TIP3    H153307   4.568   1.234  13.283  0.9083 -1.1962 -1.1280
 9704TIP3    H253308   4.574   1.197  13.136 -0.6619  0.3363 -1.6176
 9705TIP3   OH253309   3.943   4.468  10.748 -0.1370  0.6743  0.1551
 9705TIP3    H153310   3.872   4.529  10.731 -0.4043  0.4859  0.5669
 9705TIP3    H253311   3.907   4.407  10.813 -0.0167 -0.1660 -0.5527
 9706TIP3   OH253312   6.054   6.679  12.359  0.1076  0.1846 -0.0812
 9706TIP3    H153313   6.048   6.701  12.452  0.3375  1.0768 -0.2712
 9706TIP3    H253314   5.963   6.666  12.332  0.0990 -1.2219  0.5192
 9707TIP3   OH253315   0.968   4.206  12.479  0.4462  0.1878  0.4281
 9707TIP3    H153316   0.921   4.145  12.422  0.0672  0.3903  0.5203
 9707TIP3    H253317   0.947   4.292  12.445 -1.3132  0.4484  1.9402
 9708TIP3   OH253318   7.346   4.596  11.381 -0.3799  0.4187 -0.3787
 9708TIP3    H153319   7.370   4.512  11.419 -0.2360  0.1697 -1.0074
 9708TIP3    H253320   7.321   4.651  11.456 -1.8599 -0.6237 -0.0555
 9709TIP3   OH253321   3.057   1.392  12.434  0.0666  0.1776 -0.0573
 9709TIP3    H153322   3.103   1.468  12.400  0.1382 -0.0503 -0.4788
 9709TIP3    H253323   3.028   1.345  12.356 -0.2482 -0.0616  0.2008
 9710TIP3   OH253324   1.625   4.128  11.710 -0.1688  0.1354 -0.5746
 9710TIP3    H153325   1.663   4.204  11.754  0.0009  0.5470 -1.4098
 9710TIP3    H253326   1.666   4.128  11.624 -0.6341 -0.5476 -0.8003
 9711TIP3   OH253327   0.642   1.422  12.390 -0.7255 -0.2809 -0.1611
 9711TIP3    H153328   0.570   1.447  12.331 -0.1433 -0.8237 -1.1349
 9711TIP3    H253329   0.641   1.327  12.389 -0.6720 -0.2915  0.6912
 9712TIP3   OH253330   3.767   6.015  12.205  0.3696  0.0819 -0.1389
 9712TIP3    H153331   3.745   6.012  12.112 -1.8247  2.1540  0.2151
 9712TIP3    H253332   3.700   5.961  12.247  0.4922  0.2959  0.3442
 9713TIP3   OH253333   6.140   6.052  12.059  0.0571 -0.6483  0.6445
 9713TIP3    H153334   6.147   5.972  12.006  0.2014 -1.3667  1.7190
 9713TIP3    H253335   6.063   6.097  12.025 -1.6261 -2.5794  1.7580
 9714TIP3   OH253336   6.631   3.513  11.037  0.2186 -0.0443 -0.1217
 9714TIP3    H153337   6.601   3.599  11.069 -0.3826 -0.6971  1.1649
 9714TIP3    H253338   6.559   3.454  11.058  0.3248 -0.7671 -1.6401
 9715TIP3   OH253339   1.340   6.010  13.417 -0.2622  0.3503 -0.0181
 9715TIP3    H153340   1.350   6.101  13.443  1.1793  0.6258 -1.3548
 9715TIP3    H253341   1.425   5.970  13.437  0.0456 -0.0153 -1.9241
 9716TIP3   OH253342   4.959   4.705  12.799 -0.0603  0.4323 -0.3665
 9716TIP3    H153343   4.869   4.686  12.826  0.1057 -1.0715 -0.7832
 9716TIP3    H253344   4.972   4.797  12.824 -1.2805  0.3200  0.8359
 9717TIP3   OH253345   1.991   5.738  11.415  0.0455  0.1696  0.0863
 9717TIP3    H153346   1.970   5.669  11.351  3.3792 -0.8315 -0.0980
 9717TIP3    H253347   2.013   5.814  11.361  0.0336  0.2294  0.1674
 9718TIP3   OH253348   1.118   4.515  11.291 -0.4917 -0.2785 -0.6720
 9718TIP3    H153349   1.189   4.512  11.355  0.1067 -4.0402 -1.2318
 9718TIP3    H253350   1.159   4.546  11.210  0.9781 -3.3604 -1.2635
 9719TIP3   OH253351   6.483   5.885  11.394  0.3553 -0.0786  0.0970
 9719TIP3    H153352   6.550   5.816  11.394  0.6551  0.2100 -0.1739
 9719TIP3    H253353   6.429   5.865  11.318  0.1668 -0.2779  0.2821
 9720TIP3   OH253354   0.915   4.848  12.181 -0.0317  0.1639  0.1131
 9720TIP3    H153355   0.919   4.927  12.235  1.4711 -0.8149  1.5078
 9720TIP3    H253356   0.824   4.845  12.151 -0.3397  1.9513  0.7329
 9721TIP3   OH253357   2.933   2.818  10.515  0.5669  1.1796 -0.1668
 9721TIP3    H153358   2.891   2.902  10.496 -1.4342  0.3577  0.4391
 9721TIP3    H253359   2.899   2.793  10.600  1.1644 -0.2511 -0.3239
 9722TIP3   OH253360   3.688   0.351  11.296  0.4879 -0.9117  0.5039
 9722TIP3    H153361   3.705   0.337  11.203 -0.1157  0.4879  0.1525
 9722TIP3    H253362   3.701   0.266  11.337  0.3146 -1.6436 -0.9312
 9723TIP3   OH253363   3.166   0.683  11.899 -0.2558  0.6533  1.1333
 9723TIP3    H153364   3.089   0.647  11.855  0.0363 -0.1912  1.2941
 9723TIP3    H253365   3.182   0.766  11.854  0.2164 -0.3270 -0.6031
 9724TIP3   OH253366   0.542   3.261  13.153  0.3679 -0.1660 -0.4468
 9724TIP3    H153367   0.607   3.209  13.105  0.2062 -1.0689  0.2976
 9724TIP3    H253368   0.579   3.350  13.154  1.3364 -0.5566 -0.4838
 9725TIP3   OH253369   3.902   2.991  12.348  1.0366 -0.1781  0.3736
 9725TIP3    H153370   3.878   2.950  12.431  1.0030 -1.3244 -0.1778
 9725TIP3    H253371   3.950   3.070  12.373 -2.2979  1.7058  1.5561
 9726TIP3   OH253372   2.961   1.869  12.007  0.0907  0.5526 -0.1689
 9726TIP3    H153373   3.004   1.894  11.926  0.9705 -2.0460 -0.5836
 9726TIP3    H253374   3.003   1.924  12.074 -0.5305  2.5991 -1.3533
 9727TIP3   OH253375   1.967   3.893  12.497  0.7574 -0.1448 -0.4347
 9727TIP3    H153376   2.051   3.932  12.519  0.8324  0.4136 -1.6445
 9727TIP3    H253377   1.909   3.968  12.483  0.3786 -0.5078 -0.8121
 9728TIP3   OH253378   4.264   1.123  11.303  0.0346 -0.1644 -0.2730
 9728TIP3    H153379   4.358   1.140  11.296  0.2535 -1.7449 -2.5763
 9728TIP3    H253380   4.223   1.209  11.297  1.3184  0.6520  1.7988
 9729TIP3   OH253381   7.256   7.183  11.673 -0.2307 -0.1204 -0.0297
 9729TIP3    H153382   7.163   7.204  11.658 -0.6243 -1.0862  0.9645
 9729TIP3    H253383   7.285   7.146  11.590 -1.0273 -0.7795 -0.0334
 9730TIP3   OH253384   2.105   6.419  11.499  0.1309 -0.2754 -0.0398
 9730TIP3    H153385   2.120   6.384  11.587 -1.2281 -0.8181  0.0063
 9730TIP3    H253386   2.180   6.474  11.481 -0.2603  1.0141  2.0470
 9731TIP3   OH253387   5.285   2.794  11.929  0.0058  0.4603 -0.3546
 9731TIP3    H153388   5.259   2.789  12.021  1.0112  0.9335 -0.0263
 9731TIP3    H253389   5.206   2.820  11.883 -0.9243 -1.3738  0.1392
 9732TIP3   OH253390   1.776   7.400  12.488 -0.0908 -0.1524 -0.2488
 9732TIP3    H153391   1.684   7.375  12.497 -0.4609  0.8030 -1.1966
 9732TIP3    H253392   1.794   7.451  12.567 -0.2397 -0.7204  0.1582
 9733TIP3   OH253393   7.213   3.611  10.836 -0.6989  0.1447  0.0519
 9733TIP3    H153394   7.192   3.560  10.915 -2.6933  1.8882  0.7544
 9733TIP3    H253395   7.159   3.689  10.844  1.1682  1.6960 -1.7018
 9734TIP3   OH253396   3.932   6.115  13.529  0.4414  0.4250  0.5754
 9734TIP3    H153397   3.920   6.021  13.544 -0.0463  0.7806  2.6466
 9734TIP3    H253398   4.008   6.121  13.472  0.1858 -1.2402  0.0220
 9735TIP3   OH253399   6.553   1.616  11.863  0.2516 -0.9303  0.0327
 9735TIP3    H153400   6.526   1.620  11.955 -0.0417 -1.2224 -0.0405
 9735TIP3    H253401   6.473   1.593  11.815  0.1694  0.2229 -0.4141
 9736TIP3   OH253402   0.827   0.554  11.570 -0.0651 -0.1119 -0.3179
 9736TIP3    H153403   0.770   0.582  11.499 -2.2499 -0.2886  1.2657
 9736TIP3    H253404   0.818   0.459  11.572  0.5786 -0.1757 -0.2819
 9737TIP3   OH253405   1.164   3.895  11.437  1.1246 -0.8538  0.0808
 9737TIP3    H153406   1.178   3.948  11.358  1.2442 -0.4324  0.3772
 9737TIP3    H253407   1.246   3.902  11.485  0.7241 -0.3018  0.7079
 9738TIP3   OH253408   4.054   0.168  11.342  0.3923 -1.0836 -0.1120
 9738TIP3    H153409   4.102   0.096  11.383 -3.1406 -2.2934  2.3909
 9738TIP3    H253410   4.085   0.246  11.388  0.3571 -1.7545  1.0871
 9739TIP3   OH253411   3.055   5.623  11.246  0.1662  0.5283 -0.4356
 9739TIP3    H153412   3.050   5.594  11.155 -1.6563  0.7017 -0.4174
 9739TIP3    H253413   2.971   5.600  11.284 -0.6274  3.8177  0.1664
 9740TIP3   OH253414   6.086   4.773  11.307  0.1850 -0.3437  0.3474
 9740TIP3    H153415   6.054   4.835  11.373  1.3767 -0.1243  0.7480
 9740TIP3    H253416   6.163   4.816  11.270  0.9450 -1.5212  0.5279
 9741TIP3   OH253417   1.955   4.040  13.081 -0.1856  0.2689 -0.2319
 9741TIP3    H153418   1.904   4.071  13.156  0.4045 -0.9679  0.7333
 9741TIP3    H253419   1.891   3.994  13.026 -0.1057 -1.7457  1.2407
 9742TIP3   OH253420   3.943   3.922  10.683 -0.0951 -0.1985  0.3289
 9742TIP3    H153421   3.984   3.965  10.758 -0.1354 -0.5410  0.5463
 9742TIP3    H253422   3.862   3.971  10.668  0.0537  0.0494  0.3260
 9743TIP3   OH253423   0.898   0.757  12.696 -0.0742  0.4631 -0.0074
 9743TIP3    H153424   0.987   0.776  12.665  0.6756 -2.6744 -0.1388
 9743TIP3    H253425   0.898   0.788  12.787  1.1462  0.5751 -0.0274
 9744TIP3   OH253426   4.581   0.631  10.703  0.1256  0.4176  0.3622
 9744TIP3    H153427   4.492   0.656  10.727  0.3732  0.7384  0.9747
 9744TIP3    H253428   4.588   0.539  10.728 -0.4247  0.0250 -0.8467
 9745TIP3   OH253429   0.054   1.708  12.100 -0.0042 -0.2381  0.0868
 9745TIP3    H153430   0.149   1.710  12.091  0.1255 -0.3366  1.2303
 9745TIP3    H253431   0.024   1.788  12.058  1.0148  2.2245  3.6239
 9746TIP3   OH253432   1.852   3.681  11.640  0.1646  0.0162 -0.0092
 9746TIP3    H153433   1.811   3.758  11.679 -0.0283  0.2358 -0.6390
 9746TIP3    H253434   1.787   3.611  11.652 -0.4543  0.3869 -1.0988
 9747TIP3   OH253435   5.339   0.204  11.717 -0.1187 -0.5635  0.7154
 9747TIP3    H153436   5.291   0.203  11.799  0.1714 -0.7256  0.8857
 9747TIP3    H253437   5.349   0.111  11.694  0.5370 -0.5580  0.9377
 9748TIP3   OH253438   2.040   1.471  12.091  0.1437 -0.0666  0.2618
 9748TIP3    H153439   2.131   1.468  12.061 -0.1398 -0.3887 -0.5865
 9748TIP3    H253440   1.997   1.398  12.046 -0.6113  0.2804  0.4051
 9749TIP3   OH253441   6.096   5.623  11.963  0.4585  0.4587 -0.0143
 9749TIP3    H153442   6.076   5.669  11.881  0.5107 -0.3137 -0.4762
 9749TIP3    H253443   6.113   5.533  11.936  0.5775  0.2142  0.8434
 9750TIP3   OH253444   0.994   2.069  12.291  0.1674  0.1740  0.0444
 9750TIP3    H153445   0.972   2.095  12.201 -0.7700  1.2286  0.5540
 9750TIP3    H253446   1.043   2.144  12.326 -1.3622  0.7263  1.0909
 9751TIP3   OH253447   6.203   5.605  13.139 -0.6232  0.1266 -0.8430
 9751TIP3    H153448   6.189   5.697  13.162  1.1200  0.1799  0.1662
 9751TIP3    H253449   6.291   5.603  13.100  0.1512 -1.3602  0.8410
 9752TIP3   OH253450   3.085   4.714  10.966 -0.4232  0.8204 -0.6675
 9752TIP3    H153451   3.051   4.645  10.910 -0.4741 -0.1965  0.5507
 9752TIP3    H253452   3.147   4.762  10.912  0.2792 -0.7442 -1.3080
 9753TIP3   OH253453   2.589   0.688  10.439 -0.0975  0.4533 -0.4132
 9753TIP3    H153454   2.498   0.675  10.464  0.4512  0.7205  1.9726
 9753TIP3    H253455   2.620   0.601  10.415 -0.8099  0.2458 -0.5826
 9754TIP3   OH253456   4.530   4.004  11.086  0.2919 -0.2669 -0.1996
 9754TIP3    H153457   4.467   4.070  11.114 -1.8872 -3.1907  2.4695
 9754TIP3    H253458   4.608   4.022  11.139 -0.5863 -0.2747  1.1577
 9755TIP3   OH253459   0.668   1.398  13.524  0.2308  0.5724 -0.0686
 9755TIP3    H153460   0.574   1.414  13.529  0.0554  0.0868 -1.4581
 9755TIP3    H253461   0.680   1.310  13.561  0.2882  1.0452  1.0679
 9756TIP3   OH253462   5.053   7.646  12.295 -0.0147  0.2799  0.0308
 9756TIP3    H153463   4.988   7.715  12.302 -0.2480  0.1049 -0.3440
 9756TIP3    H253464   5.055   7.625  12.202  0.8598  0.5482 -0.0141
 9757TIP3   OH253465   2.573   3.697  11.369 -0.4585 -0.1052 -0.4255
 9757TIP3    H153466   2.620   3.636  11.426 -0.5051 -0.8307 -1.1450
 9757TIP3    H253467   2.482   3.667  11.372 -0.1322 -1.5649 -2.5753
 9758TIP3   OH253468   4.967   6.222  10.672 -0.1660  0.5455  0.3833
 9758TIP3    H153469   4.952   6.310  10.638  1.6694  0.5914 -0.4089
 9758TIP3    H253470   4.893   6.207  10.731 -0.8458  2.3646  0.0813
 9759TIP3   OH253471   5.689   1.059  11.092 -0.8016 -0.4249  0.3264
 9759TIP3    H153472   5.641   1.141  11.104 -1.3991 -0.2426 -2.5690
 9759TIP3    H253473   5.778   1.079  11.117 -0.6440  1.5843 -1.5265
 9760TIP3   OH253474   4.955   6.945  11.441 -0.3064  0.2857 -0.2688
 9760TIP3    H153475   4.925   7.015  11.499 -1.5241 -1.2874  1.0961
 9760TIP3    H253476   5.007   6.887  11.498 -1.5519 -1.3103 -0.6641
 9761TIP3   OH253477   4.576   2.262  11.271 -0.0050  0.0812 -0.2833
 9761TIP3    H153478   4.650   2.214  11.232 -1.6087 -1.9808 -0.9678
 9761TIP3    H253479   4.571   2.343  11.220  1.2452 -0.1259 -0.7837
 9762TIP3   OH253480   7.322   1.713  10.376  0.4202 -0.0037  0.3413
 9762TIP3    H153481   7.408   1.681  10.405  0.2740 -0.3455  0.4052
 9762TIP3    H253482   7.341   1.766  10.298  0.6952 -0.0281  0.3919
 9763TIP3   OH253483   6.393   2.699  10.957  0.1594 -0.6685  0.3618
 9763TIP3    H153484   6.310   2.743  10.975  0.2290 -0.7332  0.8619
 9763TIP3    H253485   6.423   2.669  11.043  0.4822 -1.0313  0.1259
 9764TIP3   OH253486   4.311   7.558  11.669 -0.0522  0.6761  0.4868
 9764TIP3    H153487   4.281   7.489  11.610 -1.6638 -0.4053  2.4729
 9764TIP3    H253488   4.243   7.625  11.664  0.5535  1.2721  0.0279
 9765TIP3   OH253489   0.282   5.035  10.655 -0.3576  0.0928 -0.3239
 9765TIP3    H153490   0.278   5.073  10.567  0.5161  0.7563 -0.0853
 9765TIP3    H253491   0.249   5.104  10.712 -0.8419 -0.3083 -0.1114
 9766TIP3   OH253492   4.835   4.399  12.811 -0.5707  0.0566  0.0056
 9766TIP3    H153493   4.804   4.489  12.818  1.2187  0.7517 -0.4837
 9766TIP3    H253494   4.878   4.394  12.726 -1.6979 -1.6306 -0.5214
 9767TIP3   OH253495   7.234   1.693  11.237  0.3159 -0.4737  0.1789
 9767TIP3    H153496   7.241   1.750  11.315  0.5417  0.0393 -0.2097
 9767TIP3    H253497   7.278   1.743  11.168  2.1064 -1.8785  0.2324
 9768TIP3   OH253498   3.907   6.615  12.260  0.3114 -0.7188 -0.4841
 9768TIP3    H153499   3.825   6.575  12.289  0.4707 -1.4674 -1.0350
 9768TIP3    H253500   3.963   6.615  12.338 -0.5756  0.7989  0.1814
 9769TIP3   OH253501   5.227   6.652  12.084 -0.4747  0.2773 -0.2345
 9769TIP3    H153502   5.177   6.587  12.033  0.2161 -0.4185 -0.0394
 9769TIP3    H253503   5.189   6.647  12.172  0.1432 -0.4884 -0.0027
 9770TIP3   OH253504   2.260   3.188  13.030  0.4100 -0.2494  0.4586
 9770TIP3    H153505   2.272   3.279  13.057  3.1802 -0.1478 -0.7359
 9770TIP3    H253506   2.301   3.137  13.099 -1.8052 -0.7272  1.5071
 9771TIP3   OH253507   7.595   5.215  12.333  0.2173  0.7596 -0.3705
 9771TIP3    H153508   7.631   5.184  12.250  0.3814 -0.0571 -0.0013
 9771TIP3    H253509   7.509   5.249  12.310 -0.6015 -1.3009 -0.5950
 9772TIP3   OH253510   5.849   2.568  13.078 -0.9444 -0.0922 -0.3514
 9772TIP3    H153511   5.894   2.538  13.157  1.8288 -2.8839 -2.6775
 9772TIP3    H253512   5.840   2.662  13.089  1.7624  0.0068  2.1602
 9773TIP3   OH253513   3.939   6.522  11.315 -0.1231  0.1203 -0.4004
 9773TIP3    H153514   3.913   6.539  11.225 -2.3716  3.5122  0.6970
 9773TIP3    H253515   3.980   6.604  11.344  1.0271 -1.0511  1.5422
 9774TIP3   OH253516   7.133   2.048  12.595 -0.0124 -0.1560 -0.4873
 9774TIP3    H153517   7.050   2.010  12.624  1.2381 -1.1608  2.1846
 9774TIP3    H253518   7.127   2.140  12.620 -0.4361 -0.1551 -0.5790
 9775TIP3   OH253519   0.596   2.142  11.805  0.4297 -0.1965 -0.3125
 9775TIP3    H153520   0.649   2.071  11.770  1.3397 -0.5048  1.5927
 9775TIP3    H253521   0.582   2.201  11.730  1.8126 -1.0786 -1.3021
 9776TIP3   OH253522   3.642   7.060  11.221 -0.4344 -0.4854  0.0669
 9776TIP3    H153523   3.647   7.155  11.229  1.3090 -0.6618  1.9386
 9776TIP3    H253524   3.556   7.044  11.182 -1.5344  1.7907  1.3158
 9777TIP3   OH253525   4.540   2.781  10.119 -0.0204 -0.1624  0.0476
 9777TIP3    H153526   4.465   2.839  10.132  1.2044  2.0261 -1.8717
 9777TIP3    H253527   4.609   2.838  10.087  2.0339 -2.3547  0.3065
 9778TIP3   OH253528   1.822   1.205  10.405  0.0684  0.1120 -0.6247
 9778TIP3    H153529   1.748   1.151  10.377  0.3236 -0.2153 -0.6756
 9778TIP3    H253530   1.894   1.143  10.414  0.2348  0.3696 -0.1899
 9779TIP3   OH253531   3.178   1.141  12.445  0.9724  0.3288 -0.0241
 9779TIP3    H153532   3.172   1.236  12.456 -0.6143  0.2993 -0.4255
 9779TIP3    H253533   3.265   1.119  12.477  2.3257  2.2186 -2.1462
 9780TIP3   OH253534   4.359   2.239  12.228  0.1887 -0.1676 -0.7262
 9780TIP3    H153535   4.407   2.295  12.167  0.4531 -2.2604 -2.5729
 9780TIP3    H253536   4.267   2.256  12.208  0.2363  0.3947 -0.4914
 9781TIP3   OH253537   5.171   6.648  11.370 -0.1264 -0.1091 -0.0524
 9781TIP3    H153538   5.209   6.561  11.367  0.2397  0.0644 -0.5178
 9781TIP3    H253539   5.121   6.655  11.288 -1.3600 -0.4171  0.6417
 9782TIP3   OH253540   4.115   2.871  13.014  0.2170 -0.1316  0.0271
 9782TIP3    H153541   4.092   2.779  13.029 -3.0564  0.7211  1.2156
 9782TIP3    H253542   4.141   2.903  13.100  1.5601  0.0262 -0.4258
 9783TIP3   OH253543   5.712   5.225  11.076 -0.4347 -0.0285  0.2816
 9783TIP3    H153544   5.694   5.132  11.061  0.4363 -0.4779  1.7764
 9783TIP3    H253545   5.791   5.225  11.130 -1.5700  1.4916  2.0609
 9784TIP3   OH253546   1.315   0.109  12.444  0.3088 -0.7001 -0.1831
 9784TIP3    H153547   1.297   0.095  12.537  0.1991 -1.9594 -0.3791
 9784TIP3    H253548   1.256   0.180  12.419  1.2819  0.5824  1.0037
 9785TIP3   OH253549   5.447   3.810  10.949 -0.0603  0.3827  0.0952
 9785TIP3    H153550   5.395   3.890  10.951 -0.9907 -0.2161 -0.0583
 9785TIP3    H253551   5.399   3.749  11.004  0.6954 -0.0493  0.2836
 9786TIP3   OH253552   7.119   3.652  12.430 -0.2027 -0.5308 -0.0628
 9786TIP3    H153553   7.188   3.684  12.372 -0.8475  0.1774 -0.4571
 9786TIP3    H253554   7.122   3.710  12.506 -1.9946  1.1936 -1.1904
 9787TIP3   OH253555   4.296   0.637  11.168 -0.6669 -0.9333 -0.0708
 9787TIP3    H153556   4.256   0.723  11.162 -0.1637 -0.5462  1.4955
 9787TIP3    H253557   4.364   0.636  11.101  0.1520  0.3759  0.7043
 9788TIP3   OH253558   6.739   2.721  10.817  0.4638  0.7626 -0.0236
 9788TIP3    H153559   6.723   2.659  10.746  1.3712 -0.9837  1.2172
 9788TIP3    H253560   6.789   2.792  10.776  2.4175 -0.9925 -0.8904
 9789TIP3   OH253561   6.822   4.655  12.137 -0.2901 -0.3218  0.3052
 9789TIP3    H153562   6.860   4.607  12.064 -0.9408  0.3796 -0.5123
 9789TIP3    H253563   6.749   4.703  12.099  0.6381  1.7125  0.9708
 9790TIP3   OH253564   6.048   2.874  12.229  0.4552  0.3880  0.1059
 9790TIP3    H153565   6.024   2.787  12.197 -2.1148  0.4703  1.5584
 9790TIP3    H253566   6.131   2.894  12.185 -0.2779 -1.6034 -2.4094
 9791TIP3   OH253567   4.054   6.216  12.684 -0.4120 -0.5077 -0.0616
 9791TIP3    H153568   4.046   6.260  12.769 -1.6440 -0.7855 -0.0200
 9791TIP3    H253569   4.148   6.207  12.671 -0.1992 -0.3333  1.2115
 9792TIP3   OH253570   7.168   5.208  11.506  0.1710 -0.5525 -0.1556
 9792TIP3    H153571   7.198   5.269  11.573  0.3566 -0.5754 -0.2150
 9792TIP3    H253572   7.239   5.143  11.499 -0.5411 -1.4716  0.7688
 9793TIP3   OH253573   2.340   5.044  10.892 -0.3490  0.2024 -0.1579
 9793TIP3    H153574   2.393   4.999  10.826 -2.2563 -1.4790 -0.6591
 9793TIP3    H253575   2.307   4.974  10.948 -0.7566  1.3568  1.0887
 9794TIP3   OH253576   4.141   0.937  11.702 -0.2926 -0.1367 -0.2138
 9794TIP3    H153577   4.208   0.914  11.767  0.4621  0.6790 -0.6729
 9794TIP3    H253578   4.074   0.870  11.711  0.6599 -1.0556  0.1595
 9795TIP3   OH253579   7.006   1.610  10.755 -0.0096 -0.1594  0.0173
 9795TIP3    H153580   6.986   1.526  10.795 -0.7401 -0.7871 -1.5826
 9795TIP3    H253581   7.027   1.668  10.829 -1.1354 -1.2926  1.2700
 9796TIP3   OH253582   2.917   4.507  10.903 -0.1766 -0.4568  0.4063
 9796TIP3    H153583   2.939   4.485  10.993  0.2549 -0.3369  0.3365
 9796TIP3    H253584   2.827   4.538  10.906 -0.6785 -1.8655  0.5533
 9797TIP3   OH253585   3.104   4.285  11.608 -0.5587 -0.1392 -0.8971
 9797TIP3    H153586   3.128   4.345  11.537  1.5342  1.7579  1.2456
 9797TIP3    H253587   3.169   4.215  11.604 -0.0296  0.3215 -0.4728
 9798TIP3   OH253588   7.463   3.343  10.365  0.3286 -0.2613  0.2220
 9798TIP3    H153589   7.410   3.322  10.288  2.0014  2.2893 -1.7976
 9798TIP3    H253590   7.549   3.307  10.345  0.4887 -0.5864  1.4633
 9799TIP3   OH253591   5.341   2.140  10.952 -0.3755  0.1667 -0.2657
 9799TIP3    H153592   5.343   2.055  10.997 -2.1245  0.6592  0.8156
 9799TIP3    H253593   5.418   2.138  10.895 -0.2567 -2.0566 -0.1204
 9800TIP3   OH253594   1.213   4.056  10.667  0.1231 -0.3288  0.6109
 9800TIP3    H153595   1.232   4.127  10.728  2.2246 -0.3978  0.1165
 9800TIP3    H253596   1.223   4.096  10.580  0.4951 -1.0225  0.3308
 9801TIP3   OH253597   0.384   0.157  12.226 -0.5061  0.3615 -0.0718
 9801TIP3    H153598   0.291   0.158  12.203 -0.1418 -1.3005 -1.9160
 9801TIP3    H253599   0.385   0.151  12.321 -2.3187 -0.6049 -0.0738
 9802TIP3   OH253600   0.013   1.958  11.182 -0.5160 -0.1107 -0.6248
 9802TIP3    H153601  -0.064   2.015  11.186  1.1808  2.2675 -0.0959
 9802TIP3    H253602   0.012   1.909  11.264 -0.1629  1.7343  0.5158
 9803TIP3   OH253603   6.925   0.044  12.316 -0.4662  0.1759  0.3053
 9803TIP3    H153604   6.919  -0.046  12.345 -0.8660  0.3842  0.8868
 9803TIP3    H253605   6.848   0.057  12.261 -1.3525  0.6386  1.5961
 9804TIP3   OH253606   3.475   6.051  11.071 -0.0555 -0.2571 -0.2560
 9804TIP3    H153607   3.449   6.006  10.990  3.0571 -4.5458  0.7283
 9804TIP3    H253608   3.558   6.093  11.050  0.8856 -1.5818  0.6510
 9805TIP3   OH253609   6.146   4.771  12.587  0.1997 -0.1908 -0.3120
 9805TIP3    H153610   6.205   4.697  12.580  2.5265  1.5441 -0.3453
 9805TIP3    H253611   6.200   4.847  12.562 -2.1299  1.4855 -0.6108
 9806TIP3   OH253612   1.594   7.282  10.466  0.4545  0.1611 -0.6710
 9806TIP3    H153613   1.598   7.249  10.555  0.8364 -1.0689 -1.1240
 9806TIP3    H253614   1.556   7.370  10.474  2.0975  0.7852  0.8766
 9807TIP3   OH253615   2.068   7.426  10.564 -0.1846  0.4773 -0.0605
 9807TIP3    H153616   2.028   7.403  10.480  0.3083  0.2137 -0.2246
 9807TIP3    H253617   1.993   7.441  10.622 -0.5282 -0.9077 -0.1117
 9808TIP3   OH253618   3.283   3.618  11.466  0.2260  0.5861 -0.0409
 9808TIP3    H153619   3.332   3.579  11.393 -0.1964  0.6296 -0.3470
 9808TIP3    H253620   3.345   3.616  11.539  0.1669 -0.8478  0.0090
 9809TIP3   OH253621   6.841   0.853  12.741  0.1931 -0.2463  0.7890
 9809TIP3    H153622   6.779   0.796  12.785 -0.6797 -0.0488 -0.1396
 9809TIP3    H253623   6.814   0.853  12.649  1.1434  0.3960  0.4812
 9810TIP3   OH253624   2.730   3.524  13.052 -0.1367 -0.5523  0.1614
 9810TIP3    H153625   2.749   3.469  12.976 -0.9511 -1.6558  0.7405
 9810TIP3    H253626   2.804   3.509  13.111 -0.1131 -0.6468  0.1091
 9811TIP3   OH253627   4.840   5.630  13.474  0.7918  0.3142 -0.1087
 9811TIP3    H153628   4.822   5.692  13.545 -0.2464 -1.5855  1.3839
 9811TIP3    H253629   4.756   5.589  13.456  1.3146 -0.1760 -1.5485
 9812TIP3   OH253630   0.796   6.518  11.620 -0.6157 -0.3651  0.4549
 9812TIP3    H153631   0.705   6.506  11.593 -1.0147  1.5049  0.7658
 9812TIP3    H253632   0.808   6.458  11.693 -1.9531  0.0760  1.0755
 9813TIP3   OH253633   4.829   3.340  13.102 -0.5048  0.0550 -0.7358
 9813TIP3    H153634   4.798   3.285  13.030 -3.4603  0.5856  0.0004
 9813TIP3    H253635   4.806   3.291  13.181  0.4321  0.5911 -0.1072
 9814TIP3   OH253636   5.509   2.972  10.714 -0.1789 -0.2275  0.4564
 9814TIP3    H153637   5.576   2.904  10.727  0.2034  0.2719  1.1348
 9814TIP3    H253638   5.559   3.049  10.684 -0.7772 -0.6791 -1.9152
 9815TIP3   OH253639   0.746   0.288  11.236 -0.1123 -0.0286  0.5090
 9815TIP3    H153640   0.752   0.208  11.287  3.2061 -0.0801  0.3007
 9815TIP3    H253641   0.818   0.281  11.172 -0.9348  2.2557 -0.7928
 9816TIP3   OH253642   1.103   5.711  11.208  0.3403 -0.1109  0.2411
 9816TIP3    H153643   1.193   5.707  11.176 -0.1454 -2.8813 -1.1506
 9816TIP3    H253644   1.075   5.801  11.193  2.2664  0.3082 -1.1169
 9817TIP3   OH253645   2.044   6.682  12.560  0.4502 -0.5929  0.3473
 9817TIP3    H153646   2.052   6.676  12.465 -1.0756 -1.0900  0.2143
 9817TIP3    H253647   2.072   6.771  12.581 -0.8909  0.1581 -0.8158
 9818TIP3   OH253648   7.086   3.830  12.094 -0.4968 -0.2542  0.2959
 9818TIP3    H153649   7.112   3.920  12.115  1.2283 -0.9194  1.1911
 9818TIP3    H253650   7.164   3.778  12.113 -1.6313 -2.0135  0.2885
 9819TIP3   OH253651   7.423   1.878  10.178  0.1535  0.3612  0.2490
 9819TIP3    H153652   7.516   1.890  10.197  0.0680  0.6207  0.5012
 9819TIP3    H253653   7.392   1.965  10.153 -0.2029  0.4371  0.9374
 9820TIP3   OH253654   5.148   6.221  10.901  0.4363 -0.0939  0.4739
 9820TIP3    H153655   5.153   6.144  10.958  1.1824  0.1240  0.7074
 9820TIP3    H253656   5.073   6.202  10.844  1.5363 -1.7079 -0.5194
 9821TIP3   OH253657   5.250   4.965  12.263 -0.1361 -0.1730  0.4627
 9821TIP3    H153658   5.179   5.006  12.213  0.1904  0.5760  0.6065
 9821TIP3    H253659   5.279   5.033  12.324 -0.5794 -1.0758  1.7504
 9822TIP3   OH253660   6.678   0.761  12.959  0.1482 -0.1354 -0.0241
 9822TIP3    H153661   6.600   0.706  12.963 -0.4774  0.7276 -0.2774
 9822TIP3    H253662   6.645   0.850  12.950  1.1256  0.4286  1.5239
 9823TIP3   OH253663   1.961   0.047  11.646  0.3309  1.3837  0.0012
 9823TIP3    H153664   1.927   0.136  11.636 -1.2092  0.9741  1.1304
 9823TIP3    H253665   1.921   0.016  11.727  0.8520 -0.3336 -0.3658
 9824TIP3   OH253666   6.895   6.107  11.773  0.0057 -0.1710 -0.0816
 9824TIP3    H153667   6.972   6.090  11.720 -0.5618 -0.1982 -0.9204
 9824TIP3    H253668   6.822   6.075  11.721 -1.0047  3.4145 -1.1537
 9825TIP3   OH253669   2.805   0.430  10.935 -0.3759 -0.0643  0.1886
 9825TIP3    H153670   2.848   0.368  10.995 -1.4631  1.7752  3.0372
 9825TIP3    H253671   2.716   0.397  10.927 -1.3777  1.7065  2.8417
 9826TIP3   OH253672   5.943   2.096  10.710  0.2588  0.2341  0.3676
 9826TIP3    H153673   5.993   2.054  10.779  0.0306 -1.3758 -0.4093
 9826TIP3    H253674   6.003   2.103  10.636  0.2516  1.1765  0.4325
 9827TIP3   OH253675   2.541   2.575  12.617 -0.0079 -0.7528  0.7099
 9827TIP3    H153676   2.553   2.646  12.680  0.1195 -0.0760 -0.0596
 9827TIP3    H253677   2.623   2.526  12.621  1.0580  0.8104 -0.7738
 9828TIP3   OH253678   0.894   1.818  13.014 -0.4945  0.4593  0.3131
 9828TIP3    H153679   0.906   1.724  13.001  1.5289  0.5016  1.4488
 9828TIP3    H253680   0.931   1.859  12.936  0.8646  0.3446  0.8618
 9829TIP3   OH253681   2.449   1.843  11.391 -0.3100  0.5694 -0.5793
 9829TIP3    H153682   2.471   1.936  11.395 -0.7253  0.6858 -0.9654
 9829TIP3    H253683   2.369   1.840  11.340 -0.3157 -0.0010 -0.5355
 9830TIP3   OH253684   3.366   3.114  11.128  0.3552 -0.0034  0.3268
 9830TIP3    H153685   3.444   3.098  11.075  1.5023  2.2155  1.2114
 9830TIP3    H253686   3.326   3.192  11.089  0.1587  0.5315  1.5370
 9831TIP3   OH253687   1.173   3.958  11.886 -0.0978  0.6771 -0.5157
 9831TIP3    H153688   1.140   4.043  11.857  0.8159  0.7626 -1.3614
 9831TIP3    H253689   1.246   3.980  11.944  0.4748  0.4833 -1.1481
 9832TIP3   OH253690   6.806   3.424  13.172 -0.3231  0.7089  0.1203
 9832TIP3    H153691   6.882   3.455  13.221  0.8721 -0.5528 -0.8795
 9832TIP3    H253692   6.760   3.504  13.147  1.3692  1.5846 -0.3465
 9833TIP3   OH253693   6.331   5.930  12.227 -0.3543 -0.0533 -0.7320
 9833TIP3    H153694   6.247   5.944  12.184 -0.2099 -0.4043 -1.1307
 9833TIP3    H253695   6.393   5.916  12.155  0.0762  0.3649 -0.4501
 9834TIP3   OH253696   7.094   5.084  10.742  0.1050  0.0365  0.0080
 9834TIP3    H153697   7.060   5.050  10.659 -1.6484 -2.0781  1.4930
 9834TIP3    H253698   7.016   5.109  10.792  1.0295 -0.1332  1.5959
 9835TIP3   OH253699   0.363   1.048  13.206 -0.3309  0.1494  0.4975
 9835TIP3    H153700   0.419   0.973  13.226 -0.2153 -0.1246 -0.7649
 9835TIP3    H253701   0.280   1.010  13.180  0.2179  0.3426 -1.7272
 9836TIP3   OH253702   3.159   3.483  10.518  0.2201 -0.1195 -0.5074
 9836TIP3    H153703   3.142   3.577  10.518 -1.2931 -0.3485  0.3377
 9836TIP3    H253704   3.075   3.444  10.543  1.1026 -1.6428  0.1997
 9837TIP3   OH253705   4.241   1.492  11.994 -0.3150  0.6843  0.4129
 9837TIP3    H153706   4.148   1.482  11.973 -0.5413  1.0316  1.2207
 9837TIP3    H253707   4.266   1.408  12.034 -0.3122  0.6359  0.3093
 9838TIP3   OH253708   6.793   4.552  12.947  0.2983  0.1803 -0.0808
 9838TIP3    H153709   6.798   4.618  13.016 -0.5470 -0.2007  0.3571
 9838TIP3    H253710   6.715   4.576  12.897  2.1758  1.8574 -2.3985
 9839TIP3   OH253711   5.875   6.080  13.076 -0.1028 -0.2227  0.4371
 9839TIP3    H153712   5.844   6.002  13.123  1.2457 -0.4735  0.9607
 9839TIP3    H253713   5.909   6.138  13.145 -1.6935  1.1478  0.1246
 9840TIP3   OH253714   4.598   6.677  12.541  0.0535  0.1028  0.4096
 9840TIP3    H153715   4.517   6.645  12.581  0.9860 -1.0540  1.4426
 9840TIP3    H253716   4.624   6.752  12.594  0.5058 -0.5260  1.0922
 9841TIP3   OH253717   1.066   3.686  10.493 -0.1193 -0.8964  0.2249
 9841TIP3    H153718   1.075   3.606  10.544 -0.0513 -0.2238  1.2898
 9841TIP3    H253719   1.154   3.725  10.494 -0.3800 -0.3087  0.5574
 9842TIP3   OH253720   1.337   1.491  12.672 -0.9301 -0.4545 -0.0484
 9842TIP3    H153721   1.376   1.406  12.695 -0.8098 -0.2984  0.3311
 9842TIP3    H253722   1.266   1.469  12.611 -0.1273 -0.7331 -0.9199
 9843TIP3   OH253723   5.399   7.581  11.944 -0.1648 -0.1945 -0.0045
 9843TIP3    H153724   5.408   7.486  11.947  0.7841 -0.0833  1.4419
 9843TIP3    H253725   5.377   7.600  11.853 -1.5606 -1.8834 -0.0692
 9844TIP3   OH253726   2.405   4.716  11.722  0.3866  0.9702 -0.2896
 9844TIP3    H153727   2.391   4.794  11.668 -0.2521  0.5664 -0.7286
 9844TIP3    H253728   2.408   4.644  11.659  0.6240  0.6029  0.1400
 9845TIP3   OH253729   1.287   4.890  12.363  0.2823 -0.2790 -0.1335
 9845TIP3    H153730   1.228   4.924  12.296  1.0141 -0.5318 -0.9172
 9845TIP3    H253731   1.317   4.968  12.411 -1.0595 -0.1909  0.6083
 9846TIP3   OH253732   0.972   7.251  13.395 -0.1605 -0.0458 -0.4213
 9846TIP3    H153733   0.921   7.191  13.450 -0.8834  1.4922  0.6588
 9846TIP3    H253734   0.976   7.332  13.446 -0.4926  1.3143 -2.4494
 9847TIP3   OH253735   7.393   7.379  12.315 -0.5471  0.1481 -0.6804
 9847TIP3    H153736   7.415   7.472  12.309 -0.6359  0.0743 -3.1931
 9847TIP3    H253737   7.470   7.334  12.279 -0.5349 -0.7618  0.4434
 9848TIP3   OH253738   1.183   1.396  13.296 -0.0454  0.4476 -0.0062
 9848TIP3    H153739   1.118   1.326  13.288  0.4324 -0.1284  0.9177
 9848TIP3    H253740   1.132   1.474  13.316 -0.4282 -0.1951  1.7548
 9849TIP3   OH253741   1.649   6.611  11.736  0.0699 -0.2460 -0.1934
 9849TIP3    H153742   1.585   6.567  11.792 -1.1124  1.4210 -0.1411
 9849TIP3    H253743   1.707   6.657  11.796  0.4862 -0.6552 -0.2784
 9850TIP3   OH253744   6.342   5.784  10.550  0.8525  0.4014  0.2841
 9850TIP3    H153745   6.321   5.702  10.505 -0.8851  0.6875  0.4676
 9850TIP3    H253746   6.430   5.772  10.584  0.7699 -1.2428 -0.0133
 9851TIP3   OH253747   6.819   5.743  11.120  0.7213 -0.2154 -0.1717
 9851TIP3    H153748   6.845   5.806  11.052 -2.1381  0.2364 -0.9844
 9851TIP3    H253749   6.818   5.659  11.075 -0.4704 -0.0215 -0.5487
 9852TIP3   OH253750   4.103   2.650  12.386  0.1867  0.6587  0.0505
 9852TIP3    H153751   4.089   2.717  12.319  0.6388  1.6030  0.8756
 9852TIP3    H253752   4.181   2.679  12.434  1.3124 -1.2350 -0.5033
 9853TIP3   OH253753   0.499   6.255  12.525 -0.3848  0.1736  0.1446
 9853TIP3    H153754   0.552   6.333  12.508 -0.6885  0.4303  0.3602
 9853TIP3    H253755   0.409   6.285  12.514 -0.4838 -0.2833 -0.3188
 9854TIP3   OH253756   2.556   4.939  12.072  0.7485  0.6584  0.2162
 9854TIP3    H153757   2.562   4.851  12.110  0.4576  0.2692 -0.6333
 9854TIP3    H253758   2.636   4.949  12.022  0.3819  0.5443 -0.3947
 9855TIP3   OH253759   1.549   4.391  12.744 -0.2759 -0.1452 -0.0929
 9855TIP3    H153760   1.569   4.303  12.712 -2.1427 -1.4216  2.0751
 9855TIP3    H253761   1.634   4.425  12.772  0.8083 -0.3991 -2.7282
 9856TIP3   OH253762   4.255   7.634  13.328 -0.8716 -0.0816 -0.1487
 9856TIP3    H153763   4.268   7.692  13.402 -2.3752 -1.9922  1.7313
 9856TIP3    H253764   4.228   7.692  13.257 -1.2256  1.6171  1.3096
 9857TIP3   OH253765   1.851   0.125  12.304 -0.3689  0.5868  0.6557
 9857TIP3    H153766   1.906   0.161  12.374 -0.4501  1.5176  0.2500
 9857TIP3    H253767   1.885   0.165  12.224 -2.1615  1.8763  0.4739
 9858TIP3   OH253768   3.410   6.959  13.086  0.3545  0.3084 -0.0923
 9858TIP3    H153769   3.370   6.983  13.002 -0.6891 -0.2332  0.2377
 9858TIP3    H253770   3.459   7.037  13.112 -0.1029  0.8215 -0.7347
 9859TIP3   OH253771   0.656   3.399  12.889 -0.4034 -0.0127 -0.0652
 9859TIP3    H153772   0.672   3.398  12.795 -0.6740 -1.0701 -0.1105
 9859TIP3    H253773   0.561   3.393  12.897 -0.4379  0.8303  0.2741
 9860TIP3   OH253774   4.443   4.258  11.183  0.0328 -0.5991  0.3148
 9860TIP3    H153775   4.519   4.289  11.134 -0.2689 -0.9598 -0.3917
 9860TIP3    H253776   4.416   4.334  11.235 -1.1596  0.6426 -1.9520
 9861TIP3   OH253777   7.215   6.703  12.754 -0.5194 -0.3302 -0.0075
 9861TIP3    H153778   7.160   6.746  12.819  0.0121 -0.7257  0.7049
 9861TIP3    H253779   7.304   6.709  12.789  0.1921  1.7625 -1.8883
 9862TIP3   OH253780   6.937   4.518  11.899 -0.3204  0.2591  0.0910
 9862TIP3    H153781   6.954   4.443  11.843  0.2139 -0.4884  1.2081
 9862TIP3    H253782   7.018   4.529  11.950 -0.1186  2.0374 -0.5288
 9863TIP3   OH253783   3.448   2.142  11.136  0.1898  0.2875 -0.0305
 9863TIP3    H153784   3.400   2.104  11.209  3.0629  0.5406  2.1926
 9863TIP3    H253785   3.449   2.074  11.068  0.6112 -1.5093  1.6899
 9864TIP3   OH253786   4.856   2.683  10.757 -0.1892 -0.8355  0.1648
 9864TIP3    H153787   4.948   2.693  10.733 -0.1844  0.8505  0.7644
 9864TIP3    H253788   4.808   2.710  10.678 -0.1697  0.0169  0.4431
 9865TIP3   OH253789   7.537   2.600  11.859  0.0507  0.1268 -0.3503
 9865TIP3    H153790   7.574   2.518  11.827 -0.0614  0.0283 -0.2285
 9865TIP3    H253791   7.445   2.579  11.879  0.8533 -0.7458  3.2360
 9866TIP3   OH253792   0.170   3.190  12.085  0.0187  0.0349  0.3821
 9866TIP3    H153793   0.127   3.246  12.150 -0.3201  1.0416 -0.6744
 9866TIP3    H253794   0.177   3.245  12.007  2.4003 -0.4140  0.2195
 9867TIP3   OH253795   3.844   4.148  11.159  0.0853 -0.0489  0.4188
 9867TIP3    H153796   3.933   4.131  11.189  1.0260  0.0805 -2.0596
 9867TIP3    H253797   3.813   4.064  11.126 -0.9708 -0.2219  1.7398
 9868TIP3   OH253798   7.254   4.192  12.687 -0.3680  0.1755  0.0859
 9868TIP3    H153799   7.272   4.255  12.757  1.6047  0.2443 -0.4283
 9868TIP3    H253800   7.202   4.124  12.729  1.4293 -0.2086  1.8694
 9869TIP3   OH253801   5.248   5.091  11.941 -0.1471 -0.6650 -0.1290
 9869TIP3    H153802   5.320   5.085  12.003  0.5487  0.0794 -0.8521
 9869TIP3    H253803   5.189   5.019  11.965  0.4249 -0.7695  0.9789
 9870TIP3   OH253804   5.907   4.790  12.733  0.1315  0.1063  0.1273
 9870TIP3    H153805   5.924   4.879  12.764  0.2042 -0.4364  1.7086
 9870TIP3    H253806   5.970   4.777  12.662  1.0412  0.8598  0.7694
 9871TIP3   OH253807   6.013   0.379  11.815 -0.2097 -0.3995  0.7028
 9871TIP3    H153808   6.055   0.453  11.771 -1.4734  0.3876  0.7572
 9871TIP3    H253809   6.019   0.401  11.908 -2.2457  0.6342  0.6527
 9872TIP3   OH253810   4.612   0.953  11.406  0.1984  0.2740 -0.3545
 9872TIP3    H153811   4.565   1.001  11.337  0.4718  1.7581  0.4481
 9872TIP3    H253812   4.692   0.923  11.363  1.7050  3.5280 -0.1240
 9873TIP3   OH253813   5.092   1.828  10.976 -0.8658 -0.1776 -0.1218
 9873TIP3    H153814   5.134   1.855  10.894 -0.8181  2.0239  0.5666
 9873TIP3    H253815   4.999   1.819  10.953 -1.0592  1.6138 -0.2241
 9874TIP3   OH253816   0.037   1.998  12.445 -0.2333 -0.0426 -0.3613
 9874TIP3    H153817   0.107   2.024  12.505  0.2445 -2.2573  0.1049
 9874TIP3    H253818   0.083   1.962  12.369 -0.8781  0.5142 -1.0385
 9875TIP3   OH253819   1.524   3.147  11.050  0.1435 -0.3639 -0.4093
 9875TIP3    H153820   1.494   3.111  10.966  0.7320 -2.2306  0.1222
 9875TIP3    H253821   1.607   3.189  11.030 -1.2340  2.1405 -1.3202
 9876TIP3   OH253822   4.725   7.248  12.074  0.0303 -0.5288  0.2138
 9876TIP3    H153823   4.655   7.313  12.073  0.9191  0.4574 -0.4968
 9876TIP3    H253824   4.770   7.260  11.990  2.0487 -0.0031  1.3108
 9877TIP3   OH253825   0.186   7.403  12.407  0.3350 -0.3472  0.1257
 9877TIP3    H153826   0.182   7.478  12.467 -3.1304 -0.8332  0.6878
 9877TIP3    H253827   0.172   7.441  12.321  0.8422 -0.1393  0.1287
 9878TIP3   OH253828   6.935   6.416  13.039 -0.2563  0.5815  0.1592
 9878TIP3    H153829   6.991   6.340  13.023  2.3018  2.3166  0.2637
 9878TIP3    H253830   6.922   6.456  12.953 -0.3908  0.8154  0.2857
 9879TIP3   OH253831   1.561   0.653  13.499  0.1193 -0.0848 -0.1347
 9879TIP3    H153832   1.629   0.693  13.445  1.3830  0.1397  1.5455
 9879TIP3    H253833   1.602   0.575  13.536 -0.9788 -0.6765 -0.1201
 9880TIP3   OH253834   0.087   3.890  11.175  0.6063  0.1666  0.4753
 9880TIP3    H153835   0.115   3.907  11.085 -0.1435  1.8571  0.5119
 9880TIP3    H253836   0.015   3.828  11.166  2.4541 -2.0579  0.1810
 9881TIP3   OH253837   4.895   6.706  11.758  0.0390 -0.8737 -0.4314
 9881TIP3    H153838   4.891   6.695  11.853 -0.1473 -1.3046 -0.4865
 9881TIP3    H253839   4.855   6.626  11.723 -1.5559  0.0449 -0.8511
 9882TIP3   OH253840   7.027   4.911  11.456  0.8122 -0.9105 -0.4393
 9882TIP3    H153841   7.028   4.903  11.360  0.5219  0.3798 -0.5716
 9882TIP3    H253842   7.075   4.992  11.473 -0.2639 -0.4351  0.4209
 9883TIP3   OH253843   5.227   0.108  13.226 -0.8279  0.0083  0.2126
 9883TIP3    H153844   5.211   0.113  13.132 -0.0069  0.1340  0.0693
 9883TIP3    H253845   5.226   0.199  13.255  1.4152  0.1884 -0.1345
 9884TIP3   OH253846   0.673   2.010  11.578 -0.2166  0.3207  0.1460
 9884TIP3    H153847   0.625   1.958  11.514 -2.4362  0.3583  1.6282
 9884TIP3    H253848   0.702   1.946  11.643  1.2509  0.3866 -0.4240
 9885TIP3   OH253849   6.367   5.268  10.604 -0.5165  0.2467 -0.0885
 9885TIP3    H153850   6.299   5.330  10.630 -2.9156 -1.4272 -1.9231
 9885TIP3    H253851   6.332   5.182  10.628  0.5812 -0.7432 -1.8205
 9886TIP3   OH253852   5.080   3.868  10.661 -0.1661  0.1506 -0.0103
 9886TIP3    H153853   5.138   3.814  10.715  0.8057  0.7584 -0.4205
 9886TIP3    H253854   5.038   3.806  10.602  1.1359 -0.1429 -0.6584
 9887TIP3   OH253855   2.390   4.974  13.298  0.0037  0.1889  0.1280
 9887TIP3    H153856   2.306   4.941  13.265  0.2988 -2.6195  1.8639
 9887TIP3    H253857   2.456   4.921  13.252  0.6783  0.4783  0.7479
 9888TIP3   OH253858   0.047   4.766  12.671  0.3141  0.4233 -0.3329
 9888TIP3    H153859   0.074   4.845  12.624 -0.1512 -0.2162 -1.7210
 9888TIP3    H253860  -0.047   4.759  12.655  0.2251 -0.0468  0.3521
 9889TIP3   OH253861   2.465   6.100  12.350 -0.0409  0.1512  0.4906
 9889TIP3    H153862   2.483   6.185  12.390 -0.7881  0.0084  1.1664
 9889TIP3    H253863   2.476   6.038  12.421  0.6306 -0.3373 -0.0341
 9890TIP3   OH253864   7.030   2.194  10.746  0.2814 -0.1220  0.1277
 9890TIP3    H153865   7.122   2.220  10.753  0.1034  0.3940  0.7481
 9890TIP3    H253866   6.983   2.259  10.800 -0.3704 -0.7548  0.3374
 9891TIP3   OH253867   5.938   5.310  10.772  0.0045 -0.1755  0.1020
 9891TIP3    H153868   5.854   5.331  10.731 -0.4925  0.7840  1.5039
 9891TIP3    H253869   5.929   5.219  10.800 -0.5252 -0.1339  0.0818
 9892TIP3   OH253870   4.355   2.443  10.412  0.3248  0.2345 -0.3238
 9892TIP3    H153871   4.373   2.411  10.324  0.6589 -0.0478 -0.1556
 9892TIP3    H253872   4.405   2.385  10.470  1.6106  1.5563 -0.0494
 9893TIP3   OH253873   4.236   5.357  12.999  0.5593  0.0299  0.0201
 9893TIP3    H153874   4.244   5.325  12.909  0.3975 -1.9715  0.6575
 9893TIP3    H253875   4.145   5.338  13.023  0.3755  1.2824  0.3622
 9894TIP3   OH253876   5.207   1.895  10.726  0.9647  0.8062 -0.1092
 9894TIP3    H153877   5.266   1.961  10.761  3.5065 -1.6013  0.5122
 9894TIP3    H253878   5.217   1.901  10.631  1.6081  0.9493 -0.0307
 9895TIP3   OH253879   5.953   7.190  11.130 -0.2581  0.3230  0.0516
 9895TIP3    H153880   6.037   7.145  11.132 -0.6305 -0.3683  1.8483
 9895TIP3    H253881   5.903   7.145  11.061  0.8678  0.8605 -1.1514
 9896TIP3   OH253882   1.619   0.726  11.051 -0.0010 -0.4611 -0.0826
 9896TIP3    H153883   1.629   0.752  11.143 -1.2669  1.5652 -0.4722
 9896TIP3    H253884   1.705   0.742  11.012 -0.1556  1.1834  0.1900
 9897TIP3   OH253885   6.713   0.885  11.735  0.0964 -0.2387  0.4048
 9897TIP3    H153886   6.716   0.970  11.691 -0.8029 -1.0986 -1.4258
 9897TIP3    H253887   6.806   0.861  11.746  0.3652  0.1292 -0.8529
 9898TIP3   OH253888   1.151   0.819  12.538  0.5185  0.2791  0.2465
 9898TIP3    H153889   1.126   0.763  12.465 -2.4341  1.1622  0.4516
 9898TIP3    H253890   1.206   0.887  12.498  0.1132 -0.0320 -0.8855
 9899TIP3   OH253891   1.881   1.541  12.294 -0.6181  0.2081  0.1988
 9899TIP3    H153892   1.823   1.611  12.263 -0.6096  0.9436  1.7442
 9899TIP3    H253893   1.930   1.515  12.216  1.7284  4.1951  0.0557
 9900TIP3   OH253894   7.624   3.393  12.425  0.4010 -0.4292  0.0855
 9900TIP3    H153895   7.548   3.367  12.373  0.6756 -1.4323  0.1745
 9900TIP3    H253896   7.695   3.402  12.360  0.2959  0.1690  0.0482
 9901TIP3   OH253897   4.315   0.836  11.952 -0.3799 -0.0793 -0.2313
 9901TIP3    H153898   4.382   0.779  11.916 -0.7424  0.0853 -1.1789
 9901TIP3    H253899   4.354   0.870  12.033  1.6636  1.8649 -1.9006
 9902TIP3   OH253900   2.870   6.864  12.243 -0.1956  0.3556 -0.3680
 9902TIP3    H153901   2.800   6.805  12.214  0.6961 -0.9262  0.0112
 9902TIP3    H253902   2.868   6.936  12.180 -1.5878  0.1520 -0.5976
 9903TIP3   OH253903   1.420   7.635  12.251  0.2619  0.4594 -0.9723
 9903TIP3    H153904   1.387   7.683  12.328 -0.5160 -0.0753 -0.9573
 9903TIP3    H253905   1.513   7.622  12.268 -0.2265 -1.2384  0.7581
 9904TIP3   OH253906   6.738   5.031  12.403 -0.3819  0.0259 -0.3637
 9904TIP3    H153907   6.719   5.031  12.497  0.7648  1.1170 -0.0950
 9904TIP3    H253908   6.790   4.951  12.390 -0.6502 -0.1970 -0.0989
 9905TIP3   OH253909   4.212   7.096  12.597  0.2178 -0.2067  0.4959
 9905TIP3    H153910   4.170   7.009  12.601  1.4767 -0.8432  0.3271
 9905TIP3    H253911   4.253   7.106  12.683 -0.3252  0.4553  0.6916
 9906TIP3   OH253912   0.745   3.054  12.181  0.1945  0.7026  0.6193
 9906TIP3    H153913   0.828   3.070  12.136 -1.1782  0.9394 -1.9874
 9906TIP3    H253914   0.745   2.959  12.198  0.5990  0.5526 -0.1991
 9907TIP3   OH253915   4.859   4.104  10.966 -0.0041  0.8872  0.3442
 9907TIP3    H153916   4.852   4.180  10.909 -0.4585  0.6395  0.0569
 9907TIP3    H253917   4.826   4.031  10.912  0.2000  0.5325  0.6924
 9908TIP3   OH253918   7.427   1.358  11.708 -0.3666  0.2529  0.2530
 9908TIP3    H153919   7.455   1.341  11.619  2.2497 -0.4103  1.1276
 9908TIP3    H253920   7.340   1.318  11.714 -1.6146  2.2209 -2.5519
 9909TIP3   OH253921   0.779   3.364  11.042  0.6372  0.6952 -0.1320
 9909TIP3    H153922   0.710   3.430  11.053  1.2189  0.9999  2.6723
 9909TIP3    H253923   0.820   3.385  10.959 -2.7709  0.3063 -2.0981
 9910TIP3   OH253924   4.311   3.018  12.648 -0.4334 -0.4749 -0.0189
 9910TIP3    H153925   4.364   2.955  12.697 -1.4849 -0.1941  1.5637
 9910TIP3    H253926   4.368   3.094  12.637 -0.3429 -0.3459  1.2608
 9911TIP3   OH253927   0.954   7.484  11.826 -0.2134 -0.6376 -0.1255
 9911TIP3    H153928   0.903   7.403  11.821 -1.1624 -0.0816  0.4379
 9911TIP3    H253929   0.992   7.484  11.914  2.1138 -1.8175 -1.0382
 9912TIP3   OH253930   1.666   2.083  11.081 -0.1381  0.0318  0.4219
 9912TIP3    H153931   1.589   2.047  11.036  0.4623 -1.2189  0.3515
 9912TIP3    H253932   1.698   2.011  11.135  2.5458 -0.3931 -1.5523
 9913TIP3   OH253933   1.906   4.409  11.262 -0.4429  0.4270  0.0522
 9913TIP3    H153934   1.851   4.333  11.280  0.0162 -0.2306 -1.2118
 9913TIP3    H253935   1.994   4.381  11.285 -0.2849  0.6047 -0.3357
 9914TIP3   OH253936   7.673   3.341  12.879 -0.8878 -0.6996  0.1018
 9914TIP3    H153937   7.736   3.344  12.807 -2.4127 -2.5230 -1.4177
 9914TIP3    H253938   7.658   3.433  12.901 -0.1039 -0.0922 -1.6823
 9915TIP3   OH253939   0.486   4.774  12.332 -0.1169  0.2919 -0.1889
 9915TIP3    H153940   0.463   4.861  12.366  0.3014  1.2666 -2.2789
 9915TIP3    H253941   0.574   4.757  12.366  0.9377  1.9387 -1.9292
 9916TIP3   OH253942   2.904   7.347  12.876 -0.1995 -0.0047  0.3425
 9916TIP3    H153943   2.912   7.388  12.790  0.8867 -1.8252 -0.4768
 9916TIP3    H253944   2.817   7.373  12.907 -1.2654 -0.5365 -1.9754
 9917TIP3   OH253945   1.147   0.586  13.294  0.2632 -0.0850 -0.1380
 9917TIP3    H153946   1.173   0.543  13.212  1.0005 -2.9747  1.4960
 9917TIP3    H253947   1.068   0.540  13.321  0.6590  0.0722  1.3357
 9918TIP3   OH253948   4.858   3.873  11.562 -0.0752 -0.4612 -0.1448
 9918TIP3    H153949   4.787   3.809  11.573  0.3499 -0.7795  0.8911
 9918TIP3    H253950   4.834   3.945  11.621  0.9847 -1.0609  1.0920
 9919TIP3   OH253951   4.277   3.532  10.568 -0.3972  0.8269 -0.2344
 9919TIP3    H153952   4.305   3.548  10.658  1.8422 -3.2727  0.0139
 9919TIP3    H253953   4.356   3.542  10.516 -1.0421  0.4402 -1.3220
 9920TIP3   OH253954   6.309   2.008  12.084 -0.1970 -0.3179 -0.3069
 9920TIP3    H153955   6.396   1.970  12.093  1.4716  3.3283  0.7116
 9920TIP3    H253956   6.315   2.066  12.008 -0.9388  1.7525  1.1302
 9921TIP3   OH253957   5.625   0.645  11.949  0.8829  0.0120 -0.2922
 9921TIP3    H153958   5.665   0.639  11.862  0.9163  2.5786 -0.5307
 9921TIP3    H253959   5.535   0.675  11.932 -0.2010 -2.5563  0.4326
 9922TIP3   OH253960   7.089   0.608  12.349 -0.1144  0.5258  0.1645
 9922TIP3    H153961   7.108   0.619  12.442 -0.2723  1.1223  0.1265
 9922TIP3    H253962   6.994   0.597  12.344  0.0374 -1.2083  0.2279
 9923TIP3   OH253963   1.719   4.221  10.638  0.5776  0.0319  0.9019
 9923TIP3    H153964   1.637   4.269  10.629  0.7991  0.4505  1.1144
 9923TIP3    H253965   1.736   4.186  10.550  1.8235  2.6415  0.0139
 9924TIP3   OH253966   1.261   7.545  13.127  0.3092 -0.4907 -0.0599
 9924TIP3    H153967   1.248   7.607  13.056  1.6750 -0.5390 -0.3726
 9924TIP3    H253968   1.192   7.479  13.115  0.6444 -0.6102 -1.4615
 9925TIP3   OH253969   0.294   6.961  12.707 -0.9971  0.1878  0.1712
 9925TIP3    H153970   0.265   6.947  12.798  3.0108  1.5197  1.8940
 9925TIP3    H253971   0.284   7.055  12.693 -0.5838  0.1561 -0.3513
 9926TIP3   OH253972   0.303   0.459  11.354 -0.0676 -0.1973 -0.1899
 9926TIP3    H153973   0.287   0.365  11.350 -1.4265 -0.0747  1.2090
 9926TIP3    H253974   0.262   0.494  11.275  2.2981 -0.9465 -1.8346
 9927TIP3   OH253975   5.548   0.871  11.255  0.1361 -0.3772 -0.2801
 9927TIP3    H153976   5.595   0.939  11.207 -0.0542  1.1964  1.6458
 9927TIP3    H253977   5.617   0.813  11.288  0.8544  1.6538  2.1359
 9928TIP3   OH253978   0.254   2.046  11.726 -0.5109 -0.0060  0.3608
 9928TIP3    H153979   0.212   2.123  11.766 -0.3170 -0.1873  0.9149
 9928TIP3    H253980   0.280   2.076  11.639  3.9921  2.1575  2.1445
 9929TIP3   OH253981   6.317   0.755  12.408  0.1475 -0.3542  0.0451
 9929TIP3    H153982   6.222   0.760  12.408  0.0300 -1.2836 -2.1580
 9929TIP3    H253983   6.346   0.837  12.367  0.3835  0.4073  1.6770
 9930TIP3   OH253984   6.154   2.452  11.803 -0.4828 -0.2641 -0.1264
 9930TIP3    H153985   6.208   2.457  11.882  1.4291 -0.2733 -1.3587
 9930TIP3    H253986   6.076   2.503  11.823 -0.1115 -0.3970  1.8084
 9931TIP3   OH253987   5.011   2.122  11.945 -0.3928 -0.8542 -0.2454
 9931TIP3    H153988   4.981   2.103  12.034 -0.1115 -1.6490 -0.3147
 9931TIP3    H253989   5.041   2.038  11.911  0.3304 -0.3874 -0.7842
 9932TIP3   OH253990   6.761   4.442  10.438 -0.4500 -0.1995  0.2155
 9932TIP3    H153991   6.837   4.480  10.482 -1.1036  2.3107 -0.6223
 9932TIP3    H253992   6.796   4.369  10.386  0.9752 -0.5376  1.5990
 9933TIP3   OH253993   1.133   5.911  11.533  0.0478 -0.4484 -0.4343
 9933TIP3    H153994   1.184   5.969  11.590  0.2967  0.2598 -1.3428
 9933TIP3    H253995   1.051   5.958  11.519 -0.0268 -0.6336 -0.6184
 9934TIP3   OH253996   7.557   4.168  11.922  0.4804 -0.7547  0.2190
 9934TIP3    H153997   7.492   4.125  11.867  0.1976  1.0589 -0.9207
 9934TIP3    H253998   7.505   4.218  11.985  0.7884 -0.5300  0.2936
 9935TIP3   OH253999   1.760   3.117  13.564 -0.3133 -0.1772  0.3667
 9935TIP3    H154000   1.791   3.072  13.485 -0.4397  0.9005 -0.3241
 9935TIP3    H254001   1.701   3.185  13.531  0.3323  0.8825  1.3048
 9936TIP3   OH254002   1.945   5.124  12.503  0.0306  0.2563 -0.0628
 9936TIP3    H154003   1.945   5.217  12.524  0.2861  0.0325  0.9929
 9936TIP3    H254004   2.026   5.090  12.542 -0.1187 -0.4278 -0.3298
 9937TIP3   OH254005   1.702   6.733  11.088 -0.5538  0.4938  0.3001
 9937TIP3    H154006   1.748   6.802  11.136 -1.7617  0.8321  1.0130
 9937TIP3    H254007   1.731   6.743  10.998  1.6425 -0.0503  0.9010
 9938TIP3   OH254008   2.639   4.577  10.957  0.2124  0.3405  0.0634
 9938TIP3    H154009   2.569   4.616  11.008 -2.4177 -1.3366 -1.9477
 9938TIP3    H254010   2.650   4.489  10.994  2.0045  0.8976  0.9560
 9939TIP3   OH254011   4.261   4.851  11.908 -0.1179 -0.4786 -0.1483
 9939TIP3    H154012   4.248   4.945  11.891 -1.1708 -0.7567 -1.0086
 9939TIP3    H254013   4.174   4.819  11.928  0.3178 -1.1973  0.6429
 9940TIP3   OH254014   2.725   0.210  12.193 -0.1188  0.3955  0.4727
 9940TIP3    H154015   2.701   0.209  12.285 -1.8013 -1.1560  0.0934
 9940TIP3    H254016   2.704   0.298  12.162  0.1913  0.8309  1.4820
 9941TIP3   OH254017   0.301   4.612  12.447  0.4256 -0.4747 -0.5517
 9941TIP3    H154018   0.370   4.673  12.418  1.6497 -2.0636 -1.1397
 9941TIP3    H254019   0.349   4.543  12.492 -1.0014 -0.6944  0.6710
 9942TIP3   OH254020   2.890   6.228  11.066 -0.0427  0.3370 -0.0687
 9942TIP3    H154021   2.849   6.229  11.152 -0.7565  2.4965 -0.3937
 9942TIP3    H254022   2.962   6.291  11.073  1.4808 -1.2671 -0.3765
 9943TIP3   OH254023   1.851   1.672  11.593  0.2202  0.1317  0.4533
 9943TIP3    H154024   1.828   1.699  11.681  0.5980  0.2734  0.5103
 9943TIP3    H254025   1.769   1.672  11.545 -0.2264 -1.3101  1.1650
 9944TIP3   OH254026   0.889   2.235  10.664 -0.0322 -0.0224  0.0308
 9944TIP3    H154027   0.895   2.145  10.633 -0.6106 -0.4395  1.0750
 9944TIP3    H254028   0.953   2.241  10.735 -1.5263 -0.2762  1.4481
 9945TIP3   OH254029   0.518   3.848  11.651  0.3777  0.0625 -0.0499
 9945TIP3    H154030   0.586   3.781  11.652  0.7632  0.4449  0.0837
 9945TIP3    H254031   0.454   3.817  11.587  0.2651 -0.6961  0.4205
 9946TIP3   OH254032   2.182   4.802  13.239  0.3036  0.2142  0.6992
 9946TIP3    H154033   2.241   4.745  13.289  0.2628 -0.6054 -0.1685
 9946TIP3    H254034   2.167   4.755  13.157 -0.0976  1.2712  0.1524
 9947TIP3   OH254035   5.947   2.223  11.389 -0.0458  0.2295 -0.1571
 9947TIP3    H154036   5.994   2.159  11.336  0.5732 -0.6936  1.4346
 9947TIP3    H254037   6.014   2.266  11.441 -0.5908  1.4148 -0.3876
 9948TIP3   OH254038   2.741   1.223  12.250 -0.1111  0.7077  0.2840
 9948TIP3    H154039   2.758   1.236  12.343  3.5415  3.3187 -0.5267
 9948TIP3    H254040   2.759   1.308  12.210 -5.2095  0.8354 -2.5719
 9949TIP3   OH254041   3.860   5.943  10.591  0.6039  0.2386 -0.2501
 9949TIP3    H154042   3.892   5.933  10.681  0.2977 -1.5855 -0.2872
 9949TIP3    H254043   3.764   5.936  10.599  0.2381  3.7597 -0.3456
 9950TIP3   OH254044   4.854   1.331  11.901 -0.7560 -0.4166 -0.4031
 9950TIP3    H154045   4.811   1.301  11.981 -0.2878  1.7761  0.7434
 9950TIP3    H254046   4.808   1.286  11.831 -2.7721 -0.6306  0.9748
 9951TIP3   OH254047   5.676   5.393  10.763 -0.5160  0.0806  0.3527
 9951TIP3    H154048   5.677   5.486  10.785 -0.0467  0.2490 -0.3465
 9951TIP3    H254049   5.637   5.391  10.675  0.5470 -0.2645 -0.1237
 9952TIP3   OH254050   6.145   0.108  11.803  0.4364 -0.0576  0.2653
 9952TIP3    H154051   6.072   0.068  11.754  0.7535 -1.1526  0.6471
 9952TIP3    H254052   6.125   0.201  11.804  0.6037  0.0776 -2.2838
 9953TIP3   OH254053   2.306   2.302  11.939  0.1105 -0.1963 -0.4465
 9953TIP3    H154054   2.358   2.370  11.982  0.6133 -1.1941  0.5623
 9953TIP3    H254055   2.218   2.340  11.931  0.7545  1.1757 -1.3730
 9954TIP3   OH254056   4.303   2.901  11.634  0.6262  0.1839 -0.4079
 9954TIP3    H154057   4.279   2.854  11.714  0.8572 -1.0268 -1.0294
 9954TIP3    H254058   4.223   2.948  11.610  0.7185  0.9957  0.8226
 9955TIP3   OH254059   3.131   1.281  10.432 -0.2872  0.3084  0.3098
 9955TIP3    H154060   3.048   1.274  10.384  0.8516 -2.3136 -1.4923
 9955TIP3    H254061   3.174   1.197  10.417  3.3866  2.0960 -0.0711
 9956TIP3   OH254062   1.148   0.360  11.725  0.3794  0.3595 -0.1502
 9956TIP3    H154063   1.242   0.353  11.708  0.2420 -2.1730 -0.3038
 9956TIP3    H254064   1.107   0.320  11.649 -0.6550 -1.4535  1.2695
 9957TIP3   OH254065   0.278   4.927  10.351  0.6822  0.5499 -0.1098
 9957TIP3    H154066   0.216   4.951  10.282 -1.1118  0.2754  1.3201
 9957TIP3    H254067   0.343   4.998  10.351  0.4661  0.7854 -1.7386
 9958TIP3   OH254068   6.173   5.454  10.718  0.1095 -0.0628 -0.4215
 9958TIP3    H154069   6.087   5.416  10.738  0.2745 -0.0538  0.3431
 9958TIP3    H254070   6.157   5.548  10.712  0.5023  0.2694  2.4542
 9959TIP3   OH254071   7.118   2.711  11.719  0.0313  0.1870 -0.1481
 9959TIP3    H154072   7.165   2.641  11.764 -0.6014  0.2621  0.6481
 9959TIP3    H254073   7.135   2.790  11.771 -2.0032 -0.0222  0.9343
 9960TIP3   OH254074   0.523   6.519  10.899  0.2119  0.2422 -0.1810
 9960TIP3    H154075   0.446   6.487  10.945  0.6474  1.1610  1.2424
 9960TIP3    H254076   0.511   6.613  10.894  2.2273  0.7141  2.0875
 9961TIP3   OH254077   2.695   5.764  11.160  0.0270 -0.2192  0.2156
 9961TIP3    H154078   2.745   5.736  11.237  0.2755  1.5679  0.7479
 9961TIP3    H254079   2.761   5.792  11.097 -0.2097  1.8464  0.8022
 9962TIP3   OH254080   4.775   7.655  12.454 -0.0508 -0.1783 -0.8603
 9962TIP3    H154081   4.789   7.560  12.460 -0.1729 -0.1312  0.2332
 9962TIP3    H254082   4.823   7.680  12.375  2.1249 -0.7731  0.1834
 9963TIP3   OH254083   6.189   5.890  11.553 -0.6237 -0.4044 -0.2144
 9963TIP3    H154084   6.141   5.829  11.496  0.3699  0.8045 -2.4892
 9963TIP3    H254085   6.136   5.969  11.553  1.0610  0.8372 -2.4986
 9964TIP3   OH254086   4.078   2.670  11.625 -0.1724  1.0304 -0.0273
 9964TIP3    H154087   4.023   2.596  11.602  0.1146  0.1178  2.0549
 9964TIP3    H254088   4.102   2.709  11.540 -1.5385 -0.3280 -1.0892
 9965TIP3   OH254089   4.700   2.560  12.164 -0.2316 -0.7814 -0.2783
 9965TIP3    H154090   4.716   2.600  12.250 -0.6534 -0.7602 -0.2089
 9965TIP3    H254091   4.783   2.517  12.142  0.9955  1.8864 -1.3065
 9966TIP3   OH254092   7.244   2.933  11.477 -0.3475  0.1819 -0.4105
 9966TIP3    H154093   7.208   2.928  11.566 -0.8994 -1.6096 -0.6913
 9966TIP3    H254094   7.325   2.883  11.481  0.0629  0.8045 -0.7415
 9967TIP3   OH254095   6.348   0.238  13.218  0.0919 -0.2131  0.0172
 9967TIP3    H154096   6.334   0.144  13.211  0.7900 -0.4703  1.7049
 9967TIP3    H254097   6.260   0.276  13.208 -0.5194 -1.1888  1.4239
 9968TIP3   OH254098   6.360   3.101  11.642  0.3276 -0.2169 -0.1154
 9968TIP3    H154099   6.330   3.016  11.676  1.5889 -0.9711 -0.7963
 9968TIP3    H254100   6.426   3.078  11.577  1.3934  1.3155  0.3696
 9969TIP3   OH254101   4.444   6.573  11.456  0.3925  0.1186 -0.7824
 9969TIP3    H154102   4.429   6.556  11.363 -0.4975 -2.6617 -0.2282
 9969TIP3    H254103   4.375   6.524  11.500  0.9636  1.1546  1.3865
 9970TIP3   OH254104   4.993   2.700  11.047  0.0769  0.2906  0.1258
 9970TIP3    H154105   5.004   2.760  10.973 -0.3200 -0.1544 -0.2985
 9970TIP3    H254106   5.082   2.670  11.066  0.1016 -0.1745 -0.6678
 9971TIP3   OH254107   3.712   2.208  11.157 -0.2912 -0.3176 -0.2417
 9971TIP3    H154108   3.727   2.301  11.139  0.7405 -0.2932  0.6385
 9971TIP3    H254109   3.618   2.197  11.148 -0.6866  1.2183  1.4580
 9972TIP3   OH254110   5.698   4.798  12.913 -0.4224  0.3138 -0.3708
 9972TIP3    H154111   5.647   4.718  12.926  0.1558  0.3090  2.2940
 9972TIP3    H254112   5.772   4.770  12.858 -0.6462 -0.8002 -0.1305
 9973TIP3   OH254113   6.484   2.418  12.242  0.4271 -0.4345  0.5119
 9973TIP3    H154114   6.461   2.328  12.219 -1.1982 -0.3745  1.7026
 9973TIP3    H254115   6.521   2.412  12.330  0.4056  0.0419  0.5573
 9974TIP3   OH254116   1.489   0.907  13.425  0.0889  0.1364  0.1859
 9974TIP3    H154117   1.438   0.858  13.360  0.1978  1.5087 -0.9821
 9974TIP3    H254118   1.500   0.846  13.498 -2.0773 -0.6591 -0.0748
 9975TIP3   OH254119   4.624   7.662  12.138  0.5561 -0.0618  0.0918
 9975TIP3    H154120   4.660   7.662  12.050  1.1557 -2.2639  0.2882
 9975TIP3    H254121   4.530   7.673  12.126  0.3294 -2.5351 -1.0428
 9976TIP3   OH254122   2.772   1.862  12.345 -0.6093  0.5572  0.7212
 9976TIP3    H154123   2.689   1.843  12.302  0.3864 -1.3681 -0.5039
 9976TIP3    H254124   2.768   1.956  12.366 -2.8203  0.6296  0.1632
 9977TIP3   OH254125   3.147   7.575  13.244 -0.2788  0.4825  0.2236
 9977TIP3    H154126   3.056   7.599  13.229  0.0568  2.8165  1.4769
 9977TIP3    H254127   3.198   7.647  13.207  1.1254 -0.8572 -0.6153
 9978TIP3   OH254128   1.940   2.964  11.029 -0.0339  0.2028 -0.1361
 9978TIP3    H154129   1.898   2.901  11.089 -0.8644 -0.3529 -1.2762
 9978TIP3    H254130   1.902   3.048  11.053 -2.2522 -0.3478 -1.4604
 9979TIP3   OH254131   6.168   7.653  12.564  0.5062 -0.0056  0.2520
 9979TIP3    H154132   6.087   7.690  12.530 -0.0583 -0.2921  1.2288
 9979TIP3    H254133   6.227   7.728  12.571  0.9578 -0.0533 -2.0983
 9980TIP3   OH254134   5.189   3.826  11.223  0.1082 -0.2635  0.0137
 9980TIP3    H154135   5.165   3.798  11.312 -0.5991  0.0892 -0.0576
 9980TIP3    H254136   5.217   3.917  11.234  1.2771 -0.6103  0.0648
 9981TIP3   OH254137   1.734   3.783  11.892  0.9412 -0.3311  0.5031
 9981TIP3    H154138   1.744   3.692  11.863 -2.3112 -1.4846  2.4887
 9981TIP3    H254139   1.783   3.788  11.974  1.7303 -0.0391  0.0240
 9982TIP3   OH254140   3.031   6.819  11.301  0.2080 -0.2538  0.3858
 9982TIP3    H154141   3.027   6.910  11.274  0.4628 -0.2263  0.4330
 9982TIP3    H254142   3.034   6.769  11.219  0.7042 -0.1850  0.3567
 9983TIP3   OH254143   2.394   6.118  11.307  0.3041 -0.3548 -1.0182
 9983TIP3    H154144   2.487   6.109  11.328  0.0435 -0.7531 -0.0047
 9983TIP3    H254145   2.348   6.093  11.387 -0.6933 -0.6788 -1.6689
 9984TIP3   OH254146   7.365   5.022  11.482  0.2320  0.1544 -0.5774
 9984TIP3    H154147   7.413   4.982  11.554  1.1121 -0.1869 -1.3347
 9984TIP3    H254148   7.431   5.067  11.430 -0.5863  1.6609 -0.3719
 9985TIP3   OH254149   1.308   5.012  10.609  0.2074 -0.3432 -0.0937
 9985TIP3    H154150   1.227   4.963  10.621  0.0207  0.0972  0.5159
 9985TIP3    H254151   1.373   4.946  10.583 -0.4685 -0.6098 -1.1553
 9986TIP3   OH254152   5.018   3.343  12.127  0.6672 -0.0887  0.1930
 9986TIP3    H154153   4.970   3.381  12.201  0.3812  0.1753 -0.1269
 9986TIP3    H254154   4.993   3.251  12.128  0.1296  0.0545  0.0089
 9987TIP3   OH254155   6.484   0.987  11.850 -0.2366 -0.2107  0.0712
 9987TIP3    H154156   6.561   0.981  11.794 -0.2097  1.4038 -0.1183
 9987TIP3    H254157   6.424   1.044  11.801 -0.6134  0.4117  1.2240
 9988TIP3   OH254158   6.363   0.185  11.679  0.2809  0.3593  0.3358
 9988TIP3    H154159   6.440   0.202  11.732  1.0269  0.8537 -0.8568
 9988TIP3    H254160   6.293   0.167  11.742  0.4905  3.4848  1.6318
 9989TIP3   OH254161   2.928   7.540  11.752 -0.1065  0.3693 -0.0270
 9989TIP3    H154162   2.895   7.585  11.830  1.1291 -0.4464  1.0032
 9989TIP3    H254163   2.878   7.459  11.749  0.3358  0.0783  0.3379
 9990TIP3   OH254164   7.421   0.168  13.019  0.1831  0.7021  0.0432
 9990TIP3    H154165   7.329   0.144  13.027  0.1850  0.7691  0.2734
 9990TIP3    H254166   7.461   0.093  12.974 -0.0745  0.8875 -0.5068
 9991TIP3   OH254167   3.223   5.788  11.709 -0.3565  0.1349 -0.0881
 9991TIP3    H154168   3.267   5.868  11.679 -1.0525  0.3776 -0.4892
 9991TIP3    H254169   3.198   5.743  11.629 -1.2441  0.2287  0.1333
 9992TIP3   OH254170   3.950   1.815  10.347  0.2131  0.4460 -0.3340
 9992TIP3    H154171   3.913   1.853  10.426 -0.9268 -0.6591 -0.3057
 9992TIP3    H254172   3.948   1.886  10.283 -1.7247  0.5355 -0.2440
 9993TIP3   OH254173   3.155   3.539  12.870 -0.1716 -0.1941  0.4831
 9993TIP3    H154174   3.227   3.566  12.812  1.3324 -1.3570  1.7160
 9993TIP3    H254175   3.154   3.607  12.938  0.8743 -0.9817  1.3304
 9994TIP3   OH254176   1.769   3.091  11.793  0.6610 -0.6359  0.0288
 9994TIP3    H154177   1.700   3.117  11.730  1.5368  0.1485 -0.6392
 9994TIP3    H254178   1.743   3.004  11.822 -0.6143 -0.3653 -0.2235
 9995TIP3   OH254179   1.560   1.324  11.314  0.1518 -0.3468 -0.1155
 9995TIP3    H154180   1.562   1.297  11.222  1.1710  0.0250 -0.2147
 9995TIP3    H254181   1.652   1.339  11.337  0.2645 -3.3233  1.8544
 9996TIP3   OH254182   5.665   6.673  12.665 -0.3575 -0.3847 -0.2214
 9996TIP3    H154183   5.642   6.753  12.714  1.3745  0.5574 -0.8648
 9996TIP3    H254184   5.594   6.612  12.685 -1.4857  1.1455  0.6830
 9997TIP3   OH254185   6.339   7.503  10.910  0.0028 -0.6818 -0.2991
 9997TIP3    H154186   6.266   7.551  10.872  0.5166  1.3443  1.0729
 9997TIP3    H254187   6.417   7.540  10.868  0.3366 -1.5718 -0.4855
 9998TIP3   OH254188   1.264   3.141  11.498 -0.1319  0.0577 -0.0722
 9998TIP3    H154189   1.301   3.160  11.412 -0.1760 -0.4660 -0.2093
 9998TIP3    H254190   1.283   3.218  11.550  0.4922  0.0982 -0.3598
 9999TIP3   OH254191   6.897   2.938  10.421  0.1248  0.1278 -0.5480
 9999TIP3    H154192   6.848   2.860  10.394 -1.7275  1.2828 -0.6769
 9999TIP3    H254193   6.830   2.999  10.451  1.7176  0.5794  2.5108
10000TIP3   OH254194   7.175   6.588  12.473  0.5335 -0.2524  0.6968
10000TIP3    H154195   7.199   6.498  12.496  1.0006 -0.4098 -0.3585
10000TIP3    H254196   7.213   6.641  12.544 -0.8407 -0.9575  2.0265
10001TIP3   OH254197   4.932   5.736  12.498  0.0923 -0.2668  0.1907
10001TIP3    H154198   4.961   5.801  12.434  1.7424  0.2648  1.4024
10001TIP3    H254199   4.870   5.783  12.554 -0.3931 -0.3739 -0.2532
10002TIP3   OH254200   4.803   7.144  13.522  0.4783  0.0333 -0.0777
10002TIP3    H154201   4.850   7.101  13.451 -0.5970 -0.8688 -0.2737
10002TIP3    H254202   4.851   7.226  13.537  1.7592 -0.5840 -0.6318
10003TIP3   OH254203   4.211   4.588  10.609 -0.0117  0.0598 -0.5010
10003TIP3    H154204   4.150   4.533  10.658  0.5716  0.2416  0.4831
10003TIP3    H254205   4.286   4.599  10.669 -0.1782  2.0533 -0.5719
10004TIP3   OH254206   3.697   3.187  10.651 -0.1152 -0.3327  0.1770
10004TIP3    H154207   3.714   3.281  10.652  0.8810 -0.4832 -0.7578
10004TIP3    H254208   3.603   3.179  10.639 -0.1117  0.5450 -0.4740
10005TIP3   OH254209   6.331   0.246  11.092 -0.4761  0.4603  0.0698
10005TIP3    H154210   6.381   0.174  11.129 -0.9281 -0.4405 -1.0333
10005TIP3    H254211   6.367   0.259  11.005 -2.0262 -0.1070 -0.6933
10006TIP3   OH254212   0.570   3.511  11.900 -0.2753  0.0139 -0.3504
10006TIP3    H154213   0.530   3.567  11.834 -0.4664  1.7455  1.1491
10006TIP3    H254214   0.570   3.424  11.861  0.0712  1.0318 -2.7976
10007TIP3   OH254215   1.003   3.153  11.782 -0.3667  0.0425 -0.1185
10007TIP3    H154216   0.974   3.074  11.737 -1.1782  0.0385  0.3829
10007TIP3    H254217   1.089   3.130  11.817 -0.4764 -0.5301 -0.2091
10008TIP3   OH254218   1.856   4.818  11.752  0.0736 -0.1932  0.0266
10008TIP3    H154219   1.938   4.828  11.703 -0.5764  1.4826 -0.7793
10008TIP3    H254220   1.821   4.907  11.759 -2.4002 -1.0106 -0.8907
10009TIP3   OH254221   5.897   7.258  12.107  0.1342  0.0822  0.3166
10009TIP3    H154222   5.936   7.286  12.025  1.8507 -0.4059  0.9227
10009TIP3    H254223   5.938   7.313  12.174 -1.8842  1.0940  0.8002
10010TIP3   OH254224   5.143   0.285  12.354 -0.2110  0.5315 -0.5720
10010TIP3    H154225   5.209   0.224  12.386 -1.6855 -0.2007  1.2854
10010TIP3    H254226   5.165   0.299  12.262  1.1165 -1.5251 -0.6226
10011TIP3   OH254227   5.031   0.050  11.831  0.1576 -0.5152  0.1863
10011TIP3    H154228   5.073   0.011  11.755 -0.3442  1.3312 -1.1287
10011TIP3    H254229   4.963   0.107  11.793  0.7567  1.4738  1.9285
10012TIP3   OH254230   3.598   5.323  10.637 -0.1918  0.4368 -0.5459
10012TIP3    H154231   3.573   5.410  10.604  1.2156  1.2694  0.4884
10012TIP3    H254232   3.691   5.315  10.615 -0.2358 -0.7194 -0.3870
10013TIP3   OH254233   7.148   3.337  12.447 -0.1703  0.5382  0.4035
10013TIP3    H154234   7.143   3.310  12.539 -2.3828  1.0069  0.4796
10013TIP3    H254235   7.171   3.430  12.451  0.8776  0.2908  0.4110
10014TIP3   OH254236   6.865   3.572  10.865  0.0463  0.6510  0.2896
10014TIP3    H154237   6.777   3.556  10.900 -1.4873  1.2129 -2.9011
10014TIP3    H254238   6.864   3.665  10.842  1.6864  0.7645  0.5679
10015TIP3   OH254239   7.471   7.627  12.590 -0.1511 -0.3751 -0.4933
10015TIP3    H154240   7.442   7.660  12.675 -1.4887  1.5855 -1.6269
10015TIP3    H254241   7.558   7.591  12.606 -1.3186 -2.3456  2.1713
10016TIP3   OH254242   5.374   6.182  12.612 -0.4101  0.2974 -0.5421
10016TIP3    H154243   5.417   6.260  12.577  2.5388 -0.0491  1.8912
10016TIP3    H254244   5.441   6.114  12.610 -2.2864 -1.6435 -0.7344
10017TIP3   OH254245   3.407   1.943  11.813 -0.4628  0.7596 -0.3982
10017TIP3    H154246   3.483   1.940  11.755 -0.9653 -1.2261 -1.0405
10017TIP3    H254247   3.443   1.922  11.900 -0.3316 -0.8826 -0.8170
10018TIP3   OH254248   4.639   4.250  12.662  0.5970  0.4784  0.1805
10018TIP3    H154249   4.696   4.304  12.717  1.8015  1.1527 -1.6292
10018TIP3    H254250   4.598   4.189  12.723  1.1687  1.7527  1.9426
10019TIP3   OH254251   3.193   0.954  11.749 -0.4580 -0.3975 -0.4022
10019TIP3    H154252   3.155   0.994  11.672 -1.9049 -3.7628 -1.6460
10019TIP3    H254253   3.286   0.943  11.727 -0.2851  1.0810 -0.4912
10020TIP3   OH254254   6.274   4.968  11.324  0.1301  0.3530  0.1490
10020TIP3    H154255   6.357   4.922  11.311 -0.7886 -1.2801 -0.2230
10020TIP3    H254256   6.259   5.013  11.241 -0.3170 -1.0127 -0.5423
10021TIP3   OH254257   6.148   2.155  11.213  0.9235 -0.0500 -0.5297
10021TIP3    H154258   6.209   2.164  11.140  0.2493 -2.4089 -1.4912
10021TIP3    H254259   6.187   2.088  11.269 -0.8565 -1.9154 -1.3785
10022TIP3   OH254260   5.958   5.264  13.587  0.4026  0.1687 -0.2264
10022TIP3    H154261   6.027   5.232  13.646 -0.1739 -1.4424 -0.3724
10022TIP3    H254262   5.919   5.184  13.551 -1.0289  1.0724 -0.7408
10023TIP3   OH254263   4.799   3.626  13.039  0.1960 -0.1106 -0.0058
10023TIP3    H154264   4.713   3.615  12.998 -1.0017  1.3208  1.9561
10023TIP3    H254265   4.814   3.544  13.086 -0.1658 -0.3210 -0.2553
10024TIP3   OH254266   1.327   2.252  12.073  0.4523  0.0146  0.0236
10024TIP3    H154267   1.296   2.209  11.993  0.7173  0.1346 -0.1420
10024TIP3    H254268   1.416   2.219  12.085  0.8359  0.8886 -0.3693
10025TIP3   OH254269   7.378   2.578  10.299  0.1179  0.7757 -0.3310
10025TIP3    H154270   7.384   2.583  10.395  1.7461  0.7542 -0.4084
10025TIP3    H254271   7.294   2.620  10.279 -0.6309  0.1018  1.1363
10026TIP3   OH254272   4.682   4.621  12.420  0.4766  0.0044 -0.0149
10026TIP3    H154273   4.761   4.672  12.401  0.7855  0.2116  1.6343
10026TIP3    H254274   4.711   4.554  12.482 -0.4419 -0.5485 -0.1647
10027TIP3   OH254275   2.112   3.866  12.236  0.1125 -0.6854  0.1738
10027TIP3    H154276   2.099   3.931  12.305  0.6700 -1.1841  0.7670
10027TIP3    H254277   2.136   3.917  12.159  0.2726 -0.1682  0.5598
10028TIP3   OH254278   4.496   2.551  13.116 -0.4151  0.3128  0.2758
10028TIP3    H154279   4.550   2.614  13.070 -0.7774 -1.0546 -2.1735
10028TIP3    H254280   4.546   2.470  13.114 -1.1362 -0.1674  0.9548
10029TIP3   OH254281   5.580   6.009  12.602 -0.4992 -0.4158 -0.3750
10029TIP3    H154282   5.557   5.928  12.648  4.5613 -2.2427 -0.5241
10029TIP3    H254283   5.574   5.986  12.509 -1.0911  0.1176 -0.4756
10030TIP3   OH254284   3.003   5.172  11.312  0.2369  0.0123  0.0706
10030TIP3    H154285   2.962   5.229  11.376 -0.6234 -1.1370  0.5695
10030TIP3    H254286   2.963   5.197  11.228 -0.4922 -0.1947  0.3556
10031TIP3   OH254287   3.332   1.954  10.641 -0.6617  0.4217  0.1697
10031TIP3    H154288   3.421   1.990  10.641  0.7067 -2.6744 -0.3164
10031TIP3    H254289   3.284   2.008  10.704  2.1887  0.7106  2.2672
10032TIP3   OH254290   7.358   1.750  11.001 -0.3181 -0.1127 -0.4251
10032TIP3    H154291   7.310   1.833  11.003  1.8655  1.2279 -0.2604
10032TIP3    H254292   7.341   1.715  10.913 -0.4850  1.0070 -0.8519
10033TIP3   OH254293   3.114   1.650  13.195 -0.4966 -0.0284 -0.6403
10033TIP3    H154294   3.190   1.594  13.211 -0.9563 -0.3176  0.6608
10033TIP3    H254295   3.040   1.599  13.226 -0.8875  1.4155  0.9416
10034TIP3   OH254296   3.196   7.486  11.875 -0.1930 -0.0262 -0.1106
10034TIP3    H154297   3.177   7.552  11.941 -1.1172 -0.7379  0.3669
10034TIP3    H254298   3.120   7.489  11.816 -1.0049 -1.6654  0.7709
10035TIP3   OH254299   4.172   6.018  13.359 -0.0917 -0.4091  0.0192
10035TIP3    H154300   4.149   6.081  13.291  2.5867  2.2274  1.3486
10035TIP3    H254301   4.254   5.979  13.328  1.6545  1.4830  2.0085
10036TIP3   OH254302   4.692   5.506  12.053  0.0034 -0.2623 -0.0909
10036TIP3    H154303   4.735   5.572  12.107 -0.3577 -0.6593  0.6917
10036TIP3    H254304   4.599   5.524  12.063 -0.0479  0.3514 -1.4705
10037TIP3   OH254305   0.005   6.620  11.579 -0.0754 -0.0000 -0.5231
10037TIP3    H154306   0.031   6.546  11.524 -0.3385  0.6869 -1.6111
10037TIP3    H254307   0.066   6.617  11.653  0.5411 -0.7291 -1.0379
10038TIP3   OH254308   4.372   1.185  11.884  0.2413 -0.1102 -0.1939
10038TIP3    H154309   4.303   1.186  11.950  1.2275  1.0148  0.8702
10038TIP3    H254310   4.324   1.186  11.801 -1.0690 -3.5033  0.3644
10039TIP3   OH254311   5.413   7.426  10.855 -0.1934 -0.2321 -0.0931
10039TIP3    H154312   5.346   7.357  10.857 -0.3336 -0.0983 -0.1110
10039TIP3    H254313   5.415   7.459  10.945  1.8198 -2.1017  0.6320
10040TIP3   OH254314   2.103   7.262  10.823  0.2498  0.3982 -0.4591
10040TIP3    H154315   2.100   7.275  10.728  2.3667  0.5291 -0.5627
10040TIP3    H254316   2.061   7.177  10.836 -0.8046  0.7398 -1.4000
10041TIP3   OH254317   2.759   6.754  10.854  0.3497 -0.2546  0.3483
10041TIP3    H154318   2.724   6.737  10.941 -0.0845 -0.3146  0.1662
10041TIP3    H254319   2.730   6.679  10.801  0.9468 -0.4159  0.2463
10042TIP3   OH254320   4.889   3.565  11.554  0.6886 -0.2487  0.5028
10042TIP3    H154321   4.880   3.479  11.596  1.1036 -0.1596  0.7812
10042TIP3    H254322   4.802   3.603  11.559  0.6757 -0.3392  1.0736
10043TIP3   OH254323   1.185   0.079  10.528  0.5508  0.3437 -0.6120
10043TIP3    H154324   1.189   0.174  10.525 -1.1711  0.5150  0.8707
10043TIP3    H254325   1.177   0.052  10.437 -0.0128  1.6997 -0.9816
10044TIP3   OH254326   3.225   7.334  12.675 -0.1961 -0.2018  0.1840
10044TIP3    H154327   3.265   7.307  12.757 -1.6272 -2.0991  0.3380
10044TIP3    H254328   3.183   7.417  12.695  2.9316  1.5463  0.1774
10045TIP3   OH254329   1.749   4.908  10.887  0.9353  0.1293 -0.5052
10045TIP3    H154330   1.832   4.943  10.920  0.0796  0.3257  1.5808
10045TIP3    H254331   1.712   4.978  10.834  0.3863  1.5191  1.6264
10046TIP3   OH254332   0.657   4.893  12.047  0.0211 -0.2853  0.0036
10046TIP3    H154333   0.621   4.953  12.112 -0.9973  0.7794 -1.4609
10046TIP3    H254334   0.594   4.820  12.044 -1.7245  1.1487 -1.9115
10047TIP3   OH254335   0.179   0.108  11.443 -0.2632 -0.1458 -0.7108
10047TIP3    H154336   0.221   0.170  11.503 -0.1214 -2.6548  1.9957
10047TIP3    H254337   0.252   0.069  11.395  0.0835 -1.1292  0.5790
10048TIP3   OH254338   5.750   5.203  12.619 -0.2994 -0.4044 -0.1112
10048TIP3    H154339   5.726   5.202  12.711  0.4073  3.0720  0.2635
10048TIP3    H254340   5.846   5.196  12.618 -0.1440  1.2615 -0.3753
10049TIP3   OH254341   5.213   4.395  11.442 -0.0417 -0.4068 -0.4816
10049TIP3    H154342   5.156   4.458  11.485 -0.3797  0.0688 -1.5916
10049TIP3    H254343   5.281   4.376  11.506 -0.2216  0.6972  0.0563
10050TIP3   OH254344   1.066   2.437  11.674  0.2124  0.0003 -0.7708
10050TIP3    H154345   1.079   2.404  11.585 -1.4342 -2.5906 -0.1723
10050TIP3    H254346   0.971   2.439  11.685  0.3730 -1.2649  1.4104
10051TIP3   OH254347   3.029   4.470  11.854 -0.7983 -0.4195  0.2012
10051TIP3    H154348   3.002   4.546  11.802  0.2977 -0.8449 -1.0400
10051TIP3    H254349   3.073   4.412  11.791 -0.4305 -1.4778  1.3877
10052TIP3   OH254350   0.868   0.798  10.668 -0.4025 -0.6850 -0.1710
10052TIP3    H154351   0.868   0.753  10.752  0.2692  0.4650  0.4695
10052TIP3    H254352   0.775   0.816  10.651 -0.4767  0.1365  0.9385
10053TIP3   OH254353   7.023   1.709  11.036 -0.4844  0.7239  0.1737
10053TIP3    H154354   6.984   1.628  11.071  1.3795 -0.2716  0.0433
10053TIP3    H254355   7.085   1.737  11.103 -0.1979  1.3566 -0.3454
10054TIP3   OH254356   3.463   4.999  10.847 -0.0574  0.0021 -0.5496
10054TIP3    H154357   3.402   5.052  10.796 -1.1227  0.0940  0.7715
10054TIP3    H254358   3.548   5.042  10.835 -0.3979  0.4070 -1.6706
10055TIP3   OH254359   5.155   5.201  11.021 -0.6135 -0.5303 -0.3236
10055TIP3    H154360   5.234   5.250  10.998 -0.9799 -0.1928 -0.8699
10055TIP3    H254361   5.100   5.204  10.943 -0.6848 -1.7499 -0.3408
10056TIP3   OH254362   7.038   0.893  12.924 -0.1038  0.6157  0.3654
10056TIP3    H154363   7.000   0.957  12.985 -0.7105  0.7254 -0.1241
10056TIP3    H254364   6.968   0.873  12.863  0.4851  0.4579 -0.2687
10057TIP3   OH254365   3.886   2.925  12.625  0.1911  0.2530 -0.1261
10057TIP3    H154366   3.852   2.850  12.673 -1.0746  1.0427  0.2591
10057TIP3    H254367   3.973   2.940  12.662  0.8872 -1.6246 -0.9167
10058TIP3   OH254368   3.615   1.666  10.815 -0.0440  0.4817 -0.4500
10058TIP3    H154369   3.568   1.618  10.884 -1.0096  2.1726  0.1364
10058TIP3    H254370   3.707   1.661  10.842 -0.3770  0.8886  0.8398
10059TIP3   OH254371   5.612   6.476  11.436 -0.2558  0.1611 -0.3635
10059TIP3    H154372   5.532   6.426  11.421  0.1601  0.1135 -2.8286
10059TIP3    H254373   5.602   6.554  11.381  1.7856 -0.3622 -1.5862
10060TIP3   OH254374   7.248   3.563  11.286  0.0380  0.1784  1.0013
10060TIP3    H154375   7.203   3.610  11.215  0.5968 -0.6146  0.0935
10060TIP3    H254376   7.300   3.497  11.241  1.5068  0.5571  2.0713
10061TIP3   OH254377   1.501   5.667  11.768 -0.2015 -0.6822 -0.6137
10061TIP3    H154378   1.512   5.590  11.824 -1.5505 -1.0652 -0.8497
10061TIP3    H254379   1.448   5.636  11.694 -1.5268  0.6553 -0.2797
10062TIP3   OH254380   7.580   0.210  12.468 -0.0569  0.1007 -0.0289
10062TIP3    H154381   7.675   0.218  12.473 -0.2023  1.8954  0.3564
10062TIP3    H254382   7.565   0.117  12.451  1.7355 -0.3037  0.4035
10063TIP3   OH254383   0.357   1.031  11.140 -0.3576 -0.0079  0.2676
10063TIP3    H154384   0.269   1.014  11.107  0.6300 -0.5772 -2.2824
10063TIP3    H254385   0.364   1.126  11.141 -0.5122  0.0370 -1.0531
10064TIP3   OH254386   3.802   1.532  12.389 -0.4101  0.3536 -0.4990
10064TIP3    H154387   3.734   1.464  12.391  1.5757 -1.7261  1.9387
10064TIP3    H254388   3.879   1.488  12.355  1.0513  1.2305  1.5113
10065TIP3   OH254389   7.490   5.843  12.797  0.0178  0.4996 -0.5926
10065TIP3    H154390   7.462   5.851  12.889 -0.9576  0.3752 -0.8605
10065TIP3    H254391   7.584   5.827  12.802 -0.4421 -2.5469  0.5317
10066TIP3   OH254392   5.263   1.784  12.217  0.2378  0.6348 -0.2843
10066TIP3    H154393   5.207   1.712  12.188  1.7036 -0.4973 -0.3863
10066TIP3    H254394   5.337   1.784  12.156  1.6304  0.4271  1.3296
10067TIP3   OH254395   0.791   2.154  11.201  0.1217  0.2107 -0.5058
10067TIP3    H154396   0.771   2.147  11.107  2.2444 -0.2508 -0.9655
10067TIP3    H254397   0.864   2.215  11.205  0.2748 -0.0419  0.8341
10068TIP3   OH254398   4.645   1.979  12.583 -0.2361 -0.7941  0.1238
10068TIP3    H154399   4.620   1.929  12.661  3.5719 -0.6167  1.6966
10068TIP3    H254400   4.701   1.918  12.533 -0.6841 -0.1062 -1.2728
10069TIP3   OH254401   1.241   5.576  12.704 -0.0504  0.4232 -0.4152
10069TIP3    H154402   1.205   5.660  12.677  1.2872  1.3753  0.6667
10069TIP3    H254403   1.269   5.589  12.795 -1.1406 -1.6291  0.2865
10070TIP3   OH254404   5.136   5.351  11.964  0.1848  0.3354 -0.1739
10070TIP3    H154405   5.174   5.390  12.043 -0.3276  0.5458 -0.0312
10070TIP3    H254406   5.159   5.258  11.970 -2.3124 -0.2526  1.7176
10071TIP3   OH254407   3.747   2.922  10.707  0.0025  0.4886 -0.1387
10071TIP3    H154408   3.661   2.905  10.746 -0.0353  0.7480 -0.1063
10071TIP3    H254409   3.751   3.018  10.699  0.4788  0.5083  0.2853
10072TIP3   OH254410   3.905   6.113  11.072  0.3490  0.1767  0.2114
10072TIP3    H154411   3.853   6.182  11.032  1.3100 -0.6202 -2.6682
10072TIP3    H254412   3.858   6.032  11.049  2.3911 -0.5118 -1.9520
10073TIP3   OH254413   0.158   4.652  12.924 -0.3086  0.2910  0.2921
10073TIP3    H154414   0.129   4.669  12.835  2.2772 -0.2315 -0.7417
10073TIP3    H254415   0.097   4.587  12.958 -1.7384  0.9910 -0.8165
10074TIP3   OH254416   1.540   7.660  12.603  0.3412 -0.1407 -0.5853
10074TIP3    H154417   1.475   7.591  12.591 -0.9334  0.5448  1.6195
10074TIP3    H254418   1.565   7.686  12.515 -1.7730 -1.0213 -1.5101
10075TIP3   OH254419   5.093   4.299  12.087 -0.3782 -0.5349 -0.1051
10075TIP3    H154420   5.043   4.328  12.010  1.9759 -0.7640 -1.8038
10075TIP3    H254421   5.079   4.204  12.090 -0.4118 -0.5360 -0.2841
10076TIP3   OH254422   1.552   0.940  12.855 -0.1902 -0.4916 -0.4427
10076TIP3    H154423   1.495   1.012  12.883 -0.4113 -0.4593 -0.9817
10076TIP3    H254424   1.638   0.964  12.890 -0.4202 -0.3501  0.0442
10077TIP3   OH254425   2.293   5.215  13.430  0.2617 -0.0418 -0.1043
10077TIP3    H154426   2.336   5.133  13.405 -0.0604 -0.7082  1.4291
10077TIP3    H254427   2.328   5.280  13.368  0.0633 -1.4228 -1.7393
10078TIP3   OH254428   7.179   3.863  12.599  0.2234 -0.3839 -0.3747
10078TIP3    H154429   7.151   3.893  12.685 -1.1247 -0.1562 -0.8784
10078TIP3    H254430   7.263   3.819  12.615 -0.1020 -0.5087  1.0743
10079TIP3   OH254431   7.078   0.101  12.773 -0.3437  0.9088 -0.1297
10079TIP3    H154432   7.157   0.123  12.724 -0.5994  3.2235  0.3955
10079TIP3    H254433   7.008   0.104  12.707 -0.3840  1.8293 -0.0547
10080TIP3   OH254434   1.265   3.788  10.759 -0.3105 -0.0869 -0.5738
10080TIP3    H154435   1.233   3.876  10.738  1.2339  0.8975  0.9263
10080TIP3    H254436   1.200   3.753  10.820 -0.8633  0.0639 -1.0702
10081TIP3   OH254437   3.748   3.602  12.677  0.1261  0.3218 -0.0837
10081TIP3    H154438   3.790   3.559  12.603 -1.2487 -0.0161 -0.7014
10081TIP3    H254439   3.789   3.688  12.681 -0.8509  0.9445 -2.2530
10082TIP3   OH254440   7.128   3.092  12.648  0.3607  0.2900 -0.3082
10082TIP3    H154441   7.085   3.007  12.639  2.1934 -0.6797 -0.3689
10082TIP3    H254442   7.072   3.140  12.709 -2.1766  0.0983 -2.3225
10083TIP3   OH254443   1.835   0.299  11.555 -0.4390 -0.5155 -0.2739
10083TIP3    H154444   1.772   0.369  11.571  0.4389  0.2811 -0.2048
10083TIP3    H254445   1.867   0.316  11.466 -0.6812 -1.2072 -0.4976
10084TIP3   OH254446   1.206   1.084  12.149 -0.5287 -0.2334  0.3663
10084TIP3    H154447   1.235   1.066  12.060 -1.1492  1.8620 -0.2999
10084TIP3    H254448   1.271   1.144  12.184 -0.3830 -0.9053  1.2894
10085TIP3   OH254449   5.807   4.325  12.256  0.2608 -0.4747  0.2787
10085TIP3    H154450   5.770   4.294  12.173  1.0157  0.2473 -0.3365
10085TIP3    H254451   5.737   4.308  12.320 -1.4270  1.3813 -0.9303
10086TIP3   OH254452   3.084   6.212  12.277 -0.0584 -0.1106  0.1527
10086TIP3    H154453   3.122   6.239  12.360  1.3860 -0.6584 -0.2979
10086TIP3    H254454   3.157   6.216  12.215 -1.3270  1.3237 -1.3368
10087TIP3   OH254455   1.877   1.145  12.179  0.3310 -0.3806 -0.2262
10087TIP3    H154456   1.876   1.200  12.257  0.7558  1.4144 -1.4228
10087TIP3    H254457   1.804   1.084  12.191 -0.3469  0.6419  1.0214
10088TIP3   OH254458   6.097   4.520  11.530 -0.3237 -0.7378  0.6442
10088TIP3    H154459   6.069   4.460  11.599  1.1486 -0.8451  1.1895
10088TIP3    H254460   6.124   4.464  11.458 -1.1397 -0.6448  0.2534
10089TIP3   OH254461   6.229   3.868  10.980 -0.4279  0.1412 -0.1981
10089TIP3    H154462   6.283   3.835  10.908 -1.2496 -0.3015 -0.6174
10089TIP3    H254463   6.146   3.821  10.972 -0.8894  0.8294  0.4342
10090TIP3   OH254464   5.237   5.417  11.553 -0.3138 -0.2019 -0.3619
10090TIP3    H154465   5.274   5.350  11.611 -1.0899  0.1898  0.6194
10090TIP3    H254466   5.145   5.393  11.544 -1.2865  2.0503  2.0890
10091TIP3   OH254467   5.512   4.307  11.245 -0.2027  0.0857  0.1941
10091TIP3    H154468   5.484   4.334  11.157 -1.8292  1.3151  1.0350
10091TIP3    H254469   5.455   4.233  11.267  0.1351 -0.1570  0.2629
10092TIP3   OH254470   7.366   2.278  12.526 -0.5587 -0.2200  0.2734
10092TIP3    H154471   7.306   2.336  12.479  1.9271  1.6616 -0.7545
10092TIP3    H254472   7.410   2.228  12.458 -0.3881 -1.0539  0.9691
10093TIP3   OH254473   3.602   5.937  10.669 -0.0351 -0.3830 -0.2542
10093TIP3    H154474   3.584   6.019  10.716  0.9126  0.4633 -1.3022
10093TIP3    H254475   3.526   5.926  10.612  0.3586  0.4068 -0.9494
10094TIP3   OH254476   6.037   5.619  11.161 -0.4435  0.2812 -0.1655
10094TIP3    H154477   5.981   5.564  11.107 -1.1819 -0.6733  1.4845
10094TIP3    H254478   6.075   5.558  11.225  1.4390  1.1398 -0.3984
10095TIP3   OH254479   5.777   3.553  10.440  0.0009  0.3932 -0.3890
10095TIP3    H154480   5.688   3.517  10.434  0.3168 -0.3528 -0.7218
10095TIP3    H254481   5.777   3.627  10.380 -0.1141 -0.2109 -1.1548
10096TIP3   OH254482   3.138   4.994  12.468  0.1300 -0.2554 -0.2711
10096TIP3    H154483   3.221   5.028  12.434  1.0369 -3.1459 -1.2279
10096TIP3    H254484   3.123   4.913  12.420 -1.2187 -1.8859  2.5988
10097TIP3   OH254485   7.491   6.642  12.788 -0.1762  0.3915  0.2257
10097TIP3    H154486   7.504   6.553  12.822  1.2609 -0.4532 -2.2347
10097TIP3    H254487   7.555   6.695  12.836 -0.9732  0.1243  1.6481
10098TIP3   OH254488   3.084   4.433  10.678  0.4030 -0.0372 -0.4311
10098TIP3    H154489   3.055   4.348  10.646 -0.7459  0.0615  0.2802
10098TIP3    H254490   3.025   4.452  10.752  0.6979  1.3247 -0.5199
10099TIP3   OH254491   0.209   6.022  11.142  0.4980 -0.5682 -0.0408
10099TIP3    H154492   0.262   6.012  11.221 -0.0793 -1.4876  0.2387
10099TIP3    H254493   0.155   5.943  11.139 -2.0406  1.0320  0.5773
10100TIP3   OH254494   4.775   4.970  12.057  0.1461  0.1045  0.1680
10100TIP3    H154495   4.778   4.925  12.141 -2.0396  0.7408  0.6633
10100TIP3    H254496   4.792   5.062  12.079 -0.1176  0.2238 -0.1181
10101TIP3   OH254497   1.444   2.740  10.788  0.3911 -0.0359 -0.3420
10101TIP3    H154498   1.506   2.772  10.853 -0.2439  0.7983 -0.1395
10101TIP3    H254499   1.360   2.778  10.813 -0.3135 -1.5169 -0.3369
10102TIP3   OH254500   6.316   3.298  11.813 -0.1706  0.0280  0.2929
10102TIP3    H154501   6.252   3.332  11.750 -1.9821 -2.3149  0.7461
10102TIP3    H254502   6.364   3.231  11.764  0.8152  0.5886  0.4595
10103TIP3   OH254503   5.499   1.345  11.745  0.0909 -0.0019  0.1402
10103TIP3    H154504   5.484   1.343  11.840  1.5851 -0.4943  0.4035
10103TIP3    H254505   5.502   1.439  11.724 -1.8720  0.1210  0.2615
10104TIP3   OH254506   6.203   0.797  11.816 -0.1825 -0.2605 -0.1167
10104TIP3    H154507   6.239   0.868  11.763 -0.3038 -0.5351 -0.5709
10104TIP3    H254508   6.172   0.840  11.895  0.6782  0.0539  0.0637
10105TIP3   OH254509   1.773   1.610  10.873  0.2159 -0.2935 -0.8861
10105TIP3    H154510   1.697   1.660  10.902 -0.7849 -3.1898  2.0181
10105TIP3    H254511   1.747   1.573  10.789 -0.2085  1.4427 -1.5591
10106TIP3   OH254512   1.309   4.084  12.686 -0.5976 -0.3480 -0.3517
10106TIP3    H154513   1.297   4.018  12.617  0.7871 -1.0710  0.0667
10106TIP3    H254514   1.357   4.039  12.755 -1.9954  0.3551  1.1400
10107TIP3   OH254515   0.519   2.402  10.977  0.1729  0.4373  0.3025
10107TIP3    H154516   0.463   2.476  10.998 -0.5309 -0.1089  0.3921
10107TIP3    H254517   0.592   2.440  10.927  0.4727  1.3542  1.4068
10108TIP3   OH254518   1.528   1.023  13.735  0.5421 -0.0291  0.2884
10108TIP3    H154519   1.438   1.051  13.749  0.8959  0.0253  2.9881
10108TIP3    H254520   1.551   1.058  13.649 -2.2010 -0.6664 -0.7932
10109TIP3   OH254521   3.562   4.130  12.496  0.2264  0.1952  0.7265
10109TIP3    H154522   3.571   4.165  12.585  2.6812 -1.4665  1.2398
10109TIP3    H254523   3.605   4.045  12.499  1.0705  0.3993 -2.2287
10110TIP3   OH254524   5.375   6.186  11.095 -0.6808  0.2161 -0.1590
10110TIP3    H154525   5.416   6.138  11.024 -0.3217  1.5337 -0.8531
10110TIP3    H254526   5.352   6.118  11.159  3.7735 -0.5420  0.9515
10111TIP3   OH254527   7.425   0.408  12.298  0.2374 -0.8912  0.7387
10111TIP3    H154528   7.335   0.380  12.312  0.6007 -1.1148  2.9141
10111TIP3    H254529   7.459   0.427  12.385  2.6047 -1.7810  0.1055
10112TIP3   OH254530   5.763   2.233  12.452  0.4999 -0.1778 -0.0177
10112TIP3    H154531   5.809   2.171  12.510  0.6378  0.2224  0.3053
10112TIP3    H254532   5.708   2.178  12.397 -1.9109 -0.4365  2.4395
10113TIP3   OH254533   0.710   0.858  11.737  0.5786  0.4965  0.2355
10113TIP3    H154534   0.780   0.813  11.783 -0.2465 -0.2039  0.8384
10113TIP3    H254535   0.748   0.943  11.713  1.6602  0.0878  0.4339
10114TIP3   OH254536   3.263   5.086  11.168 -0.3069 -0.0714 -0.3160
10114TIP3    H154537   3.188   5.107  11.222  0.2436 -0.5931  0.6750
10114TIP3    H254538   3.339   5.111  11.220  0.3519 -3.0229  0.3717
10115TIP3   OH254539   5.464   1.071  11.777 -0.0467 -0.0576  0.2617
10115TIP3    H154540   5.528   1.031  11.835 -1.1554  0.2363  1.7334
10115TIP3    H254541   5.498   1.159  11.759  0.1047 -0.0111  0.7831
10116TIP3   OH254542   7.106   1.117  11.065  0.1547  0.0189  0.0870
10116TIP3    H154543   7.118   1.075  11.150  0.1892 -0.9148 -0.3635
10116TIP3    H254544   7.192   1.114  11.024 -0.2065 -1.0313 -0.6338
10117TIP3   OH254545   3.726   1.898  11.133  0.2310  0.0666 -0.3672
10117TIP3    H154546   3.637   1.864  11.134  0.1963  0.1452  0.5726
10117TIP3    H254547   3.718   1.987  11.167  0.8951 -0.6234  1.7599
10118TIP3   OH254548   3.687   4.537  11.290 -0.5823 -0.1192 -0.0857
10118TIP3    H154549   3.761   4.592  11.264  0.0637 -1.1672 -0.4738
10118TIP3    H254550   3.622   4.550  11.221  0.7185 -2.0904 -1.7898
10119TIP3   OH254551   1.761   1.412  10.672 -0.1091  0.5898 -0.2503
10119TIP3    H154552   1.809   1.426  10.590  0.2280  1.5113  0.0939
10119TIP3    H254553   1.815   1.351  10.722 -0.7138 -0.6347 -1.0281
10120TIP3   OH254554   3.048   1.219  11.374 -0.0057 -0.1315 -0.3691
10120TIP3    H154555   3.021   1.310  11.379 -1.0927 -0.4582 -0.1779
10120TIP3    H254556   3.024   1.182  11.459 -0.0888 -0.7406 -0.6515
10121TIP3   OH254557   4.087   5.865  10.451  0.5279 -0.0036  0.0858
10121TIP3    H154558   3.998   5.865  10.488  0.2870 -2.7384 -0.2571
10121TIP3    H254559   4.087   5.937  10.388 -1.9806 -0.8332 -1.0033
10122TIP3   OH254560   1.563   1.833  10.798 -0.8764  0.4893  0.3490
10122TIP3    H154561   1.495   1.892  10.830  0.8754  2.0401  1.4139
10122TIP3    H254562   1.639   1.889  10.784  0.2651 -1.2041 -0.6226
10123TIP3   OH254563   5.730   4.294  11.434  0.0391 -0.1696 -0.0361
10123TIP3    H154564   5.664   4.339  11.382  1.2335  2.9782  0.9505
10123TIP3    H254565   5.796   4.265  11.371 -1.5899 -2.2478 -0.8814
10124TIP3   OH254566   3.162   0.367  12.520  0.4576 -0.7107  0.1710
10124TIP3    H154567   3.115   0.445  12.491  0.2562 -0.8468  0.1276
10124TIP3    H254568   3.193   0.326  12.439  0.6090 -0.6480  0.1963
10125TIP3   OH254569   2.858   1.172  12.788  0.4241 -0.1275 -0.6926
10125TIP3    H154570   2.931   1.129  12.833 -0.1290  0.3025  0.6538
10125TIP3    H254571   2.796   1.194  12.858 -0.5631  0.3660 -1.6983
10126TIP3   OH254572   4.182   6.421  11.146  0.5917  0.1613  0.8068
10126TIP3    H154573   4.129   6.434  11.067 -1.5983  0.2866  2.2200
10126TIP3    H254574   4.268   6.458  11.124 -0.4723  1.7235 -0.9380
10127TIP3   OH254575   1.479   6.391  11.789 -0.1330 -0.0893  0.0547
10127TIP3    H154576   1.423   6.379  11.712 -0.8654 -0.2642  0.6066
10127TIP3    H254577   1.539   6.316  11.788 -1.4604 -1.2070  0.7572
10128TIP3   OH254578   4.906   7.398  11.880 -0.3867  0.3434 -0.0729
10128TIP3    H154579   4.986   7.435  11.918 -0.1059  2.1409 -2.2042
10128TIP3    H254580   4.937   7.325  11.826 -0.4051 -0.0025  0.3720
10129TIP3   OH254581   7.641   7.644  11.348  0.2718  0.0184  0.2508
10129TIP3    H154582   7.723   7.656  11.398  1.3152 -2.2782 -0.7693
10129TIP3    H254583   7.670   7.627  11.259 -1.4718  1.3662 -0.6394
10130TIP3   OH254584   0.431   3.334  12.217  0.1361 -0.1592 -0.2396
10130TIP3    H154585   0.475   3.275  12.156  0.8173  0.8160 -0.7157
10130TIP3    H254586   0.370   3.384  12.163  2.4663  2.4534 -0.6925
10131TIP3   OH254587   1.405   7.385  11.731 -0.4492  0.5101  0.6696
10131TIP3    H154588   1.439   7.296  11.732  0.8244  0.9741  1.9837
10131TIP3    H254589   1.313   7.376  11.705  0.0148 -1.0287 -0.5595
10132TIP3   OH254590   3.485   6.773  11.471  0.2083  0.0258 -0.2190
10132TIP3    H154591   3.507   6.866  11.465 -1.0821  0.4359  0.8497
10132TIP3    H254592   3.504   6.749  11.561 -0.8937 -0.3358 -0.0588
10133TIP3   OH254593   3.272   6.015  12.442 -0.1530 -0.0590  0.5939
10133TIP3    H154594   3.217   6.015  12.364  0.6892 -0.9886 -0.0377
10133TIP3    H254595   3.229   6.075  12.502 -1.8785 -0.7915  0.1527
10134TIP3   OH254596   0.416   0.915  11.618 -0.4022 -0.4096  0.3674
10134TIP3    H154597   0.500   0.887  11.656  1.2984 -0.2127 -2.8745
10134TIP3    H254598   0.381   0.835  11.577  0.7833  0.4307 -2.5342
10135TIP3   OH254599   0.365   3.990  12.489 -0.0002  0.4208  0.1875
10135TIP3    H154600   0.279   4.008  12.451 -0.6023 -2.5919 -0.1034
10135TIP3    H254601   0.396   3.912  12.443  1.8451  0.0340  1.9471
10136TIP3   OH254602   3.035   6.194  10.488 -0.0136  0.4250  0.5361
10136TIP3    H154603   3.060   6.120  10.543 -1.8100  1.0575  2.3569
10136TIP3    H254604   2.946   6.174  10.460  0.4021  0.7526 -1.0741
10137TIP3   OH254605   2.250   0.778  11.157  0.1339  0.1386 -0.1809
10137TIP3    H154606   2.341   0.807  11.148  0.0411  0.0881 -1.5378
10137TIP3    H254607   2.205   0.851  11.200  0.6535  0.5147 -0.2677
10138TIP3   OH254608   4.452   3.343  11.306 -0.7645 -0.3471 -0.1636
10138TIP3    H154609   4.471   3.268  11.249 -0.5843 -0.0782 -0.4614
10138TIP3    H254610   4.523   3.405  11.287 -1.5740  0.3998 -0.8132
10139TIP3   OH254611   0.597   2.314  11.325 -0.0845 -0.2765  0.2231
10139TIP3    H154612   0.590   2.295  11.232 -0.2582 -1.8367  0.5285
10139TIP3    H254613   0.674   2.265  11.355  0.2462  0.5801  0.8148
10140TIP3   OH254614   1.708   4.205  12.085 -0.7183  0.1023  0.0638
10140TIP3    H154615   1.694   4.248  12.169  3.8271  0.0210  1.1384
10140TIP3    H254616   1.732   4.275  12.024  0.4259 -0.2200  0.1121
10141TIP3   OH254617   3.575   7.643  10.684 -0.4741 -0.1448  0.2019
10141TIP3    H154618   3.481   7.659  10.691 -0.3000  0.4116  1.5107
10141TIP3    H254619   3.608   7.717  10.633 -0.5760  0.2817  0.7561
10142TIP3   OH254620   1.637   1.132  13.485  0.1911  0.0171 -0.1574
10142TIP3    H154621   1.569   1.193  13.455 -0.6807 -0.6841  0.3495
10142TIP3    H254622   1.602   1.045  13.466 -0.3439 -0.4736  2.6238
10143TIP3   OH254623   0.884   4.414  12.331 -0.3553  0.1820  0.3360
10143TIP3    H154624   0.824   4.453  12.267  0.6619  1.5250  0.1609
10143TIP3    H254625   0.955   4.478  12.339  0.8127 -1.1414  0.8976
10144TIP3   OH254626   1.896   2.919  12.042 -0.0444  0.2849 -0.6984
10144TIP3    H154627   1.888   3.014  12.044  1.4569  0.4628 -1.3885
10144TIP3    H254628   1.906   2.898  11.949 -1.2577 -0.6486 -0.6343
10145TIP3   OH254629   6.637   5.292  12.024  0.3937 -0.0539 -0.5099
10145TIP3    H154630   6.562   5.290  12.083  1.2362  0.5961  0.6351
10145TIP3    H254631   6.624   5.217  11.966 -0.4914 -0.6970  0.4724
10146TIP3   OH254632   7.223   5.360  11.730 -0.1818  0.3528 -0.1545
10146TIP3    H154633   7.197   5.282  11.779 -1.1982  1.4145  1.0601
10146TIP3    H254634   7.311   5.380  11.763  0.0283 -0.1737 -0.3729
10147TIP3   OH254635   4.104   0.498  12.236  0.6371 -0.4602  0.7611
10147TIP3    H154636   4.077   0.523  12.324 -1.1301 -0.8840  0.3844
10147TIP3    H254637   4.089   0.576  12.183 -0.3467 -0.8206  0.4733
10148TIP3   OH254638   3.708   6.295  12.289 -0.4774  0.2290 -0.3260
10148TIP3    H154639   3.723   6.206  12.255 -0.2185  0.9257 -2.1488
10148TIP3    H254640   3.680   6.345  12.212  0.0969  1.9047  0.5256
10149TIP3   OH254641   6.593   3.919  12.381  0.4522  0.1119  0.2303
10149TIP3    H154642   6.536   3.936  12.456  0.8855 -3.5343  1.6224
10149TIP3    H254643   6.535   3.925  12.305 -0.4207  2.0447  0.9906
10150TIP3   OH254644   3.567   2.264  11.417  0.0304  0.1006 -0.6518
10150TIP3    H154645   3.637   2.220  11.369  1.0474  0.2053  0.6955
10150TIP3    H254646   3.598   2.354  11.427  0.5544 -0.2789  1.4970
10151TIP3   OH254647   0.241   1.123  12.133  0.0449 -0.3560 -0.1974
10151TIP3    H154648   0.251   1.103  12.040  1.4877  0.8381 -0.3312
10151TIP3    H254649   0.327   1.106  12.170  0.4154  2.2344  0.3008
10152TIP3   OH254650   2.750   6.872  11.727  0.0560 -0.1734  0.0408
10152TIP3    H154651   2.811   6.903  11.660  0.2242  1.0267  0.7184
10152TIP3    H254652   2.682   6.940  11.729  1.4776  1.3190  2.9939
10153TIP3   OH254653   0.473   4.901  11.212  0.1239  0.3074 -0.1656
10153TIP3    H154654   0.461   4.906  11.307  0.8326  1.6018 -0.1244
10153TIP3    H254655   0.533   4.827  11.200 -0.5536 -0.3299  0.3273
10154TIP3   OH254656   7.511   4.141  12.839  0.2767 -0.1329 -0.3214
10154TIP3    H154657   7.426   4.181  12.858  1.1686  0.4679  2.9564
10154TIP3    H254658   7.560   4.148  12.921  2.7741 -2.3420 -1.4805
10155TIP3   OH254659   2.767   6.321  12.991  0.4578 -0.3959 -0.0342
10155TIP3    H154660   2.811   6.378  13.054 -0.9707 -0.2993  0.9400
10155TIP3    H254661   2.758   6.374  12.912 -0.9940  0.8378  0.9101
10156TIP3   OH254662   4.408   5.201  10.946  0.0547  0.6821  0.4864
10156TIP3    H154663   4.335   5.141  10.963  1.2208 -0.2985  2.4251
10156TIP3    H254664   4.367   5.287  10.936 -1.4320  0.0356  0.7319
10157TIP3   OH254665   6.253   7.473  12.791 -0.3340  0.2360 -0.1899
10157TIP3    H154666   6.322   7.433  12.843  0.8799  1.5521 -0.7367
10157TIP3    H254667   6.284   7.561  12.772 -1.6018  0.4497 -1.5036
10158TIP3   OH254668   3.756   7.517  10.854 -0.0928  0.2617 -0.6613
10158TIP3    H154669   3.726   7.554  10.938 -0.8445 -2.8250  0.5726
10158TIP3    H254670   3.694   7.551  10.790 -1.4268  0.2957  0.5843
10159TIP3   OH254671   1.552   6.485  13.329 -0.4566 -0.1174 -0.1896
10159TIP3    H154672   1.508   6.568  13.347  0.6283  0.6036 -0.7139
10159TIP3    H254673   1.640   6.511  13.302 -0.1896 -1.4365 -0.6434
10160TIP3   OH254674   1.291   0.801  13.246  0.1506 -0.4858 -0.0098
10160TIP3    H154675   1.234   0.729  13.274  0.3820 -0.4149  0.6533
10160TIP3    H254676   1.230   0.872  13.224 -0.0590 -0.7231 -0.1972
10161TIP3   OH254677   4.436   3.662  11.345 -0.3859 -0.2027 -0.0308
10161TIP3    H154678   4.459   3.660  11.252  2.0857  0.5251  0.5004
10161TIP3    H254679   4.390   3.745  11.357 -0.7276 -0.3076 -0.5811
10162TIP3   OH254680   6.378   6.447  10.920  0.0560 -0.0919 -0.2930
10162TIP3    H154681   6.409   6.458  11.010 -0.0131 -2.3152  0.0708
10162TIP3    H254682   6.303   6.388  10.928 -1.0682  1.1151 -1.6612
10163TIP3   OH254683   1.315   6.092  11.945  0.5159 -0.3736 -0.0875
10163TIP3    H154684   1.319   6.165  12.006 -0.2052 -0.5812  0.2224
10163TIP3    H254685   1.272   6.022  11.995  0.9767 -0.9241 -0.4568
10164TIP3   OH254686   2.374   7.535  10.848 -0.1945 -0.3242 -0.3994
10164TIP3    H154687   2.365   7.622  10.811  2.3958 -0.6293 -1.9758
10164TIP3    H254688   2.335   7.477  10.783 -0.2517 -0.4936 -0.2166
10165TIP3   OH254689   2.023   0.856  12.726  0.3815  0.5018 -0.5761
10165TIP3    H154690   2.095   0.794  12.740  0.7360  0.9836 -0.2284
10165TIP3    H254691   2.067   0.938  12.705  0.0389  1.3837  1.8224
10166TIP3   OH254692   6.518   6.653  12.143 -0.9100 -0.7000 -0.0613
10166TIP3    H154693   6.495   6.629  12.053  1.8698  1.3030 -1.4651
10166TIP3    H254694   6.605   6.613  12.156  0.9277  2.8824 -0.1694
10167TIP3   OH254695   0.037   0.690  11.606  0.1085 -0.2202  0.2084
10167TIP3    H154696  -0.000   0.608  11.572  0.0020 -0.4369  0.8423
10167TIP3    H254697   0.121   0.698  11.559  0.0734 -0.6368  0.0627
10168TIP3   OH254698   2.784   5.559  12.353 -0.1542  0.5691  0.7666
10168TIP3    H154699   2.724   5.632  12.363 -3.0826 -1.6294  0.5464
10168TIP3    H254700   2.745   5.489  12.405  1.5406 -1.3877 -0.4520
10169TIP3   OH254701   2.276   3.030  13.317 -0.1999 -0.0216 -0.1035
10169TIP3    H154702   2.205   2.980  13.278  0.4519 -0.8167 -0.3113
10169TIP3    H254703   2.237   3.113  13.342 -1.5129 -0.9648  1.0859
10170TIP3   OH254704   3.870   0.752  12.325 -0.0252 -0.1637 -0.2202
10170TIP3    H154705   3.826   0.702  12.257  0.0621 -1.3612  0.5842
10170TIP3    H254706   3.837   0.717  12.407  0.3631  0.8133  0.3781
10171TIP3   OH254707   6.754   3.959  10.421 -0.1531  0.4486  0.3333
10171TIP3    H154708   6.673   3.962  10.473 -0.7159  2.5366 -0.5716
10171TIP3    H254709   6.755   3.870  10.385 -1.2500 -0.1085  1.5596
10172TIP3   OH254710   2.906   3.312  12.171 -0.1989  0.4077 -0.0826
10172TIP3    H154711   2.908   3.315  12.076 -0.3840 -1.1629 -0.1553
10172TIP3    H254712   2.960   3.237  12.194 -2.1479 -0.7500  0.9207
10173TIP3   OH254713   6.183   2.375  10.326  0.4902 -0.4180  0.3232
10173TIP3    H154714   6.212   2.317  10.256  3.8370  1.8285 -0.4258
10173TIP3    H254715   6.092   2.351  10.342 -0.2004 -1.6114 -4.2185
10174TIP3   OH254716   4.241   5.951  11.567 -0.3744 -0.0633 -0.4715
10174TIP3    H154717   4.147   5.957  11.585 -0.1192 -1.0872  1.5324
10174TIP3    H254718   4.254   5.864  11.531 -0.2860  0.4117 -1.6343
10175TIP3   OH254719   0.419   5.158  10.359  0.3973 -0.7036 -0.0040
10175TIP3    H154720   0.510   5.188  10.351 -0.0634  0.9950  0.7249
10175TIP3    H254721   0.367   5.238  10.356 -0.9335 -1.4234  1.8692
10176TIP3   OH254722   0.044   2.714  12.670  0.4093  0.0953 -0.0775
10176TIP3    H154723   0.054   2.689  12.762  2.2582 -1.1911 -0.5694
10176TIP3    H254724  -0.013   2.646  12.633 -0.4949  0.7194  0.1127
10177TIP3   OH254725   3.788   3.733  10.268  0.1299 -0.7427 -0.7251
10177TIP3    H154726   3.824   3.685  10.194  0.2472 -1.3919 -0.2616
10177TIP3    H254727   3.857   3.728  10.335  0.4426  0.6931 -0.9023
10178TIP3   OH254728   6.296   7.224  13.107  0.0596 -0.3455  0.5514
10178TIP3    H154729   6.306   7.274  13.189  1.8056  2.5553 -1.2440
10178TIP3    H254730   6.361   7.262  13.048 -1.3321 -2.0887 -2.3263
10179TIP3   OH254731   4.579   7.511  10.989  0.1852  0.3824  0.3664
10179TIP3    H154732   4.487   7.493  11.004  0.2273  1.2856  1.8073
10179TIP3    H254733   4.588   7.606  10.996  1.0256  0.4368 -0.9903
10180TIP3   OH254734   2.144   2.382  10.381 -0.5104  0.2989  0.5969
10180TIP3    H154735   2.181   2.469  10.399 -0.1327  0.2047  0.2853
10180TIP3    H254736   2.049   2.394  10.394 -0.6097  1.0779 -0.6039
10181TIP3   OH254737   6.190   2.860  11.612  0.0443 -0.6369 -0.0000
10181TIP3    H154738   6.156   2.891  11.529  0.4841  1.7586  0.6316
10181TIP3    H254739   6.244   2.784  11.590 -2.0421 -1.7462 -1.5101
10182TIP3   OH254740   0.374   2.725  12.152 -0.3469  0.3113  0.1474
10182TIP3    H154741   0.300   2.764  12.106 -0.6268  2.2964  2.1171
10182TIP3    H254742   0.357   2.743  12.244  1.3137 -1.4920  0.8788
10183TIP3   OH254743   0.558   4.539  13.267  0.0490  0.2401 -0.2484
10183TIP3    H154744   0.640   4.584  13.247 -0.5514  0.5723 -2.0961
10183TIP3    H254745   0.497   4.568  13.200 -0.7966 -2.1587 -0.6076
10184TIP3   OH254746   1.755   4.082  13.296 -0.1059  0.2540 -0.1913
10184TIP3    H154747   1.697   4.062  13.222  0.5327 -0.5175 -0.5038
10184TIP3    H254748   1.718   4.161  13.335 -0.0626  1.0717 -1.7494
10185TIP3   OH254749   4.417   5.102  12.177  0.4577  0.0777  0.7729
10185TIP3    H154750   4.467   5.124  12.256  2.2227  1.4542 -0.6227
10185TIP3    H254751   4.444   5.013  12.156  0.6487  0.0192  1.2467
10186TIP3   OH254752   1.804   1.142  13.254 -0.0311 -0.2631  0.2005
10186TIP3    H154753   1.833   1.060  13.216 -0.5146 -0.2395 -0.2232
10186TIP3    H254754   1.759   1.117  13.335 -0.8377 -0.4773 -0.3077
10187TIP3   OH254755   2.937   0.172  10.611 -0.1871  0.6368 -0.3311
10187TIP3    H154756   2.843   0.189  10.618 -0.6383 -1.4088 -0.7740
10187TIP3    H254757   2.962   0.141  10.698 -0.0519  0.5495 -0.4022
10188TIP3   OH254758   4.992   5.295  10.827 -0.8123  0.5039 -0.0073
10188TIP3    H154759   5.058   5.352  10.787  0.4418 -0.4202  0.6631
10188TIP3    H254760   4.940   5.353  10.882  0.6554  0.9825  0.9253
10189TIP3   OH254761   3.461   4.541  12.733 -0.0011  0.4254 -0.6616
10189TIP3    H154762   3.393   4.493  12.686  0.3671 -0.1280 -0.6429
10189TIP3    H254763   3.542   4.521  12.686  0.2343  0.6127 -0.3455
10190TIP3   OH254764   4.120   6.939  12.343 -0.0055  0.0670 -0.6191
10190TIP3    H154765   4.098   6.883  12.417  0.3662  3.3622  2.2135
10190TIP3    H254766   4.190   6.892  12.297  0.4732 -1.6664  1.7171
10191TIP3   OH254767   1.318   0.946  11.756  0.6341  0.1253 -0.0690
10191TIP3    H154768   1.224   0.966  11.753  0.4893 -0.0936  1.9352
10191TIP3    H254769   1.334   0.897  11.676 -1.2278 -0.8948  0.1128
10192TIP3   OH254770   3.205   2.891  11.293 -0.4832  0.6648  0.7511
10192TIP3    H154771   3.193   2.796  11.294 -0.2177  0.6299  0.5188
10192TIP3    H254772   3.141   2.924  11.357  0.4504  0.2134  1.9315
10193TIP3   OH254773   2.468   0.193  10.836  0.1015  0.1979  0.1704
10193TIP3    H154774   2.485   0.244  10.915 -1.5355  0.1701  0.5832
10193TIP3    H254775   2.500   0.247  10.764 -1.0115  1.5390  0.6480
10194TIP3   OH254776   0.368   2.444  11.804  0.9461  0.2231 -0.0614
10194TIP3    H154777   0.300   2.386  11.771  0.6972  0.0218  0.7865
10194TIP3    H254778   0.392   2.407  11.889  2.5358 -0.0550 -0.5947
10195TIP3   OH254779   4.897   5.498  11.859 -0.2837 -0.0110 -0.1268
10195TIP3    H154780   4.982   5.469  11.891 -0.4129 -0.6111 -0.2966
10195TIP3    H254781   4.837   5.485  11.932 -0.5936 -1.4558 -0.6024
10196TIP3   OH254782   3.579   1.318  12.367  0.0377 -0.0986 -0.1148
10196TIP3    H154783   3.551   1.301  12.458  0.1534  0.2575 -0.0132
10196TIP3    H254784   3.553   1.238  12.320  3.1573 -1.8900  0.8941
10197TIP3   OH254785   7.019   4.420  11.532 -0.0329 -0.7533  0.6391
10197TIP3    H154786   7.073   4.425  11.610  2.4882  1.4554 -1.0389
10197TIP3    H254787   7.025   4.508  11.494 -1.5087 -1.6069 -1.7773
10198TIP3   OH254788   1.769   4.524  12.826 -0.4233 -0.9934  0.3966
10198TIP3    H154789   1.745   4.617  12.825  1.3075 -0.4565 -2.2442
10198TIP3    H254790   1.826   4.515  12.903 -1.4000 -0.1481  1.2556
10199TIP3   OH254791   0.753   5.116  11.050 -0.4257 -0.1347 -0.0112
10199TIP3    H154792   0.693   5.105  11.124 -0.3462  0.0971  0.0880
10199TIP3    H254793   0.724   5.050  10.986  0.5946 -1.5758  0.9353
10200TIP3   OH254794   0.532   1.698  10.583 -0.0499 -0.5408  0.4852
10200TIP3    H154795   0.572   1.650  10.511 -0.1685  1.0259 -0.6871
10200TIP3    H254796   0.501   1.780  10.543 -1.0166 -0.0598  2.1207
10201TIP3   OH254797   0.290   6.235  10.932  0.2946  0.8693  0.1193
10201TIP3    H154798   0.271   6.231  11.025  1.2771  0.8627  0.3287
10201TIP3    H254799   0.323   6.324  10.917  0.5322  0.7443 -0.1331
10202TIP3   OH254800   1.015   3.434  11.622 -0.3186  0.3681  0.0718
10202TIP3    H154801   0.926   3.420  11.590  0.1779  0.1390 -1.2571
10202TIP3    H254802   1.051   3.345  11.631 -0.6923  0.3625  2.0944
10203TIP3   OH254803   4.357   2.594  11.515  0.1629 -0.3377  0.0675
10203TIP3    H154804   4.290   2.612  11.581 -2.0322 -2.5827 -1.3799
10203TIP3    H254805   4.311   2.545  11.447  3.4702 -2.7579 -0.6367
10204TIP3   OH254806   5.279   1.614  11.634 -0.2980 -0.1680  0.1485
10204TIP3    H154807   5.306   1.693  11.681  1.8320  2.1843 -4.3991
10204TIP3    H254808   5.203   1.641  11.582  0.0983 -1.2653 -1.0715
10205TIP3   OH254809   5.693   2.098  11.445  0.3001  0.9289 -1.1701
10205TIP3    H154810   5.634   2.131  11.378 -0.7244  2.7677  0.5279
10205TIP3    H254811   5.775   2.145  11.431  0.7017 -0.0147 -2.1718
10206TIP3   OH254812   4.298   5.475  10.842 -0.6990  0.0763 -0.0816
10206TIP3    H154813   4.249   5.522  10.909 -0.2127  2.1358 -1.0759
10206TIP3    H254814   4.237   5.468  10.769 -0.4863 -0.0599 -0.2465
10207TIP3   OH254815   3.596   5.643  12.093 -0.6476 -0.1901 -0.0566
10207TIP3    H154816   3.560   5.612  12.010 -0.4896 -0.2629 -0.0986
10207TIP3    H254817   3.651   5.718  12.068  0.9232 -1.3444 -0.2665
10208TIP3   OH254818   7.369   0.950  11.260  0.1566 -0.8358 -0.3214
10208TIP3    H154819   7.287   0.978  11.303  1.4653 -1.0411  2.5794
10208TIP3    H254820   7.367   0.855  11.267  0.5685 -0.8457 -0.3543
10209TIP3   OH254821   3.950   4.531  12.442  0.5113 -0.2109 -0.2443
10209TIP3    H154822   3.990   4.460  12.392 -1.0891 -1.0593 -0.3994
10209TIP3    H254823   3.865   4.545  12.400 -0.3196 -0.0415  1.3879
10210TIP3   OH254824   3.362   2.069  11.422  0.5503 -0.0888 -0.3080
10210TIP3    H154825   3.278   2.107  11.397  1.3055  0.4204 -2.2865
10210TIP3    H254826   3.425   2.140  11.412  1.4331 -0.8418 -0.2970
10211TIP3   OH254827   6.000   3.731  12.034  0.5703  0.2874  0.4799
10211TIP3    H154828   6.016   3.637  12.025 -2.6300 -0.2647 -0.8577
10211TIP3    H254829   6.028   3.768  11.950  0.2358  0.2155  0.3324
10212TIP3   OH254830   3.707   7.298  11.826 -0.5977  0.4971 -0.0983
10212TIP3    H154831   3.632   7.354  11.805 -0.3256  0.3545 -1.6126
10212TIP3    H254832   3.766   7.310  11.751 -0.3901 -1.5546 -0.3060
10213TIP3   OH254833   1.312   3.924  12.438 -0.4313  0.3144  0.1910
10213TIP3    H154834   1.270   3.838  12.441  0.7509 -0.3039 -0.0379
10213TIP3    H254835   1.365   3.921  12.358  0.0779  1.0347  0.4981
10214TIP3   OH254836   1.662   2.694  10.962 -0.2614  0.3867 -0.3353
10214TIP3    H154837   1.728   2.701  10.893  0.9236 -0.1531  0.7017
10214TIP3    H254838   1.640   2.601  10.965  0.4606  0.2273  0.6713
10215TIP3   OH254839   5.296   4.413  10.924  0.4790 -0.0446 -0.2275
10215TIP3    H154840   5.360   4.481  10.945  0.7923 -0.1935 -0.6948
10215TIP3    H254841   5.347   4.340  10.890  0.0275  0.0554 -1.1749
10216TIP3   OH254842   1.618   6.385  12.196 -0.4578 -0.2197  0.2539
10216TIP3    H154843   1.586   6.394  12.286 -1.2260 -1.0823  0.0822
10216TIP3    H254844   1.582   6.302  12.166 -2.0429  1.0247 -1.5774
10217TIP3   OH254845   3.041   7.182  11.497 -0.1608  0.1135  0.0418
10217TIP3    H154846   3.135   7.171  11.512  0.3925  1.5135 -1.9733
10217TIP3    H254847   3.028   7.156  11.406 -1.5976  0.6846  0.0602
10218TIP3   OH254848   7.464   2.896  13.509  0.1195 -0.0158 -0.3099
10218TIP3    H154849   7.455   2.990  13.493  0.5708  0.0667 -0.0972
10218TIP3    H254850   7.559   2.880  13.504  0.0886 -0.3665  0.1636
10219TIP3   OH254851   1.246   1.307  11.764  0.0957 -0.2065 -0.1084
10219TIP3    H154852   1.186   1.258  11.709 -0.4970  0.6243 -0.2303
10219TIP3    H254853   1.310   1.344  11.704  0.1926 -0.3491 -0.0913
10220TIP3   OH254854   3.732   3.440  11.195  0.3101 -0.8224  0.3479
10220TIP3    H154855   3.821   3.431  11.159  0.2319  1.5601 -0.6346
10220TIP3    H254856   3.744   3.435  11.290  1.4499 -0.9466  0.2125
10221TIP3   OH254857   5.435   0.920  11.553 -0.5801  0.5866  0.0603
10221TIP3    H154858   5.459   0.832  11.581 -0.2281  0.4779 -0.5686
10221TIP3    H254859   5.433   0.971  11.634 -0.0271  0.1796  0.3381
10222TIP3   OH254860   3.039   7.176  10.513  0.1696 -0.1139 -0.0843
10222TIP3    H154861   2.994   7.092  10.521  1.0436 -0.4635  1.7978
10222TIP3    H254862   3.132   7.154  10.521  0.4001  1.0432  0.6945
10223TIP3   OH254863   6.141   6.013  10.980 -0.1493 -0.4758 -0.4541
10223TIP3    H154864   6.155   6.052  10.894 -0.2489 -0.4204 -0.4451
10223TIP3    H254865   6.141   6.087  11.040 -1.4175 -0.3725 -0.5646
10224TIP3   OH254866   7.630   5.483  12.108 -0.1050  0.0767 -0.1335
10224TIP3    H154867   7.644   5.396  12.069  0.9296  0.1387  0.0656
10224TIP3    H254868   7.540   5.506  12.084 -0.5616 -1.2498  0.2152
10225TIP3   OH254869   7.562   5.820  11.827  0.4157  0.7844 -0.4635
10225TIP3    H154870   7.472   5.818  11.858  0.0508  2.5572 -1.2639
10225TIP3    H254871   7.572   5.739  11.776 -0.4435  0.1746  0.3004
10226TIP3   OH254872   6.020   2.746  10.528  0.1996 -0.0639  0.6213
10226TIP3    H154873   6.109   2.750  10.564  0.2924  1.6636  0.2492
10226TIP3    H254874   5.975   2.683  10.585  1.5889 -0.8430  0.9215
10227TIP3   OH254875   2.866   2.736  10.808  0.3994 -0.9702 -0.2700
10227TIP3    H154876   2.825   2.650  10.814 -0.6490 -0.4710  0.1006
10227TIP3    H254877   2.944   2.730  10.862  0.1289 -1.5811  0.0658
10228TIP3   OH254878   4.039   7.584  10.828 -0.1997 -0.4928 -0.2443
10228TIP3    H154879   4.040   7.622  10.916  1.7660  0.3210 -0.5741
10228TIP3    H254880   3.955   7.537  10.824 -1.2574  1.1122  1.3340
10229TIP3   OH254881   4.393   3.893  10.577 -0.0148 -0.1132  0.1867
10229TIP3    H154882   4.405   3.942  10.659 -1.1835 -1.4864  1.2213
10229TIP3    H254883   4.311   3.926  10.541  0.5836  0.6158 -0.5678
10230TIP3   OH254884   4.756   2.148  12.119  0.1949  0.3200 -0.5049
10230TIP3    H154885   4.728   2.130  12.208  1.0046 -0.6311 -0.4198
10230TIP3    H254886   4.746   2.065  12.073  0.1175  0.7109 -1.2101
10231TIP3   OH254887   0.629   5.730  12.078  0.0588  0.0156 -0.2280
10231TIP3    H154888   0.597   5.803  12.131  0.1365  0.4133 -0.7216
10231TIP3    H254889   0.724   5.731  12.089  0.0133 -0.4356  0.2960
10232TIP3   OH254890   4.961   6.974  11.134  0.5033  0.9942  0.1530
10232TIP3    H154891   4.957   6.959  11.229  0.9212  1.9066  0.3231
10232TIP3    H254892   5.025   6.910  11.103 -1.1209 -0.7147  0.1653
10233TIP3   OH254893   2.495   1.157  11.804  0.2351 -0.2524  0.4172
10233TIP3    H154894   2.443   1.237  11.799  1.4943  0.6182  1.0669
10233TIP3    H254895   2.557   1.172  11.874 -0.2350 -2.2596  1.3419
10234TIP3   OH254896   3.974   1.727  12.555 -0.1070  0.5747 -0.0822
10234TIP3    H154897   3.913   1.708  12.483  0.3609  0.0829 -0.3566
10234TIP3    H254898   4.016   1.643  12.574  0.5805  0.9310  0.0171
10235TIP3   OH254899   6.507   2.752  12.274 -0.4232  0.1561 -0.0514
10235TIP3    H154900   6.458   2.767  12.193 -1.0162  0.1974  0.3103
10235TIP3    H254901   6.477   2.822  12.332 -0.8144 -0.5223  0.5730
10236TIP3   OH254902   5.693   0.880  12.530  0.2054  0.2370  0.1938
10236TIP3    H154903   5.640   0.925  12.595  2.0512  0.6650  1.4866
10236TIP3    H254904   5.691   0.788  12.556 -2.0057 -0.2573 -1.3485
10237TIP3   OH254905   5.880   1.918  10.414  0.2095  0.3039  0.0984
10237TIP3    H154906   5.972   1.913  10.442  0.2890  2.8311  0.5765
10237TIP3    H254907   5.850   1.827  10.413  2.1324 -0.4385  1.9118
10238TIP3   OH254908   1.103   6.888  11.846  0.1991 -0.3900  0.1048
10238TIP3    H154909   1.117   6.794  11.833 -0.5720 -0.4845 -0.0881
10238TIP3    H254910   1.127   6.928  11.762 -1.1430 -0.6061 -0.4024
10239TIP3   OH254911   5.725   3.754  11.592 -0.1440 -0.3779  0.3955
10239TIP3    H154912   5.646   3.799  11.623  0.0496 -0.3854  0.9024
10239TIP3    H254913   5.797   3.798  11.635  0.2181  0.2922 -0.8452
10240TIP3   OH254914   0.623   7.627  11.874  0.4931  0.0745 -0.5816
10240TIP3    H154915   0.667   7.592  11.951  1.9403  0.9063 -0.9935
10240TIP3    H254916   0.668   7.709  11.855 -0.4389  0.3493 -1.7705
10241TIP3   OH254917   5.924   0.334  11.533  0.0755  0.4599 -0.2270
10241TIP3    H154918   5.931   0.304  11.623 -0.6872  3.1107  0.7984
10241TIP3    H254919   6.015   0.337  11.502  0.2237 -2.4510 -0.3486
10242TIP3   OH254920   1.105   1.524  11.494  0.4537 -0.5488  0.3149
10242TIP3    H154921   1.087   1.439  11.453 -0.6131 -0.2323  0.0727
10242TIP3    H254922   1.020   1.551  11.529  0.7677  0.4470  0.3291
10243TIP3   OH254923   3.247   1.054  10.343  0.5122 -0.3260  0.3274
10243TIP3    H154924   3.246   1.086  10.252  2.0013 -0.9278  0.0717
10243TIP3    H254925   3.218   0.964  10.337 -1.8534  0.3514  0.8104
10244TIP3   OH254926   3.091   0.413  10.862  0.0682 -0.1448 -0.2236
10244TIP3    H154927   3.115   0.501  10.890  0.3640 -0.0738 -0.6927
10244TIP3    H254928   2.995   0.413  10.863  0.0618  0.2948 -0.5726
10245TIP3   OH254929   5.103   2.582  12.376 -0.0384  0.2259 -0.4685
10245TIP3    H154930   5.034   2.519  12.353 -2.6542  1.9112  1.9946
10245TIP3    H254931   5.142   2.547  12.456  0.4678  0.3244 -0.6715
10246TIP3   OH254932   4.182   6.530  12.034 -0.2091  0.2704  0.5183
10246TIP3    H154933   4.250   6.597  12.040 -2.0898  2.1679  1.7184
10246TIP3    H254934   4.137   6.548  11.952 -0.9217  0.6921  0.9956
10247TIP3   OH254935   4.492   3.661  10.461  0.2264  0.1718  0.0637
10247TIP3    H154936   4.535   3.709  10.390 -0.4638  0.3763 -0.2230
10247TIP3    H254937   4.460   3.730  10.520 -1.2997  0.1364 -0.6525
10248TIP3   OH254938   0.092   1.659  13.027  0.5676  0.0632  0.6549
10248TIP3    H154939   0.038   1.637  13.103 -0.6501 -0.0310 -0.1952
10248TIP3    H254940   0.084   1.754  13.019 -0.4588 -0.0668 -0.1417
10249TIP3   OH254941   3.325   1.321  10.853  0.5194  0.1211 -0.1845
10249TIP3    H154942   3.265   1.383  10.893 -1.1917 -1.2341 -0.5504
10249TIP3    H254943   3.333   1.350  10.762 -0.7623 -0.5175 -0.5157
10250TIP3   OH254944   3.425   1.916  12.263 -0.8081  0.3421 -0.5191
10250TIP3    H154945   3.484   1.918  12.338 -2.5974 -1.2562  1.0366
10250TIP3    H254946   3.482   1.932  12.187  1.4824 -0.4319  0.9270
10251TIP3   OH254947   4.998   3.698  10.451  0.3849 -0.0351  0.3318
10251TIP3    H154948   4.935   3.731  10.387  1.1620 -1.2563 -1.1209
10251TIP3    H254949   4.968   3.609  10.472  0.0805  0.3809  1.7816
10252TIP3   OH254950   1.511   3.480  10.865  0.0804 -0.0537 -0.1354
10252TIP3    H154951   1.494   3.510  10.954  0.2225 -0.3378 -0.0114
10252TIP3    H254952   1.436   3.512  10.814  0.2612  0.5596 -0.0222
10253TIP3   OH254953   2.207   6.838  12.368 -0.8610 -0.2966  0.3667
10253TIP3    H154954   2.292   6.799  12.387 -0.4907  0.1979 -0.2576
10253TIP3    H254955   2.221   6.932  12.379 -1.0787 -0.1361 -0.6324
10254TIP3   OH254956   4.294   2.850  10.265 -0.0100  0.1301 -0.0501
10254TIP3    H154957   4.209   2.838  10.223 -0.4346 -2.1058  1.2891
10254TIP3    H254958   4.278   2.915  10.334 -0.1077  1.2271 -1.0699
10255TIP3   OH254959   2.140   6.136  11.496  0.2120 -0.9317  0.0080
10255TIP3    H154960   2.090   6.217  11.497  1.3424 -0.1817 -1.5296
10255TIP3    H254961   2.108   6.089  11.418  0.5435 -1.3346  0.1119
10256TIP3   OH254962   6.489   4.068  11.195 -0.1833  0.1410 -0.5123
10256TIP3    H154963   6.509   4.120  11.273 -1.1446  0.8284 -0.7063
10256TIP3    H254964   6.433   3.997  11.228  1.4702 -1.0672 -0.1760
10257TIP3   OH254965   0.245   5.347  11.175 -0.0400  0.0280  0.0205
10257TIP3    H154966   0.182   5.283  11.141 -0.7431  2.2129 -3.2846
10257TIP3    H254967   0.205   5.381  11.255 -0.6331 -2.0858  0.6826
10258TIP3   OH254968   5.112   3.787  10.951 -0.4634 -0.5879 -0.1169
10258TIP3    H154969   5.049   3.854  10.923  0.1496  0.0901  0.0937
10258TIP3    H254970   5.132   3.809  11.042 -0.1268 -0.9579 -0.0980
10259TIP3   OH254971   3.495   1.617  12.329 -0.7767  0.2367 -0.2364
10259TIP3    H154972   3.474   1.525  12.314  2.3033 -0.7348  0.6524
10259TIP3    H254973   3.567   1.635  12.269  1.0286  0.9661  2.0117
10260TIP3   OH254974   2.309   0.214  13.492 -0.1489 -0.4609  0.8400
10260TIP3    H154975   2.228   0.241  13.535 -0.4687 -1.2156  0.7272
10260TIP3    H254976   2.378   0.263  13.537 -0.4653 -1.2651  2.2641
10261TIP3   OH254977   1.352   2.231  10.730  0.1068  0.4987  0.6047
10261TIP3    H154978   1.362   2.242  10.635 -0.2408  2.0332  0.7306
10261TIP3    H254979   1.363   2.319  10.766 -1.0159  0.1456  1.8782
10262TIP3   OH254980   6.872   1.379  10.541  0.0112 -0.1241 -0.3832
10262TIP3    H154981   6.920   1.445  10.491  0.4578 -0.6807 -0.6978
10262TIP3    H254982   6.879   1.299  10.488 -1.4681 -0.1620 -0.5605
10263TIP3   OH254983   6.225   3.731  11.592  0.2583 -0.0082  0.1112
10263TIP3    H154984   6.250   3.714  11.501  0.5484  0.4746  0.0993
10263TIP3    H254985   6.204   3.644  11.627 -1.1827 -0.0547 -0.7865
10264TIP3   OH254986   7.088   6.868  11.456  0.1129 -0.2109  0.3561
10264TIP3    H154987   7.122   6.925  11.525 -1.6817  1.4298 -0.0097
10264TIP3    H254988   7.141   6.890  11.379 -0.9491  1.5281  0.0563
10265TIP3   OH254989   7.609   1.376  10.373  0.0881 -0.3528  0.6563
10265TIP3    H154990   7.608   1.321  10.295 -0.3017 -0.0967  0.4775
10265TIP3    H254991   7.688   1.349  10.421  0.0860 -0.8192  0.3992
10266TIP3   OH254992   5.988   1.354  10.387  0.0877  0.1822 -0.2483
10266TIP3    H154993   6.062   1.351  10.326 -0.5302 -1.6513 -0.9794
10266TIP3    H254994   6.005   1.430  10.442  1.2860  1.2049 -1.9386
10267TIP3   OH254995   0.505   0.420  11.059  0.0700 -1.0201  0.4208
10267TIP3    H154996   0.423   0.380  11.087  1.0275 -2.4965  1.2639
10267TIP3    H254997   0.572   0.355  11.080  1.3469 -0.3345 -1.2991
10268TIP3   OH254998   5.553   6.442  11.104 -0.2290  0.1279 -0.4165
10268TIP3    H154999   5.503   6.435  11.023 -1.6429 -1.0300  0.4972
10268TIP3    H255000   5.553   6.353  11.140 -1.1899  0.9294  1.7162
10269TIP3   OH255001   7.395   6.088  10.644 -0.0313 -0.2999 -0.2035
10269TIP3    H155002   7.382   6.183  10.641  1.1506 -0.0503  1.3301
10269TIP3    H255003   7.466   6.075  10.707 -1.0896 -2.2791  0.6973
10270TIP3   OH255004   1.835   5.411  11.366 -0.0981 -0.0577  0.1828
10270TIP3    H155005   1.840   5.349  11.293  3.3364  1.1081 -0.7551
10270TIP3    H255006   1.907   5.387  11.423 -1.6340  0.1953  2.3359
10271TIP3   OH255007   2.573   6.923  12.679 -0.5786  0.2233 -0.0694
10271TIP3    H155008   2.666   6.945  12.689  0.1167 -0.0571 -4.2335
10271TIP3    H255009   2.573   6.838  12.634 -2.8869  0.1098  0.0070
10272TIP3   OH255010   3.299   4.172  12.044 -0.3412 -0.0635  0.2369
10272TIP3    H155011   3.296   4.145  12.136  1.7148 -1.9133 -0.1411
10272TIP3    H255012   3.208   4.174  12.016 -1.2375  2.5990  2.7861
10273TIP3   OH255013   0.604   5.238  10.636 -0.2645 -0.0016 -0.2328
10273TIP3    H155014   0.580   5.327  10.608  0.6071  0.5714  0.7820
10273TIP3    H255015   0.557   5.226  10.718  0.7129  0.0689  0.3497
10274TIP3   OH255016   2.324   1.003  10.858 -0.2417 -0.4317 -0.1054
10274TIP3    H155017   2.238   1.044  10.860 -0.7738 -1.5033 -0.0406
10274TIP3    H255018   2.376   1.053  10.921 -0.5750  0.7023 -0.7069
10275TIP3   OH255019   7.483   0.682  12.127  0.0036 -0.1611  0.4153
10275TIP3    H155020   7.429   0.608  12.153 -1.8917  1.2038  0.5152
10275TIP3    H255021   7.556   0.643  12.079 -0.3599 -2.1487  1.4150
10276TIP3   OH255022   2.267   5.103  12.012 -0.1861  0.1640  0.1088
10276TIP3    H155023   2.287   5.194  11.990  0.6372 -0.1835 -0.6360
10276TIP3    H255024   2.333   5.079  12.078  0.1423 -0.1371 -0.3175
10277TIP3   OH255025   7.221   3.143  12.983 -0.0831 -0.2949  0.2399
10277TIP3    H155026   7.196   3.236  12.981 -0.1224 -0.2687  1.3031
10277TIP3    H255027   7.140   3.097  13.005  0.1055 -0.4994  0.5231
10278TIP3   OH255028   4.668   4.375  11.045  0.2391  0.1510 -0.0931
10278TIP3    H155029   4.763   4.377  11.029  0.3846  0.7899  0.7965
10278TIP3    H255030   4.648   4.461  11.082 -0.6006 -0.1754  0.2341
10279TIP3   OH255031   6.691   6.910  11.986  0.0456 -0.0444  0.1665
10279TIP3    H155032   6.699   6.951  12.072  0.7728 -0.5534  0.3461
10279TIP3    H255033   6.733   6.824  11.996 -2.4263 -1.3694  0.1345
10280TIP3   OH255034   3.931   5.044  13.017  0.3045  0.0339 -0.6531
10280TIP3    H155035   3.985   4.977  13.058  0.4162 -0.5507 -1.7210
10280TIP3    H255036   3.841   5.023  13.045  0.5039  0.3634  0.2498
10281TIP3   OH255037   0.782   2.353  12.372 -0.3410 -0.3123  0.5185
10281TIP3    H155038   0.837   2.363  12.295 -1.2343 -0.7399 -0.1803
10281TIP3    H255039   0.701   2.400  12.351 -1.4591 -2.2472  0.3140
10282TIP3   OH255040   0.317   0.432  12.040 -0.1758  0.2188 -0.5346
10282TIP3    H155041   0.340   0.506  12.096 -0.3785  1.1411 -1.6257
10282TIP3    H255042   0.399   0.409  11.996 -0.0934 -0.2754 -0.1303
10283TIP3   OH255043   1.506   7.101  11.161 -0.4255 -0.0825 -0.1829
10283TIP3    H155044   1.555   7.036  11.210 -0.2425  1.2428  1.4955
10283TIP3    H255045   1.530   7.086  11.070  1.0771 -1.1152  0.3486
10284TIP3   OH255046   3.133   1.734  11.588 -0.0276 -0.4621  0.1059
10284TIP3    H155047   3.175   1.658  11.627 -0.4909 -0.8515 -0.1337
10284TIP3    H255048   3.186   1.755  11.511  1.4097  0.8578  1.3819
10285TIP3   OH255049   6.948   6.565  12.320  0.4209  0.5048  0.2027
10285TIP3    H155050   6.892   6.515  12.379  0.0548  0.7298  0.0489
10285TIP3    H255051   7.033   6.568  12.365 -0.5386  3.0230  2.1029
10286TIP3   OH255052   5.050   5.312  12.551 -0.4770  0.3604 -0.2990
10286TIP3    H155053   5.074   5.280  12.639 -0.3756 -0.0706 -0.4813
10286TIP3    H255054   5.099   5.394  12.542 -0.1856  0.2111 -0.1051
10287TIP3   OH255055   7.478   5.968  12.482 -0.2908  0.0296 -0.1774
10287TIP3    H155056   7.474   5.989  12.389  0.0789 -0.3749 -0.2889
10287TIP3    H255057   7.536   6.033  12.520 -1.8734  1.3400  0.1149
10288TIP3   OH255058   5.386   3.159  11.842 -0.8377  0.4507 -1.1018
10288TIP3    H155059   5.317   3.105  11.880 -0.7017 -0.0625 -1.5689
10288TIP3    H255060   5.346   3.245  11.829 -0.9599  0.5624 -0.0496
10289TIP3   OH255061   5.471   2.454  12.095 -0.2354  0.0415  0.4952
10289TIP3    H155062   5.406   2.490  12.033  0.3427 -1.4065 -1.0193
10289TIP3    H255063   5.537   2.522  12.102  0.1101 -0.0780 -1.1816
10290TIP3   OH255064   6.830   3.640  10.498 -0.1900 -0.1953 -1.2421
10290TIP3    H155065   6.899   3.695  10.536  1.7561 -3.3209  0.1900
10290TIP3    H255066   6.753   3.657  10.552  0.3485  1.0921 -0.8508
10291TIP3   OH255067   3.857   7.071  11.866  0.5113  0.5155  0.0598
10291TIP3    H155068   3.820   7.032  11.945 -0.7385  1.5023 -0.0017
10291TIP3    H255069   3.828   7.162  11.869  1.1704  0.7802 -1.1042
10292TIP3   OH255070   0.633   1.787  12.941 -0.3336  0.0019 -0.0723
10292TIP3    H155071   0.695   1.813  12.873 -0.3487  2.3112  0.7223
10292TIP3    H255072   0.685   1.781  13.021 -0.5042 -1.6936 -0.0591
10293TIP3   OH255073   1.514   1.961  11.763  0.3192  0.4343 -0.2227
10293TIP3    H155074   1.488   2.027  11.699  0.8990 -1.5524 -2.6371
10293TIP3    H255075   1.433   1.911  11.780  0.6754 -0.6227 -1.4457
10294TIP3   OH255076   5.661   0.852  13.011 -0.4392  0.2783  0.1502
10294TIP3    H155077   5.707   0.808  12.940  1.5531  1.9615  0.3152
10294TIP3    H255078   5.697   0.941  13.012  0.2124  0.1209  3.7683
10295TIP3   OH255079   0.228   1.275  13.114  0.6814 -0.2805 -0.1323
10295TIP3    H155080   0.283   1.206  13.150  0.9964  0.1948  0.3105
10295TIP3    H255081   0.205   1.330  13.189  1.5131  0.8422 -0.6672
10296TIP3   OH255082   0.740   4.757  11.613 -0.1865  0.6695 -0.0498
10296TIP3    H155083   0.761   4.831  11.670  0.9484  0.5999 -0.3556
10296TIP3    H255084   0.792   4.772  11.534  1.4943 -1.3557  0.5856
10297TIP3   OH255085   5.392   0.633  11.619  0.0800 -0.1556 -0.1873
10297TIP3    H155086   5.452   0.575  11.666 -2.5267 -0.7816  2.6393
10297TIP3    H255087   5.401   0.607  11.527  2.2139 -1.9430  0.4440
10298TIP3   OH255088   3.849   7.080  11.584  0.0128  0.0755  0.0190
10298TIP3    H155089   3.888   6.999  11.551 -0.2774  0.8243 -2.3533
10298TIP3    H255090   3.873   7.082  11.677  1.5498 -1.8271 -0.2732
10299TIP3   OH255091   7.526   3.065  11.982 -0.1087  0.5570  0.1397
10299TIP3    H155092   7.439   3.088  11.949 -0.8210 -0.3274  1.3536
10299TIP3    H255093   7.573   3.033  11.905 -1.8762 -1.8859 -0.0279
10300TIP3   OH255094   1.813   5.523  11.040  0.1744 -0.1269  0.9677
10300TIP3    H155095   1.763   5.602  11.016  2.0375  0.2844 -2.1323
10300TIP3    H255096   1.748   5.464  11.079 -2.1328  1.3756 -0.3671
10301TIP3   OH255097   1.411   2.700  10.480 -0.2712  0.0891 -0.0469
10301TIP3    H155098   1.405   2.706  10.576 -0.4273 -1.0552  0.0384
10301TIP3    H255099   1.348   2.631  10.457 -1.8274  1.7962 -1.2115
10302TIP3   OH255100   1.614   3.541  12.328 -0.1091 -0.7429 -0.5346
10302TIP3    H155101   1.643   3.598  12.257 -0.1627 -0.9357 -0.7119
10302TIP3    H255102   1.677   3.556  12.399 -1.2010  0.9519  0.1227
10303TIP3   OH255103   4.473   4.317  12.427  0.1187 -0.0070 -0.3606
10303TIP3    H155104   4.410   4.279  12.488  1.1863 -1.4784 -0.1304
10303TIP3    H255105   4.539   4.358  12.484  0.7987 -0.8662 -0.4991
10304TIP3   OH255106   1.989   4.838  12.848 -0.8317  0.0443 -0.3900
10304TIP3    H155107   1.939   4.890  12.910  0.5519  0.5327  0.3683
10304TIP3    H255108   2.038   4.776  12.902  0.4232  0.4913 -0.9668
10305TIP3   OH255109   2.014   3.387  11.081 -0.0660  0.0154 -0.0673
10305TIP3    H155110   1.955   3.321  11.117 -2.0200  0.4970 -2.1051
10305TIP3    H255111   2.090   3.338  11.051  0.0261 -0.8188  1.4543
10306TIP3   OH255112   6.378   5.419  13.498 -0.1512 -0.4796 -0.2005
10306TIP3    H155113   6.430   5.379  13.568 -0.8116 -1.0520 -0.0208
10306TIP3    H255114   6.399   5.367  13.421 -1.8864 -1.9974  0.2693
10307TIP3   OH255115   7.335   6.860  11.690  0.0494  0.3457  0.7391
10307TIP3    H155116   7.365   6.824  11.773  0.5555  0.2274  0.5129
10307TIP3    H255117   7.246   6.891  11.707 -0.5404 -1.3033  0.8461
10308TIP3   OH255118   4.245   2.041  11.392 -0.3526 -0.2181  0.1324
10308TIP3    H155119   4.246   2.106  11.462 -0.6952 -1.1115  0.9974
10308TIP3    H255120   4.155   2.042  11.359 -0.3960 -0.3495  0.2451
10309TIP3   OH255121   5.750   3.629  12.129  0.0802 -0.4071 -0.3278
10309TIP3    H155122   5.818   3.689  12.099 -1.1317  1.6975  0.9288
10309TIP3    H255123   5.795   3.571  12.190  0.9545  0.2586 -0.3177
10310TIP3   OH255124   3.092   2.755  12.664 -0.4060  0.1660 -0.5249
10310TIP3    H155125   3.157   2.685  12.660 -0.2839  0.2698 -0.3867
10310TIP3    H255126   3.143   2.834  12.681 -0.4305  0.4566 -1.7280
10311TIP3   OH255127   4.006   1.882  12.798 -0.1236  0.2510 -0.0206
10311TIP3    H155128   4.100   1.865  12.807  0.3223  0.9553 -2.5575
10311TIP3    H255129   3.976   1.817  12.734 -0.4575  2.4306 -2.2470
10312TIP3   OH255130   2.814   3.013  11.431  0.5527 -0.2308 -0.5653
10312TIP3    H155131   2.754   2.943  11.457  0.2327 -1.0380 -3.2369
10312TIP3    H255132   2.900   2.980  11.456  0.2206 -0.5263  0.2581
10313TIP3   OH255133   2.568   6.470  11.782  0.1733 -0.4850 -0.1953
10313TIP3    H155134   2.511   6.395  11.764  0.1543 -0.8839  1.3511
10313TIP3    H255135   2.601   6.497  11.696  0.1356 -2.2220 -0.7865
10314TIP3   OH255136   2.618   6.020  10.708 -0.5861  0.0085 -0.2496
10314TIP3    H155137   2.532   6.033  10.748  0.2089  1.3432  1.1272
10314TIP3    H255138   2.674   6.086  10.749  1.0074 -0.5482 -1.4199
10315TIP3   OH255139   4.443   2.572  11.831  0.0489 -0.4781  0.1087
10315TIP3    H155140   4.360   2.560  11.877  0.1653 -0.7055  0.2581
10315TIP3    H255141   4.484   2.647  11.874  0.4938 -1.1453  0.8660
10316TIP3   OH255142   6.076   4.268  12.332  0.4416 -0.3830  0.4985
10316TIP3    H155143   6.135   4.331  12.374 -0.4068  1.5068 -1.0081
10316TIP3    H255144   6.005   4.321  12.297 -0.2815 -2.1951 -0.9297
10317TIP3   OH255145   2.053   3.069  11.735  0.5070  0.0240  0.1448
10317TIP3    H155146   2.076   2.976  11.747 -1.3818 -0.7637 -1.7879
10317TIP3    H255147   1.960   3.074  11.755  0.3211  1.2632 -0.8818
10318TIP3   OH255148   7.381   2.453  10.965 -0.3389 -0.3361 -0.3334
10318TIP3    H155149   7.290   2.440  10.991 -0.4874  0.8517 -0.2343
10318TIP3    H255150   7.392   2.548  10.960  1.2993 -0.3950  1.1087
10319TIP3   OH255151   6.328   6.928  12.002 -0.6540  0.1447 -0.2848
10319TIP3    H155152   6.292   6.852  12.048 -0.3750  0.3719  0.3232
10319TIP3    H255153   6.422   6.925  12.022 -0.7643  1.1300  0.4757
10320TIP3   OH255154   5.906   4.525  11.788  0.1009  0.0757  0.4319
10320TIP3    H155155   5.947   4.611  11.776 -0.5382  0.1704 -1.2355
10320TIP3    H255156   5.816   4.545  11.815  0.2391 -0.1001  1.0467
10321TIP3   OH255157   0.912   6.264  11.208  0.2880  0.0564 -0.1531
10321TIP3    H155158   0.825   6.223  11.213 -0.2061  0.8118 -1.6767
10321TIP3    H255159   0.894   6.357  11.219  1.0215  0.1515  0.2747
10322TIP3   OH255160   5.447   6.255  12.128 -0.1886 -0.5752 -0.1688
10322TIP3    H155161   5.436   6.321  12.061 -3.2116 -0.9081 -0.1064
10322TIP3    H255162   5.442   6.171  12.081  1.6216 -0.8280  0.0142
10323TIP3   OH255163   4.387   4.620  10.848 -0.3494 -0.5673  0.6830
10323TIP3    H155164   4.450   4.690  10.866 -1.1726 -0.0738  1.7316
10323TIP3    H255165   4.346   4.602  10.932 -0.0246 -2.4774  0.4905
10324TIP3   OH255166   6.686   3.338  10.759  0.5117 -0.2103 -0.2454
10324TIP3    H155167   6.597   3.364  10.784  1.0356  0.4388  1.0887
10324TIP3    H255168   6.717   3.287  10.834 -0.0280 -3.8330 -2.2454
10325TIP3   OH255169   3.874   1.932  10.580 -0.0811 -0.3059  0.0628
10325TIP3    H155170   3.868   1.863  10.646 -0.5115 -0.1684  0.1759
10325TIP3    H255171   3.940   1.992  10.615  0.8051 -1.0040 -0.3723
10326TIP3   OH255172   2.163   7.035  11.231  0.3615  0.7636 -0.2555
10326TIP3    H155173   2.249   7.077  11.234  0.0740  1.3765 -0.3725
10326TIP3    H255174   2.101   7.108  11.229 -0.2522  0.3583  1.8685
10327TIP3   OH255175   5.479   0.427  11.786  0.4926 -0.3812  0.0728
10327TIP3    H155176   5.423   0.353  11.761 -0.1030 -0.1563  0.6954
10327TIP3    H255177   5.568   0.392  11.783  0.2848 -0.8858 -0.4603
10328TIP3   OH255178   5.065   7.185  11.821 -0.2199 -0.0427 -0.7454
10328TIP3    H155179   5.044   7.108  11.873 -0.1592 -0.7371 -1.7119
10328TIP3    H255180   5.126   7.153  11.754  1.0539  1.1705 -0.2191
10329TIP3   OH255181   5.414   5.195  12.714  0.6674 -0.5077 -0.0628
10329TIP3    H155182   5.446   5.248  12.787  0.7083  2.4058 -2.0237
10329TIP3    H255183   5.453   5.109  12.728  1.5794  0.2459  2.7085
10330TIP3   OH255184   2.477   2.803  12.112 -0.0868 -0.4217  0.8978
10330TIP3    H155185   2.447   2.850  12.034  1.5078  0.2420  0.6622
10330TIP3    H255186   2.415   2.829  12.180 -0.3528  0.5356  0.3139
10331TIP3   OH255187   2.127   1.979  13.015 -0.1302 -0.3369 -0.3397
10331TIP3    H155188   2.220   1.987  12.996 -0.0820  1.0008  0.3528
10331TIP3    H255189   2.084   2.003  12.933  0.1334 -0.3099 -0.4708
10332TIP3   OH255190   3.283   7.233  11.183 -0.1959  0.3180  0.2576
10332TIP3    H155191   3.307   7.288  11.108  1.1572  0.4599  0.7648
10332TIP3    H255192   3.317   7.146  11.161 -0.6146  0.1362  0.3123
10333TIP3   OH255193   5.382   7.085  10.695  0.1610  0.0147 -0.1176
10333TIP3    H155194   5.378   7.157  10.633 -3.4155 -0.9125 -1.2229
10333TIP3    H255195   5.312   7.103  10.758  1.6584 -0.6561  1.8553
10334TIP3   OH255196   2.809   1.560  13.329  0.3166 -0.3850  0.1939
10334TIP3    H155197   2.777   1.634  13.277  2.7897  1.4502  1.0227
10334TIP3    H255198   2.761   1.484  13.297 -1.9881  1.4805 -1.0943
10335TIP3   OH255199   4.832   6.689  12.036  0.1701 -0.7066  0.0448
10335TIP3    H155200   4.850   6.696  12.130  1.6720  0.6314 -0.3057
10335TIP3    H255201   4.755   6.632  12.031 -1.4972  1.1827  2.2400
10336TIP3   OH255202   6.932   3.203  12.794  0.6228 -0.4513 -0.0118
10336TIP3    H155203   6.949   3.184  12.886 -0.3175 -2.7176 -0.2297
10336TIP3    H255204   6.847   3.246  12.794  0.3996 -0.8848  0.1606
10337TIP3   OH255205   0.113   5.933  12.693  0.1987 -0.3036 -0.1863
10337TIP3    H155206   0.172   5.964  12.623  0.1140 -2.3977 -1.2407
10337TIP3    H255207   0.106   5.839  12.679 -3.0711 -0.2196  0.1900
10338TIP3   OH255208   0.038   0.750  12.664 -0.5286  0.1123  0.5383
10338TIP3    H155209   0.109   0.781  12.719 -1.6192  1.1583  1.4198
10338TIP3    H255210   0.030   0.816  12.595 -1.7586  0.9821  1.4586
10339TIP3   OH255211   3.168   7.664  11.119  0.8877  0.2356 -0.0375
10339TIP3    H155212   3.132   7.753  11.121  0.4314  0.2017 -2.7890
10339TIP3    H255213   3.092   7.607  11.127  0.8488  0.1458 -0.8956
10340TIP3   OH255214   0.365   3.244  12.821 -0.0683  0.3363  0.0858
10340TIP3    H155215   0.330   3.329  12.847 -1.2046 -0.0544 -0.1252
10340TIP3    H255216   0.308   3.180  12.864  0.3743 -0.3170 -0.2775
10341TIP3   OH255217   4.730   1.178  11.714 -0.5668 -0.1674 -0.0498
10341TIP3    H155218   4.758   1.090  11.739 -0.2929 -0.3148 -0.8436
10341TIP3    H255219   4.643   1.165  11.676  0.2056 -0.3816 -1.8562
10342TIP3   OH255220   2.381   7.254  12.909  0.4084 -0.0722 -0.0889
10342TIP3    H155221   2.448   7.191  12.935  1.0871  1.0004  0.8359
10342TIP3    H255222   2.307   7.236  12.966  0.6599  0.0748  0.2845
10343TIP3   OH255223   2.615   6.789  11.138  0.1738  0.8615 -0.0033
10343TIP3    H155224   2.603   6.860  11.074  0.3776  1.5615  0.7127
10343TIP3    H255225   2.527   6.755  11.154 -0.3814  2.9463  1.8467
10344TIP3   OH255226   5.478   4.953  13.190  0.3298 -0.0361 -0.3562
10344TIP3    H155227   5.438   5.022  13.137 -0.2812  1.7716  2.2489
10344TIP3    H255228   5.536   5.000  13.250  0.8629 -1.9391  0.6817
10345TIP3   OH255229   5.956   1.689  11.380  0.0432 -0.3391  0.1224
10345TIP3    H155230   5.995   1.772  11.408  0.4013 -1.0350  1.7607
10345TIP3    H255231   5.927   1.647  11.461 -1.6475 -1.0896 -0.8217
10346TIP3   OH255232   7.643   2.398  12.810  0.2736 -0.5841 -0.0536
10346TIP3    H155233   7.725   2.432  12.846  0.6653 -3.4128  2.1373
10346TIP3    H255234   7.575   2.456  12.843  0.8689 -1.6914  3.6418
10347TIP3   OH255235   6.092   1.623  10.485 -0.2620  0.2554 -0.3523
10347TIP3    H155236   6.173   1.572  10.483 -1.7217 -2.2257  0.3749
10347TIP3    H255237   6.102   1.682  10.560  1.3047  0.8558 -0.9875
10348TIP3   OH255238   0.113   4.488  12.683  0.0609 -0.1673 -0.4044
10348TIP3    H155239   0.039   4.473  12.741  0.8519  0.8027  0.8932
10348TIP3    H255240   0.124   4.583  12.681  0.1387 -0.1819 -2.0572
10349TIP3   OH255241   0.296   0.683  11.491  0.5284 -0.0741  0.3701
10349TIP3    H155242   0.280   0.721  11.404  1.1749 -0.6404 -0.0118
10349TIP3    H255243   0.289   0.589  11.477  1.9631 -0.2448  0.6254
10350TIP3   OH255244   0.861   0.976  12.512  0.1807 -0.4346  0.5131
10350TIP3    H155245   0.853   0.948  12.421  1.1450  2.2051 -0.5036
10350TIP3    H255246   0.856   0.896  12.563 -2.1345 -1.8666 -1.7175
10351TIP3   OH255247   0.441   0.679  12.113 -0.4281  0.0022 -0.1154
10351TIP3    H155248   0.504   0.731  12.062 -0.3248 -0.2645 -0.2607
10351TIP3    H255249   0.488   0.657  12.193 -0.4766  0.1430 -0.0471
10352TIP3   OH255250   6.901   1.250  11.428 -0.1647 -0.3827  0.0447
10352TIP3    H155251   6.980   1.297  11.401 -0.3232 -1.5607 -2.8128
10352TIP3    H255252   6.833   1.280  11.369 -1.2916 -1.1269  0.9248
10353TIP3   OH255253   1.238   1.118  10.955  0.2111  0.1974  0.6869
10353TIP3    H155254   1.221   1.056  11.026  0.2760 -1.4386 -0.6531
10353TIP3    H255255   1.166   1.103  10.893 -1.2513  3.3234  1.4460
10354TIP3   OH255256   5.308   3.384  11.587  0.4770 -0.0808 -0.6387
10354TIP3    H155257   5.393   3.340  11.581  0.1207 -0.9421  0.4005
10354TIP3    H255258   5.301   3.410  11.678 -1.3449 -2.0445 -0.1436
10355TIP3   OH255259   0.362   2.743  12.925 -0.2919  0.0172  0.0143
10355TIP3    H155260   0.275   2.769  12.954 -0.8172 -2.1207  0.5302
10355TIP3    H255261   0.421   2.776  12.993 -0.5484  2.2185 -0.7666
10356TIP3   OH255262   1.335   3.847  11.116  0.1490  0.0807 -0.1130
10356TIP3    H155263   1.274   3.902  11.067  0.8742  0.6967 -0.3282
10356TIP3    H255264   1.374   3.905  11.180 -1.8538 -1.0137  2.2619
10357TIP3   OH255265   4.640   0.961  10.687  0.0653  0.5277 -0.0198
10357TIP3    H155266   4.727   0.953  10.727  1.3881  1.0143 -2.5893
10357TIP3    H255267   4.619   0.872  10.658  0.0515  0.5473 -0.0703
10358TIP3   OH255268   4.477   4.819  11.299 -0.2385  0.1966 -0.3335
10358TIP3    H155269   4.465   4.913  11.308 -1.5049  0.0198  0.2000
10358TIP3    H255270   4.470   4.786  11.389  1.2916 -0.3185 -0.3716
10359TIP3   OH255271   4.871   2.263  11.637 -0.0866 -0.3283  0.2135
10359TIP3    H155272   4.809   2.327  11.674  1.3924  0.7590  0.8886
10359TIP3    H255273   4.869   2.280  11.543  1.4154  1.8585  0.4896
10360TIP3   OH255274   7.678   3.456  10.538 -0.8197  0.0555 -0.8601
10360TIP3    H155275   7.585   3.474  10.523 -0.8956 -0.7016 -1.3434
10360TIP3    H255276   7.723   3.511  10.474 -0.9894 -0.4383 -1.4089
10361TIP3   OH255277   7.184   1.226  12.225  0.0468  0.1629 -0.3002
10361TIP3    H155278   7.245   1.242  12.297  0.3031 -0.0900 -0.4572
10361TIP3    H255279   7.132   1.151  12.253  0.5321 -0.2958 -0.6161
10362TIP3   OH255280   5.423   5.190  10.856  0.0390  0.1365  0.2440
10362TIP3    H155281   5.447   5.100  10.880 -0.6320  0.1463  1.0223
10362TIP3    H255282   5.497   5.243  10.883  1.0321 -0.3234 -1.4707
10363TIP3   OH255283   3.875   4.324  12.236 -0.1361  0.4618 -0.4564
10363TIP3    H155284   3.836   4.287  12.157 -1.7375  1.9745 -0.4068
10363TIP3    H255285   3.812   4.388  12.268  1.6822  1.8611  0.5467
10364TIP3   OH255286   2.757   7.129  11.254 -0.0998  0.1503 -0.0020
10364TIP3    H155287   2.777   7.215  11.216  1.8329 -0.8748 -1.5214
10364TIP3    H255288   2.698   7.088  11.191  1.6786 -0.8634 -1.1004
10365TIP3   OH255289   7.113   5.278  13.096  0.9189  0.2160 -0.0471
10365TIP3    H155290   7.150   5.190  13.096  0.1691 -0.1094  0.0221
10365TIP3    H255291   7.028   5.268  13.138  0.0143  0.6142 -1.6777
10366TIP3   OH255292   2.319   4.291  11.829 -0.7084 -0.2006 -0.4445
10366TIP3    H155293   2.239   4.248  11.798 -0.9590 -0.6518  0.7644
10366TIP3    H255294   2.291   4.345  11.902  0.2189 -1.1118  0.6220
10367TIP3   OH255295   3.550   2.742  12.591  0.4191 -0.3265 -0.1435
10367TIP3    H155296   3.567   2.681  12.662 -0.8554 -1.2703 -0.6069
10367TIP3    H255297   3.620   2.726  12.528 -0.5012 -2.1373 -0.7644
10368TIP3   OH255298   7.088   7.534  11.423 -0.2284  0.1759 -0.3573
10368TIP3    H155299   7.041   7.616  11.434  0.0202  0.1543  0.9834
10368TIP3    H255300   7.180   7.557  11.440 -0.3352 -0.6475  1.5584
10369TIP3   OH255301   7.229   0.659  12.579 -0.4458 -0.3378 -0.1769
10369TIP3    H155302   7.305   0.606  12.554 -0.3438 -1.0100  1.4691
10369TIP3    H255303   7.178   0.602  12.636 -2.5752 -0.1368 -1.7694
10370TIP3   OH255304   4.533   7.107  13.549  0.4011 -0.2573  0.4718
10370TIP3    H155305   4.536   7.012  13.538  0.0665 -0.3388  1.0283
10370TIP3    H255306   4.624   7.135  13.542  0.2617 -0.2238 -2.8332
10371TIP3   OH255307   5.939   6.541  13.097 -0.1542 -0.0357 -0.6888
10371TIP3    H155308   5.908   6.628  13.073 -1.5641 -0.5583 -0.8846
10371TIP3    H255309   5.968   6.550  13.188 -1.2812  0.4126 -0.3607
10372TIP3   OH255310   4.171   1.447  10.772  0.5454 -0.0318  0.4546
10372TIP3    H155311   4.084   1.435  10.810  0.0408 -0.7768 -0.8563
10372TIP3    H255312   4.176   1.541  10.753 -1.1445 -0.3480 -2.0031
10373TIP3   OH255313   5.778   0.706  12.219  0.1461  0.6460  0.0418
10373TIP3    H155314   5.695   0.749  12.238  1.3212  3.0661  0.0834
10373TIP3    H255315   5.757   0.612  12.218 -2.4247  1.1391  0.6484
10374TIP3   OH255316   7.271   7.047  12.828  0.3089  0.5373 -0.2600
10374TIP3    H155317   7.191   7.048  12.776  1.9753  0.6973 -3.0965
10374TIP3    H255318   7.261   6.973  12.887 -3.1088  2.3785  1.7184
10375TIP3   OH255319   3.405   4.586  12.328  0.8007 -0.3421 -0.8025
10375TIP3    H155320   3.409   4.523  12.256  0.5416 -0.6285 -0.5702
10375TIP3    H255321   3.398   4.532  12.407 -0.1206 -0.0224 -0.6520
10376TIP3   OH255322   4.886   0.961  11.811  0.8806 -0.8410  0.1171
10376TIP3    H155323   4.865   0.941  11.902  0.0919  0.4259  0.2511
10376TIP3    H255324   4.951   1.031  11.816  0.7749 -0.7108 -0.2835
10377TIP3   OH255325   6.391   2.649  12.689 -0.2465 -0.0963 -0.6500
10377TIP3    H155326   6.376   2.660  12.783 -1.3199  0.0350 -0.8244
10377TIP3    H255327   6.372   2.735  12.651  1.1513  0.1246 -0.8877
10378TIP3   OH255328   4.213   6.917  12.959 -0.0174 -0.2104  0.2526
10378TIP3    H155329   4.229   6.949  13.047  0.8788  1.6461 -0.5299
10378TIP3    H255330   4.282   6.957  12.905  0.1347 -2.1618 -1.1230
10379TIP3   OH255331   2.069   5.962  11.257 -0.0521  0.4357 -0.6951
10379TIP3    H155332   2.135   5.947  11.189 -0.6218  1.4657 -1.5076
10379TIP3    H255333   1.990   5.984  11.209 -0.5651  0.8248  0.2970
10380TIP3   OH255334   3.118   7.486  11.531  0.1698 -0.0105 -0.1931
10380TIP3    H155335   3.050   7.485  11.599 -1.2766 -0.5263 -1.5884
10380TIP3    H255336   3.145   7.394  11.524  0.0654 -0.0110 -0.5652
10381TIP3   OH255337   3.618   5.602  10.651  0.1480 -0.2262 -0.8761
10381TIP3    H155338   3.587   5.689  10.630 -2.0043 -0.8201 -0.4308
10381TIP3    H255339   3.712   5.605  10.635  0.4340  2.6330  0.6855
10382TIP3   OH255340   4.078   7.062  10.747  0.5338  0.2162  0.5791
10382TIP3    H155341   4.166   7.100  10.747  0.3097  0.7340  0.0760
10382TIP3    H255342   4.019   7.137  10.748  0.0871 -0.1338  1.6911
10383TIP3   OH255343   5.994   2.320  12.297 -0.6111 -0.5877 -0.2954
10383TIP3    H155344   6.063   2.258  12.316 -2.1676 -1.5247  3.1574
10383TIP3    H255345   5.914   2.278  12.329 -1.9137  2.6575  1.2014
10384TIP3   OH255346   1.193   6.599  11.764  0.5553  0.4168  0.2701
10384TIP3    H155347   1.271   6.545  11.779  0.0792 -0.1763  0.6485
10384TIP3    H255348   1.190   6.611  11.669 -0.3264 -1.7850 -0.0481
10385TIP3   OH255349   4.813   2.509  11.105  0.3373  0.2051 -0.1041
10385TIP3    H155350   4.866   2.584  11.081 -0.1978  1.8425  3.2558
10385TIP3    H255351   4.730   2.546  11.136 -0.0561 -1.7308  1.4113
10386TIP3   OH255352   0.475   1.961  10.488 -0.4274 -0.2486 -0.4457
10386TIP3    H155353   0.403   1.990  10.432  2.5317  1.5831 -3.6808
10386TIP3    H255354   0.462   2.009  10.570 -0.8834  3.1335 -2.3267
10387TIP3   OH255355   2.492   6.960  12.301 -0.2129 -0.4835  0.4654
10387TIP3    H155356   2.423   7.007  12.347 -0.7015  0.5536 -1.2316
10387TIP3    H255357   2.543   7.029  12.258 -0.1131 -1.4140 -0.9671
10388TIP3   OH255358   0.902   3.559  12.503 -0.5326  0.2114  0.4498
10388TIP3    H155359   0.865   3.647  12.502  0.0893  0.5040 -1.1241
10388TIP3    H255360   0.967   3.560  12.572 -0.3262  1.0865  0.2458
10389TIP3   OH255361   3.397   7.131  10.815 -0.3967 -0.1727 -0.5170
10389TIP3    H155362   3.419   7.210  10.864 -0.1498 -0.4188 -0.2265
10389TIP3    H255363   3.465   7.068  10.840  0.3513  0.0144 -1.9432
10390TIP3   OH255364   0.137   2.467  12.062  0.2708 -0.1917  0.0563
10390TIP3    H155365   0.229   2.443  12.076 -0.2796 -1.9697  0.9709
10390TIP3    H255366   0.106   2.404  11.997  0.2629  1.9259 -2.1270
10391TIP3   OH255367   0.193   1.211  10.905 -0.0597 -0.0073  0.1374
10391TIP3    H155368   0.106   1.175  10.888 -0.6829  1.1144  0.7725
10391TIP3    H255369   0.180   1.266  10.983  1.0699  0.6944 -0.1594
10392TIP3   OH255370   6.864   2.943  11.890  0.2134  0.3713  0.0066
10392TIP3    H155371   6.862   2.849  11.906  1.5407  0.3883  0.4476
10392TIP3    H255372   6.849   2.982  11.976 -0.2175  0.5563 -0.1529
10393TIP3   OH255373   0.752   3.661  11.599  0.0412  0.3021 -0.0941
10393TIP3    H155374   0.840   3.696  11.607  0.4041  0.3612 -3.1991
10393TIP3    H255375   0.761   3.568  11.621  0.6102  0.5610  0.7989
10394TIP3   OH255376   0.426   5.766  11.853 -0.3067  0.2869  0.9016
10394TIP3    H155377   0.496   5.705  11.876 -0.2960  0.0564  0.2729
10394TIP3    H255378   0.433   5.836  11.919 -0.8919 -0.8189  2.1836
10395TIP3   OH255379   3.284   1.805  11.373  0.0225 -0.2257 -0.1810
10395TIP3    H155380   3.324   1.892  11.377  0.1336 -0.2676 -0.3758
10395TIP3    H255381   3.211   1.815  11.311  1.0065 -0.6535 -1.4498
10396TIP3   OH255382   3.433   1.163  11.715  0.0222 -0.5071  0.1955
10396TIP3    H155383   3.367   1.224  11.684 -0.3779 -1.0382 -0.0101
10396TIP3    H255384   3.415   1.152  11.808 -0.3260 -0.8244  0.0940
10397TIP3   OH255385   6.905   1.355  10.800 -0.0360 -0.5246 -0.5326
10397TIP3    H155386   6.937   1.265  10.804  1.1395 -0.2014 -1.8986
10397TIP3    H255387   6.883   1.369  10.708  0.1283  0.6896 -0.4002
10398TIP3   OH255388   2.622   0.815  13.195  0.0994 -0.1847 -0.4501
10398TIP3    H155389   2.588   0.737  13.152  0.2389  0.2486 -1.3614
10398TIP3    H255390   2.597   0.888  13.138 -2.4806  0.8070  1.7164
10399TIP3   OH255391   7.259   1.856  10.605  0.0515  0.2435 -0.0267
10399TIP3    H155392   7.223   1.784  10.553 -0.3984  0.4244  0.0234
10399TIP3    H255393   7.283   1.923  10.541 -0.5392  0.4821 -0.0127
10400TIP3   OH255394   5.434   0.112  12.738  0.5787  0.1292 -0.2279
10400TIP3    H155395   5.393   0.026  12.728  0.1218  0.3587 -0.3339
10400TIP3    H255396   5.362   0.174  12.731  0.7560  0.4789  0.8877
10401TIP3   OH255397   6.563   0.708  11.354 -0.0725 -0.4826 -0.0904
10401TIP3    H155398   6.634   0.772  11.347  1.8771 -2.2459  1.9101
10401TIP3    H255399   6.494   0.754  11.402 -0.6426  1.4171 -2.4771
10402TIP3   OH255400   2.674   2.925  10.446  0.0610  0.0200  0.1335
10402TIP3    H155401   2.654   3.018  10.455 -1.1026 -0.1652 -0.4702
10402TIP3    H255402   2.606   2.881  10.496  0.9839 -0.5046  0.9663
10403TIP3   OH255403   2.974   3.753  11.162  0.0482 -0.0937  0.0610
10403TIP3    H155404   2.960   3.783  11.252 -0.3489 -0.4844  0.1337
10403TIP3    H255405   2.910   3.683  11.150 -0.4868  0.5239 -0.8140
10404TIP3   OH255406   6.844   3.927  12.306  0.3620 -0.4322  0.0540
10404TIP3    H155407   6.850   3.833  12.290  0.1339 -0.7909  1.8435
10404TIP3    H255408   6.752   3.942  12.329  0.0167  0.5320 -1.7748
10405TIP3   OH255409   6.615   2.181  12.851  0.3180  0.2702 -0.3214
10405TIP3    H155410   6.678   2.248  12.880 -0.8437  1.9695 -1.4955
10405TIP3    H255411   6.608   2.195  12.756 -0.5934 -0.9715 -0.4596
10406TIP3   OH255412   4.162   4.819  10.420 -0.4520  0.1196 -0.6202
10406TIP3    H155413   4.211   4.774  10.489  0.4903  2.4772  0.3187
10406TIP3    H255414   4.208   4.795  10.339 -0.5431 -1.3006 -0.2829
10407TIP3   OH255415   2.043   5.579  10.871  0.1571 -0.5250  0.2694
10407TIP3    H155416   1.955   5.586  10.907 -0.5237  1.5297 -1.5415
10407TIP3    H255417   2.034   5.520  10.796  0.0486  0.4397 -0.5065
10408TIP3   OH255418   2.288   0.378  12.325 -0.4669  0.1698  0.1022
10408TIP3    H155419   2.264   0.306  12.266 -1.4526  0.2737  0.3657
10408TIP3    H255420   2.343   0.338  12.392  0.0546 -0.0875 -0.4706
10409TIP3   OH255421   3.377   1.290  13.195 -0.0416 -0.7775 -0.3499
10409TIP3    H155422   3.440   1.251  13.255  0.3082  0.1995 -0.0658
10409TIP3    H255423   3.307   1.322  13.251 -0.3439 -1.0213 -0.5828
10410TIP3   OH255424   1.961   7.071  12.182  0.3770 -0.1921 -0.4265
10410TIP3    H155425   1.878   7.119  12.179 -0.0448 -0.9005 -0.1902
10410TIP3    H255426   1.940   6.984  12.149  1.6293  0.4428 -3.1986
10411TIP3   OH255427   0.967   2.770  10.662 -0.2931 -0.3721  0.0153
10411TIP3    H155428   0.952   2.832  10.733 -0.6809  2.6916 -2.5051
10411TIP3    H255429   0.999   2.824  10.590  0.0091 -3.2590 -2.1871
10412TIP3   OH255430   0.532   6.899  11.334  0.3084 -0.0198 -0.1560
10412TIP3    H155431   0.466   6.849  11.383  0.1495  0.9380  0.6392
10412TIP3    H255432   0.484   6.973  11.297  1.0289  1.0253  0.9376
10413TIP3   OH255433   5.661   7.643  10.826  0.7916  0.6962 -0.0311
10413TIP3    H155434   5.596   7.576  10.804  0.8855  0.4703  0.3712
10413TIP3    H255435   5.609   7.720  10.850  0.6888  1.0606 -1.3680
10414TIP3   OH255436   4.264   7.669  12.350 -0.3176  0.0328  0.0190
10414TIP3    H155437   4.311   7.661  12.267  0.2220  0.3748  0.2893
10414TIP3    H255438   4.330   7.650  12.416 -0.9335 -1.0622  0.3484
10415TIP3   OH255439   5.644   4.572  11.818 -0.1876 -0.1523 -0.0463
10415TIP3    H155440   5.574   4.573  11.752  0.8020  0.4148 -1.1281
10415TIP3    H255441   5.598   4.580  11.901 -1.3136  3.6965 -0.8446
10416TIP3   OH255442   4.948   2.539  13.036  0.7371 -0.1942  0.1332
10416TIP3    H155443   4.994   2.511  13.115 -1.4378 -0.7093  1.2729
10416TIP3    H255444   5.018   2.557  12.973  2.4493 -4.3496  0.5674
10417TIP3   OH255445   3.142   2.856  12.392  0.1006 -0.2109  0.7002
10417TIP3    H155446   3.067   2.799  12.408  0.6782 -0.8426  1.2234
10417TIP3    H255447   3.217   2.797  12.392  0.7149  0.5490  1.2676
10418TIP3   OH255448   0.006   4.583  10.827  0.3674  0.3697 -0.1048
10418TIP3    H155449   0.030   4.545  10.912  1.4372  0.5820 -0.3084
10418TIP3    H255450   0.019   4.512  10.764 -1.3897 -0.1086  0.0026
10419TIP3   OH255451   0.479   1.628  11.859 -0.1090 -0.1927  0.0446
10419TIP3    H155452   0.554   1.679  11.828  0.1522 -1.2663 -1.1831
10419TIP3    H255453   0.504   1.599  11.946  0.3165  0.5995  0.1970
10420TIP3   OH255454   7.260   6.420  13.369 -0.4615 -0.1510  0.1223
10420TIP3    H155455   7.319   6.359  13.325 -0.4620  0.5932 -0.9535
10420TIP3    H255456   7.318   6.481  13.415 -0.4619 -0.9697  1.2627
10421TIP3   OH255457   3.590   3.353  13.563  0.1342 -0.5583  0.5802
10421TIP3    H155458   3.677   3.324  13.590  0.2790 -1.5830 -0.8760
10421TIP3    H255459   3.600   3.376  13.470 -0.8414  0.6700  0.7522
10422TIP3   OH255460   7.228   5.783  12.758  0.4942 -0.1927  0.3832
10422TIP3    H155461   7.195   5.859  12.806  1.4684 -1.0854  2.5976
10422TIP3    H255462   7.322   5.801  12.746  0.4177 -0.3468 -0.4978
10423TIP3   OH255463   2.833   3.353  11.652 -0.0103  0.0978 -0.3024
10423TIP3    H155464   2.766   3.346  11.720 -0.6643  0.4308 -0.8977
10423TIP3    H255465   2.842   3.265  11.617  0.3599 -0.0846  0.2278
10424TIP3   OH255466   1.019   4.969  11.361  0.1144 -0.3824 -0.0680
10424TIP3    H155467   1.086   4.999  11.423  0.0791  0.2254 -0.3149
10424TIP3    H255468   1.033   5.024  11.284 -0.2971 -0.6554 -0.3332
10425TIP3   OH255469   0.690   3.341  12.618  0.5195  0.3587  0.2688
10425TIP3    H155470   0.647   3.408  12.565 -2.5356 -2.1870 -0.8144
10425TIP3    H255471   0.778   3.335  12.582 -0.4485  0.9458 -2.4572
10426TIP3   OH255472   7.383   6.360  10.692 -0.4985 -0.3602 -0.5955
10426TIP3    H155473   7.457   6.418  10.707 -0.2904 -0.4407 -1.3035
10426TIP3    H255474   7.362   6.325  10.779 -0.6069  0.7402 -0.1685
10427TIP3   OH255475   6.180   3.225  12.935  0.2696  0.4745  0.8458
10427TIP3    H155476   6.174   3.315  12.904  1.0644 -0.6785 -3.3189
10427TIP3    H255477   6.273   3.205  12.934 -0.0136 -1.0881 -0.9925
10428TIP3   OH255478   3.414   6.254  11.678  0.4039  0.5306 -0.2530
10428TIP3    H155479   3.499   6.294  11.658  0.4996  1.0535  1.0858
10428TIP3    H255480   3.357   6.284  11.608  1.5042 -0.5104 -1.6461
10429TIP3   OH255481   6.189   4.071  12.091 -0.0728  0.3095  0.3312
10429TIP3    H155482   6.152   4.023  12.017  0.9021  0.4517 -0.2685
10429TIP3    H255483   6.125   4.139  12.111 -1.7108 -1.4599  1.4840
10430TIP3   OH255484   1.621   5.930  13.393  0.1076 -1.1299 -0.4114
10430TIP3    H155485   1.581   5.916  13.308  0.9654  0.6417 -1.1666
10430TIP3    H255486   1.709   5.891  13.385 -0.2407 -2.0688  0.1181
10431TIP3   OH255487   5.318   5.156  12.448 -0.0655  0.3285  0.7067
10431TIP3    H155488   5.354   5.176  12.534 -0.2770  0.4022  0.7779
10431TIP3    H255489   5.223   5.162  12.459 -0.0643  1.3445  0.2197
10432TIP3   OH255490   0.198   5.989  11.460  0.0740 -0.4025 -0.1932
10432TIP3    H155491   0.163   6.038  11.535 -0.5714  0.2538 -0.9009
10432TIP3    H255492   0.283   5.958  11.490 -0.1830 -0.1835  0.8262
10433TIP3   OH255493   7.548   3.153  11.605 -0.1579  0.4062 -0.2469
10433TIP3    H155494   7.471   3.134  11.550 -0.8081  1.1670  0.3759
10433TIP3    H255495   7.550   3.080  11.668 -0.2937  0.3112 -0.3506
10434TIP3   OH255496   0.252   3.730  13.055 -0.0361 -0.0127  0.0368
10434TIP3    H155497   0.172   3.738  13.108 -0.9677 -2.5759 -0.8308
10434TIP3    H255498   0.317   3.696  13.116 -0.3905 -0.5034  0.1552
10435TIP3   OH255499   2.509   4.778  11.083  0.0226 -0.0136  0.2402
10435TIP3    H155500   2.418   4.799  11.106 -0.3300  0.0588 -1.1371
10435TIP3    H255501   2.552   4.764  11.167 -0.5574  2.7682  1.1216
10436TIP3   OH255502   3.781   4.944  11.533  0.1825 -0.3351  0.0117
10436TIP3    H155503   3.714   4.986  11.587 -0.6150  1.3316 -2.1133
10436TIP3    H255504   3.842   5.015  11.512  1.9532 -1.5447  0.8536
10437TIP3   OH255505   1.652   5.299  13.435  0.1575 -0.2377 -0.5711
10437TIP3    H155506   1.561   5.305  13.463 -0.1887 -1.3596 -1.4024
10437TIP3    H255507   1.698   5.365  13.488 -0.7772 -1.0124  1.2937
10438TIP3   OH255508   2.097   6.989  12.623  0.0612 -0.6432 -0.4938
10438TIP3    H155509   2.183   7.029  12.641 -1.3362  2.4622 -0.0887
10438TIP3    H255510   2.041   7.018  12.695 -1.2962 -2.9799 -0.5088
10439TIP3   OH255511   3.860   1.744  11.861  0.2431  0.2340 -0.5895
10439TIP3    H155512   3.810   1.686  11.804 -1.7406 -0.1524  1.3903
10439TIP3    H255513   3.914   1.686  11.914  0.0526  0.3594 -0.2518
   7.68049   7.68049  30.00000
