Title
55513
    1DOPE     N    1   5.046   4.252  16.968  0.4002 -0.6942  0.1572
    1DOPE   HN1    2   5.069   4.269  16.868 -0.5815 -0.1912  0.0108
    1DOPE   HN2    3   5.031   4.345  17.012  3.0773 -0.9956  1.9467
    1DOPE   HN3    4   5.141   4.213  16.989  0.4129 -0.5648  0.3416
    1DOPE   C12    5   4.950   4.144  17.000  0.7724 -0.2500 -0.3722
    1DOPE  H12A    6   4.857   4.152  16.940 -0.4286 -0.4204  1.3972
    1DOPE  H12B    7   4.928   4.158  17.108  1.1781 -1.3629 -0.1307
    1DOPE   C11    8   5.018   4.005  16.989  0.1555  0.0338 -0.6262
    1DOPE  H11A    9   5.032   3.972  16.884 -1.5789 -2.7864 -0.0764
    1DOPE  H11B   10   4.940   3.936  17.027  0.3494 -0.1455 -0.5464
    1DOPE     P   11   5.177   3.849  17.108 -0.2109  0.0496 -0.2274
    1DOPE   O13   12   5.056   3.763  17.145 -0.0119  0.1611 -0.1031
    1DOPE   O14   13   5.282   3.857  17.210  0.0652  0.0277 -0.6143
    1DOPE   O11   14   5.236   3.796  16.974 -0.2587 -0.5105  0.1940
    1DOPE   O12   15   5.131   3.989  17.074 -0.0969 -0.1198 -0.0237
    1DOPE    C1   16   5.310   3.877  16.876  0.0803  0.0757 -0.1891
    1DOPE    HA   17   5.418   3.857  16.892 -0.4919 -2.3541  1.1975
    1DOPE    HB   18   5.299   3.984  16.905 -1.1855 -0.3891  1.2280
    1DOPE    C2   19   5.270   3.847  16.731 -0.3326 -0.2094 -0.1454
    1DOPE    HS   20   5.160   3.863  16.730 -0.5443 -1.4996  0.4379
    1DOPE   O21   21   5.312   3.712  16.703  1.2465 -0.1972  0.3162
    1DOPE   C21   22   5.244   3.658  16.599 -0.1678 -0.5502  0.0224
    1DOPE   O22   23   5.156   3.723  16.537 -0.6473  0.3058  0.0643
    1DOPE   C22   24   5.293   3.520  16.558 -0.2168  0.0124  0.3053
    1DOPE   H2R   25   5.216   3.452  16.600  0.1913 -1.7142 -1.5338
    1DOPE   H2S   26   5.389   3.501  16.609  0.9126  1.2553 -1.2587
    1DOPE    C3   27   5.358   3.939  16.637  0.0707  0.3840  0.1122
    1DOPE    HX   28   5.454   3.894  16.672 -0.1119  0.8935  1.3185
    1DOPE    HY   29   5.360   4.045  16.670 -0.1282  0.4278 -0.0178
    1DOPE   O31   30   5.349   3.932  16.489 -0.5398  0.4351  0.7168
    1DOPE   C31   31   5.255   4.014  16.445 -0.3072  0.8492 -0.6739
    1DOPE   O32   32   5.196   4.095  16.510 -0.0005 -0.0255 -0.0319
    1DOPE   C32   33   5.228   3.982  16.295  0.5393 -0.0285 -0.2494
    1DOPE   H2X   34   5.120   3.968  16.276  0.6798 -0.6309 -0.6038
    1DOPE   H2Y   35   5.255   4.073  16.237 -1.3404  0.1899 -0.8270
    1DOPE   C23   36   5.322   3.509  16.405 -0.2804  0.0356 -0.3984
    1DOPE   H3R   37   5.394   3.424  16.400  0.6101  0.8176 -1.0798
    1DOPE   H3S   38   5.361   3.604  16.362 -1.4552  0.2052 -1.1539
    1DOPE   C24   39   5.195   3.467  16.328  0.6971  0.4046 -0.4113
    1DOPE   H4R   40   5.136   3.557  16.300 -2.4543 -1.3882  0.0764
    1DOPE   H4S   41   5.128   3.410  16.395 -0.6025  0.6418 -1.4803
    1DOPE   C25   42   5.225   3.379  16.210  0.6397  0.3168 -0.0523
    1DOPE   H5R   43   5.132   3.326  16.181  0.2192  1.0180  0.0002
    1DOPE   H5S   44   5.306   3.307  16.235  0.7046 -0.0077 -1.1277
    1DOPE   C26   45   5.283   3.461  16.091  1.1915 -0.7848  0.2509
    1DOPE   H6R   46   5.350   3.540  16.132  0.8044  0.2433 -1.0226
    1DOPE   H6S   47   5.196   3.517  16.051  0.2685 -0.7701  2.1774
    1DOPE   C27   48   5.354   3.381  15.983 -0.4082 -0.4530 -0.4704
    1DOPE   H7R   49   5.275   3.315  15.941 -1.1858 -0.9442  1.6131
    1DOPE   H7S   50   5.427   3.311  16.030  1.3168 -0.4717 -2.9741
    1DOPE   C28   51   5.413   3.475  15.870  0.1629  0.9299 -0.1280
    1DOPE   H8R   52   5.470   3.552  15.926  2.2042 -1.2088  0.9643
    1DOPE   H8S   53   5.321   3.521  15.830 -2.5535 -2.8138  1.2763
    1DOPE   C29   54   5.496   3.401  15.769 -0.5640  0.3142  0.3523
    1DOPE   H9R   55   5.586   3.348  15.802  0.6438  1.5526 -0.8466
    1DOPE  C210   56   5.458   3.384  15.641 -0.5019 -0.2615 -0.4636
    1DOPE  H10R   57   5.517   3.332  15.564 -1.6031 -1.5807 -0.4647
    1DOPE  C211   58   5.337   3.449  15.583 -0.7968  0.0278  0.0797
    1DOPE  H11R   59   5.347   3.442  15.472 -0.6882 -0.7002  0.1341
    1DOPE  H11S   60   5.329   3.557  15.608  0.6074  0.0115  0.7009
    1DOPE  C212   61   5.219   3.357  15.620  0.6296 -0.1035 -0.0201
    1DOPE  H12R   62   5.227   3.321  15.725  1.1320 -0.5387 -0.2028
    1DOPE  H12S   63   5.236   3.262  15.564  1.0984 -0.8748  1.3763
    1DOPE  C213   64   5.071   3.408  15.610 -0.7563 -0.3851  0.2025
    1DOPE  H13R   65   5.053   3.511  15.648 -2.4913  1.0736 -4.0101
    1DOPE  H13S   66   5.006   3.331  15.657  0.3953 -1.3207  0.3203
    1DOPE  C214   67   5.043   3.409  15.457 -0.6312 -0.8832 -0.4172
    1DOPE  H14R   68   5.077   3.324  15.394  1.9992  0.8838 -1.5481
    1DOPE  H14S   69   5.105   3.493  15.418  0.8876 -1.7979 -0.0847
    1DOPE  C215   70   4.895   3.438  15.437  0.8732 -0.0916  1.1251
    1DOPE  H15R   71   4.833   3.359  15.485 -1.3457  1.1775  0.4976
    1DOPE  H15S   72   4.853   3.416  15.336  1.7508  0.7994  0.5492
    1DOPE  C216   73   4.838   3.571  15.478 -0.3896  0.6019 -0.1225
    1DOPE  H16R   74   4.841   3.587  15.588  1.7542  2.6850 -0.3785
    1DOPE  H16S   75   4.731   3.574  15.451  0.0904  0.9296 -2.1305
    1DOPE  C217   76   4.906   3.703  15.429  0.0526 -0.0808 -0.3141
    1DOPE  H17R   77   4.916   3.683  15.320 -0.6346 -0.7447 -0.2651
    1DOPE  H17S   78   5.005   3.719  15.476 -0.3949  0.4647  0.4753
    1DOPE  C218   79   4.827   3.828  15.459  0.6077 -0.3118 -0.1377
    1DOPE  H18R   80   4.790   3.832  15.563  1.6370  1.7911  0.2065
    1DOPE  H18S   81   4.738   3.828  15.392  0.2425 -0.1575  0.3477
    1DOPE  H18T   82   4.882   3.918  15.422  1.8790 -1.7409 -1.8680
    1DOPE   C33   83   5.290   3.852  16.226 -0.1740 -0.5503  0.0790
    1DOPE   H3X   84   5.258   3.867  16.121 -2.0444  1.2408  0.8504
    1DOPE   H3Y   85   5.247   3.757  16.263  0.7638 -1.1246 -0.2753
    1DOPE   C34   86   5.445   3.846  16.212  0.0413  0.0048  0.5756
    1DOPE   H4X   87   5.485   3.845  16.316  1.6686 -1.1015 -0.0221
    1DOPE   H4Y   88   5.476   3.748  16.169  2.3525  1.4627 -1.2569
    1DOPE   C35   89   5.505   3.950  16.107 -0.1556  0.2182  0.1862
    1DOPE   H5X   90   5.616   3.943  16.109 -0.0092  1.9855  2.6466
    1DOPE   H5Y   91   5.476   4.046  16.153 -0.8577 -1.4233  3.4092
    1DOPE   C36   92   5.459   3.930  15.957  0.2495 -0.3335 -0.5575
    1DOPE   H6X   93   5.352   3.958  15.948  0.3407 -0.3658 -1.8569
    1DOPE   H6Y   94   5.473   3.822  15.936 -0.4116 -0.5113 -0.1011
    1DOPE   C37   95   5.549   4.012  15.861 -0.3998  0.0664  0.0402
    1DOPE   H7X   96   5.530   4.121  15.870  1.8929  0.4788  0.4285
    1DOPE   H7Y   97   5.655   4.001  15.891  0.1819  0.4674 -1.7684
    1DOPE   C38   98   5.530   3.978  15.714  0.2937 -0.4643 -0.2861
    1DOPE   H8X   99   5.419   3.977  15.702  0.1512  0.6698  0.7374
    1DOPE   H8Y  100   5.559   3.873  15.693  0.0156 -0.9830  1.6875
    1DOPE   C39  101   5.587   4.068  15.605  0.8320 -0.1379 -0.5872
    1DOPE   H9X  102   5.637   4.160  15.640 -1.2578  1.4789 -1.5957
    1DOPE  C310  103   5.602   4.044  15.476  0.3979  0.2014  0.3586
    1DOPE  H10X  104   5.665   4.106  15.411  0.6852  1.0089  1.3701
    1DOPE  C311  105   5.546   3.920  15.418  0.5247 -0.4296 -0.0513
    1DOPE  H11X  106   5.600   3.882  15.329  0.9029 -1.1254  0.4640
    1DOPE  H11Y  107   5.545   3.833  15.486  1.1195 -0.0296  0.4830
    1DOPE  C312  108   5.397   3.922  15.365  0.0417 -0.4376 -0.2068
    1DOPE  H12X  109   5.406   3.996  15.282  1.8509  1.7186  1.7905
    1DOPE  H12Y  110   5.339   3.977  15.442  0.7647  0.7423 -0.4699
    1DOPE  C313  111   5.336   3.792  15.334  0.8503 -0.3832 -0.3725
    1DOPE  H13X  112   5.359   3.737  15.427 -0.0680 -0.0084  0.0928
    1DOPE  H13Y  113   5.231   3.820  15.311  1.3663  2.3908  0.2781
    1DOPE  C314  114   5.389   3.709  15.212 -0.2737  0.1967 -0.9315
    1DOPE  H14X  115   5.351   3.605  15.217  0.5772 -0.0805  2.7978
    1DOPE  H14Y  116   5.498   3.695  15.227 -0.0907  0.7854 -1.6498
    1DOPE  C315  117   5.371   3.768  15.074 -0.3031 -0.0894 -0.3178
    1DOPE  H15X  118   5.452   3.727  15.010 -0.8060 -0.2982 -0.8308
    1DOPE  H15Y  119   5.383   3.878  15.082 -3.8718  0.3043  1.8462
    1DOPE  C316  120   5.239   3.731  15.003  0.1541 -0.1607 -0.2042
    1DOPE  H16X  121   5.155   3.736  15.077  0.9329 -0.3571  0.7116
    1DOPE  H16Y  122   5.248   3.628  14.961  2.1930  0.2830 -0.9296
    1DOPE  C317  123   5.209   3.825  14.889  0.0782  0.3887  0.1794
    1DOPE  H17X  124   5.244   3.920  14.934 -0.3231 -0.2730  1.9986
    1DOPE  H17Y  125   5.265   3.801  14.797  1.1383  2.5892  0.1969
    1DOPE  C318  126   5.060   3.831  14.856  0.3269 -0.3831  0.5827
    1DOPE  H18X  127   4.991   3.844  14.942  1.0151  1.0894  0.9367
    1DOPE  H18Y  128   5.051   3.917  14.787  2.9980  3.4112  4.4984
    1DOPE  H18Z  129   5.023   3.740  14.804  0.1710 -0.2575  0.4731
    2DOPE     N  130   5.681   3.345  16.722 -0.1985  0.4625  0.1368
    2DOPE   HN1  131   5.589   3.320  16.763 -0.8215  0.0357 -1.4484
    2DOPE   HN2  132   5.645   3.424  16.666 -2.6254 -0.3363  0.4368
    2DOPE   HN3  133   5.709   3.276  16.649 -0.4869 -0.2400  0.6771
    2DOPE   C12  134   5.796   3.362  16.819 -0.6578 -0.0046  0.1274
    2DOPE  H12A  135   5.868   3.282  16.792 -0.6022 -0.7576  2.2853
    2DOPE  H12B  136   5.762   3.351  16.924  2.3446  1.1229  1.3497
    2DOPE   C11  137   5.846   3.506  16.798 -1.0232 -0.6532  0.0174
    2DOPE  H11A  138   5.901   3.524  16.702 -1.0236 -2.5155 -0.3569
    2DOPE  H11B  139   5.923   3.520  16.877 -1.4665 -3.7548  1.1204
    2DOPE     P  140   5.735   3.710  16.923 -0.0967  0.3641  0.1263
    2DOPE   O13  141   5.864   3.712  16.998 -0.1402 -0.9406  0.3310
    2DOPE   O14  142   5.612   3.677  17.002 -0.1326 -0.2438 -0.2082
    2DOPE   O11  143   5.717   3.853  16.844 -0.2098 -1.2512  0.3689
    2DOPE   O12  144   5.746   3.602  16.807  0.2343 -0.0109  0.0580
    2DOPE    C1  145   5.826   3.908  16.767 -0.8398 -0.2178  0.2588
    2DOPE    HA  146   5.916   3.915  16.831  0.1693 -1.7089 -0.9310
    2DOPE    HB  147   5.797   4.012  16.741  1.7777  0.2644 -0.9972
    2DOPE    C2  148   5.852   3.838  16.631 -0.0566  0.2675 -0.0766
    2DOPE    HS  149   5.892   3.738  16.659  2.4648  0.7355 -1.6615
    2DOPE   O21  150   5.938   3.915  16.547  0.1801 -0.0565 -0.2256
    2DOPE   C21  151   6.014   3.839  16.471  0.4727 -0.7610 -0.0242
    2DOPE   O22  152   6.022   3.716  16.472 -0.1116 -0.4912  0.0939
    2DOPE   C22  153   6.082   3.931  16.366  0.3661  0.4973  0.0611
    2DOPE   H2R  154   6.126   3.861  16.293 -2.0360 -0.7787 -0.2874
    2DOPE   H2S  155   6.154   4.000  16.413 -0.5988  1.1426  0.6377
    2DOPE    C3  156   5.720   3.798  16.556 -0.6233  0.5532  0.2812
    2DOPE    HX  157   5.667   3.894  16.544 -1.5362 -0.0605 -0.7519
    2DOPE    HY  158   5.650   3.735  16.616 -0.7869 -0.8125 -1.2693
    2DOPE   O31  159   5.742   3.739  16.427 -0.0937  0.4872 -0.1434
    2DOPE   C31  160   5.714   3.604  16.412 -0.7042  0.2981 -0.2219
    2DOPE   O32  161   5.663   3.532  16.498 -0.1260 -0.6259  0.0311
    2DOPE   C32  162   5.765   3.562  16.279  0.1875  0.4690  0.0923
    2DOPE   H2X  163   5.871   3.530  16.288  0.3443  1.2124  0.9541
    2DOPE   H2Y  164   5.709   3.482  16.225 -0.2598  1.2274 -0.5806
    2DOPE   C23  165   5.970   4.010  16.296  0.6529 -0.8331  0.8330
    2DOPE   H3R  166   5.940   4.103  16.348  2.7104 -0.1577  0.8981
    2DOPE   H3S  167   5.881   3.949  16.272  0.2796 -0.1793  0.5227
    2DOPE   C24  168   6.027   4.051  16.157 -0.4480 -0.0640 -0.0014
    2DOPE   H4R  169   6.070   3.956  16.118  1.9113  0.7423  0.5103
    2DOPE   H4S  170   6.105   4.129  16.171  0.3421 -0.9664  0.7398
    2DOPE   C25  171   5.918   4.105  16.067  0.0622 -0.3367 -0.1650
    2DOPE   H5R  172   5.862   4.179  16.129  0.3108 -1.0031  0.8851
    2DOPE   H5S  173   5.845   4.023  16.050 -0.7854  0.1108  1.1195
    2DOPE   C26  174   5.966   4.176  15.936  0.3642  0.2870 -0.0736
    2DOPE   H6R  175   6.040   4.116  15.880 -0.3875  0.2247 -1.0344
    2DOPE   H6S  176   6.020   4.271  15.957  0.2323  0.5902 -1.0399
    2DOPE   C27  177   5.855   4.206  15.833  0.0882 -0.0778  1.0184
    2DOPE   H7R  178   5.779   4.273  15.878 -0.4830  0.9495 -1.3179
    2DOPE   H7S  179   5.804   4.110  15.812  0.3533 -0.3953  1.8112
    2DOPE   C28  180   5.912   4.284  15.712  0.0205 -0.4936  0.0723
    2DOPE   H8R  181   5.962   4.370  15.761 -0.3812 -0.5005  0.4969
    2DOPE   H8S  182   5.830   4.323  15.648  0.1179  1.0985  0.8620
    2DOPE   C29  183   6.005   4.196  15.632 -0.0907 -0.4683  0.3127
    2DOPE   H9R  184   5.965   4.095  15.615 -1.2797 -0.2369  1.5750
    2DOPE  C210  185   6.111   4.238  15.565 -0.7457  0.2632 -0.1267
    2DOPE  H10R  186   6.167   4.160  15.511  1.7907  1.4390  0.6146
    2DOPE  C211  187   6.175   4.377  15.562 -0.2432 -0.1252 -0.5045
    2DOPE  H11R  188   6.251   4.363  15.642 -0.5436 -0.5617 -0.2969
    2DOPE  H11S  189   6.106   4.456  15.597 -1.6411 -1.8323  0.7097
    2DOPE  C212  190   6.228   4.425  15.433  0.1819  0.6677  0.0747
    2DOPE  H12R  191   6.310   4.358  15.398 -0.0745 -0.2990  1.2842
    2DOPE  H12S  192   6.276   4.525  15.446 -0.3149  1.0329 -0.8030
    2DOPE  C213  193   6.128   4.429  15.312  0.8457  0.4983 -0.2563
    2DOPE  H13R  194   6.106   4.330  15.267 -0.1428  1.2355 -1.4662
    2DOPE  H13S  195   6.191   4.476  15.234 -0.6078  0.7879 -1.3051
    2DOPE  C214  196   5.996   4.498  15.337 -0.6240 -0.2922  0.2078
    2DOPE  H14R  197   6.015   4.579  15.410 -1.2224 -1.3760  1.6133
    2DOPE  H14S  198   5.920   4.433  15.385 -0.7827 -1.4958 -1.5519
    2DOPE  C215  199   5.932   4.554  15.209 -0.0459 -0.0145  0.2182
    2DOPE  H15R  200   6.018   4.578  15.143  0.7022  0.9605  1.4993
    2DOPE  H15S  201   5.884   4.651  15.230 -2.1396 -0.4811 -2.0039
    2DOPE  C216  202   5.835   4.465  15.128  0.8113 -0.0087 -0.9621
    2DOPE  H16R  203   5.752   4.440  15.197 -0.2740  1.2432 -1.7573
    2DOPE  H16S  204   5.887   4.373  15.094  3.0933  0.1747  1.6818
    2DOPE  C217  205   5.768   4.535  15.010 -0.9184 -0.1084  0.2540
    2DOPE  H17R  206   5.695   4.612  15.042  1.6453  2.9926 -0.7486
    2DOPE  H17S  207   5.718   4.452  14.956  0.3286 -1.4746  1.1277
    2DOPE  C218  208   5.857   4.620  14.914 -0.4542  0.2808 -0.4047
    2DOPE  H18R  209   5.932   4.559  14.858  0.3504 -0.6074  1.5465
    2DOPE  H18S  210   5.913   4.701  14.965 -1.1198 -0.1076  0.9977
    2DOPE  H18T  211   5.784   4.664  14.843 -0.3378  2.2612  0.6314
    2DOPE   C33  212   5.782   3.684  16.181  0.0199  0.5033  0.3200
    2DOPE   H3X  213   5.863   3.747  16.224  0.9408  1.0826 -2.1204
    2DOPE   H3Y  214   5.687   3.735  16.154 -0.2229 -1.0608 -2.0398
    2DOPE   C34  215   5.829   3.635  16.046 -0.6778  0.0272  0.0494
    2DOPE   H4X  216   5.923   3.575  16.046  0.9992  2.4245 -2.2959
    2DOPE   H4Y  217   5.743   3.578  16.005 -0.7073  0.4249 -0.4400
    2DOPE   C35  218   5.848   3.742  15.944 -0.0708  0.1228 -0.2781
    2DOPE   H5X  219   5.946   3.791  15.964  0.2491 -0.5676 -0.1148
    2DOPE   H5Y  220   5.771   3.819  15.965 -1.0274 -1.7490  4.1172
    2DOPE   C36  221   5.845   3.691  15.797  0.1588 -0.2616  0.5093
    2DOPE   H6X  222   5.747   3.644  15.774  0.3629 -0.7335  0.5869
    2DOPE   H6Y  223   5.916   3.608  15.777 -0.6111 -0.4703 -1.6104
    2DOPE   C37  224   5.872   3.805  15.697 -0.0339  0.2772 -1.2463
    2DOPE   H7X  225   5.795   3.882  15.718  1.0246  0.4461  2.7256
    2DOPE   H7Y  226   5.976   3.841  15.713  0.8789 -2.4767 -0.3579
    2DOPE   C38  227   5.858   3.768  15.546 -0.4827  0.4455  0.4644
    2DOPE   H8X  228   5.877   3.867  15.500  0.9360  0.1998  0.4775
    2DOPE   H8Y  229   5.756   3.731  15.524 -0.3868 -0.6393  1.7356
    2DOPE   C39  230   5.951   3.666  15.489  0.2674  0.3756 -0.5279
    2DOPE   H9X  231   6.028   3.637  15.561 -0.1532 -0.5973 -0.4585
    2DOPE  C310  232   5.948   3.599  15.376 -0.2727  0.0551  0.8589
    2DOPE  H10X  233   6.028   3.526  15.360 -0.4103  0.0692  0.0641
    2DOPE  C311  234   5.844   3.605  15.267 -0.2250 -0.0769 -0.0186
    2DOPE  H11X  235   5.766   3.684  15.278  1.2281  1.4691 -0.3653
    2DOPE  H11Y  236   5.889   3.633  15.169 -1.9456  0.0989 -0.7867
    2DOPE  C312  237   5.780   3.464  15.258  0.7646 -0.8800  0.3632
    2DOPE  H12X  238   5.706   3.450  15.340  0.9560  0.8328  0.8590
    2DOPE  H12Y  239   5.863   3.390  15.252 -0.6883 -2.4856 -2.6537
    2DOPE  C313  240   5.699   3.465  15.131  0.7970 -0.0052  0.4319
    2DOPE  H13X  241   5.644   3.560  15.117 -0.0447 -0.7490 -1.6971
    2DOPE  H13Y  242   5.758   3.461  15.037  0.5254  2.3214  0.1167
    2DOPE  C314  243   5.592   3.352  15.123  0.4829  0.3562 -0.3892
    2DOPE  H14X  244   5.501   3.384  15.178  0.7009  0.5530 -0.1359
    2DOPE  H14Y  245   5.631   3.256  15.164  0.2184  0.2814 -0.3098
    2DOPE  C315  246   5.542   3.337  14.979  0.1830 -0.3889 -0.6065
    2DOPE  H15X  247   5.501   3.431  14.937 -0.1763 -0.6616 -0.8767
    2DOPE  H15Y  248   5.465   3.258  14.990 -0.7258  0.5430 -0.0660
    2DOPE  C316  249   5.640   3.279  14.873  0.1193  0.5706 -0.5854
    2DOPE  H16X  250   5.703   3.200  14.921 -1.9261 -0.3584  0.6813
    2DOPE  H16Y  251   5.709   3.358  14.837  0.1832 -0.0997 -2.0060
    2DOPE  C317  252   5.560   3.212  14.763  1.1261 -0.2461 -0.7721
    2DOPE  H17X  253   5.513   3.117  14.797  0.7556  0.5217  0.9707
    2DOPE  H17Y  254   5.478   3.276  14.724 -0.2488 -1.5381 -0.0940
    2DOPE  C318  255   5.646   3.175  14.645 -0.5526 -0.5267  0.2040
    2DOPE  H18X  256   5.587   3.102  14.586 -0.3724  0.4158 -1.1746
    2DOPE  H18Y  257   5.657   3.269  14.588  0.6322 -1.5699 -1.3818
    2DOPE  H18Z  258   5.743   3.136  14.681 -2.1056 -3.0941  2.0354
    3DOPE     N  259   4.472   5.200  17.444  0.0746  0.1559 -0.1598
    3DOPE   HN1  260   4.463   5.159  17.539  0.6142  0.9670  0.2499
    3DOPE   HN2  261   4.560   5.256  17.442  0.5248 -0.2779  2.8386
    3DOPE   HN3  262   4.403   5.277  17.434 -1.0705 -0.5729  1.6284
    3DOPE   C12  263   4.471   5.100  17.332  0.2154 -0.5608  0.3701
    3DOPE  H12A  264   4.368   5.060  17.323  0.4146 -0.6288 -2.6625
    3DOPE  H12B  265   4.526   5.008  17.362 -0.0007 -1.1123 -0.8714
    3DOPE   C11  266   4.512   5.170  17.199 -0.4882  0.2323 -0.6252
    3DOPE  H11A  267   4.443   5.253  17.174  0.4240  1.0291 -0.5166
    3DOPE  H11B  268   4.499   5.107  17.108 -0.6636 -0.5318 -0.0846
    3DOPE     P  269   4.726   5.279  17.096  0.0867  0.1183  0.0310
    3DOPE   O13  270   4.873   5.271  17.115  0.1181  0.0414  0.0795
    3DOPE   O14  271   4.669   5.412  17.055 -0.1232 -0.2218  0.1419
    3DOPE   O11  272   4.683   5.180  16.978  0.2778  0.2701 -0.5381
    3DOPE   O12  273   4.644   5.218  17.215  0.0884  0.1355 -0.3285
    3DOPE    C1  274   4.737   5.047  16.970 -0.5155  0.0711 -0.2716
    3DOPE    HA  275   4.683   4.983  17.043 -1.2524 -0.1829 -1.0153
    3DOPE    HB  276   4.848   5.043  16.979 -0.6365 -1.8221  0.7809
    3DOPE    C2  277   4.705   4.997  16.829  0.3710 -0.7454 -0.4071
    3DOPE    HS  278   4.755   4.899  16.815  2.5000  0.1931  0.3121
    3DOPE   O21  279   4.737   5.107  16.740 -0.2671  0.5864  0.1693
    3DOPE   C21  280   4.849   5.082  16.671 -0.2519 -0.0863  0.1546
    3DOPE   O22  281   4.927   4.988  16.686 -0.2026  0.1110 -0.1516
    3DOPE   C22  282   4.877   5.200  16.587  0.6934 -0.2025  0.3737
    3DOPE   H2R  283   4.950   5.267  16.639 -0.9815  2.1117 -0.0666
    3DOPE   H2S  284   4.779   5.250  16.571  0.4142 -0.9978 -0.4881
    3DOPE    C3  285   4.552   4.970  16.816  0.3741 -0.5436  0.0365
    3DOPE    HX  286   4.504   5.070  16.815  1.2094 -0.1048 -2.2984
    3DOPE    HY  287   4.518   4.910  16.903  1.4362 -2.4530 -0.7929
    3DOPE   O31  288   4.522   4.924  16.683 -0.4288  0.4361 -0.0206
    3DOPE   C31  289   4.536   4.791  16.683  0.9310 -0.3489  0.3875
    3DOPE   O32  290   4.558   4.720  16.777  0.1753  0.7029 -0.4511
    3DOPE   C32  291   4.522   4.748  16.535 -0.8552 -0.2897 -0.3355
    3DOPE   H2X  292   4.475   4.830  16.477 -1.0198  0.1211  0.3584
    3DOPE   H2Y  293   4.625   4.728  16.497 -0.7978  2.4767 -1.9135
    3DOPE   C23  294   4.928   5.165  16.450 -0.2657 -0.0949  0.4646
    3DOPE   H3R  295   5.029   5.122  16.466  0.7420  2.1679  0.4947
    3DOPE   H3S  296   4.953   5.261  16.400  2.7184 -0.8140  0.3817
    3DOPE   C24  297   4.827   5.086  16.359 -0.2774  0.0815 -0.4958
    3DOPE   H4R  298   4.749   5.151  16.313  0.4228  0.4410 -1.2033
    3DOPE   H4S  299   4.781   5.006  16.420  1.4995  1.1103  2.3855
    3DOPE   C25  300   4.909   5.019  16.245 -0.4300 -0.2945  0.7592
    3DOPE   H5R  301   4.989   4.949  16.280  0.0604 -2.1060 -3.4033
    3DOPE   H5S  302   4.962   5.093  16.182 -1.2016  0.9438  1.5280
    3DOPE   C26  303   4.824   4.939  16.153 -0.2462  0.5937  0.2659
    3DOPE   H6R  304   4.739   5.001  16.117  0.0376  1.3768  0.9104
    3DOPE   H6S  305   4.788   4.854  16.215 -1.3721  1.3420  0.6657
    3DOPE   C27  306   4.895   4.886  16.032 -0.0964  0.0380  0.6985
    3DOPE   H7R  307   4.986   4.825  16.044 -0.4879 -0.3632  1.7514
    3DOPE   H7S  308   4.925   4.982  15.984  0.0540  0.2573  1.2225
    3DOPE   C28  309   4.797   4.812  15.934 -0.5064  0.4931 -0.1572
    3DOPE   H8R  310   4.873   4.787  15.858  1.8928  2.2187  1.5301
    3DOPE   H8S  311   4.723   4.889  15.904 -0.5844  0.5143  0.0828
    3DOPE   C29  312   4.744   4.686  15.993  0.1629  0.4850 -0.3266
    3DOPE   H9R  313   4.702   4.689  16.094 -0.2477 -1.9025 -0.3738
    3DOPE  C210  314   4.748   4.561  15.951  0.8680  0.0118  0.7040
    3DOPE  H10R  315   4.697   4.483  16.009 -2.9845  0.6280 -1.5328
    3DOPE  C211  316   4.789   4.512  15.808  0.0543 -0.0558  0.4417
    3DOPE  H11R  317   4.873   4.440  15.818  0.9305  0.7138 -1.0741
    3DOPE  H11S  318   4.842   4.590  15.750  1.3187 -2.1541 -1.3668
    3DOPE  C212  319   4.677   4.444  15.731 -0.0875 -0.1233  0.0733
    3DOPE  H12R  320   4.684   4.438  15.620  1.9239  2.0477 -0.0242
    3DOPE  H12S  321   4.581   4.498  15.741 -0.6346 -1.0210 -0.2535
    3DOPE  C213  322   4.661   4.304  15.775  0.1589 -0.0657  0.5424
    3DOPE  H13R  323   4.653   4.299  15.886 -0.0409  0.6047  0.5666
    3DOPE  H13S  324   4.751   4.251  15.739 -0.7113  0.7231 -3.1433
    3DOPE  C214  325   4.539   4.236  15.710  0.3760  0.4797  0.3989
    3DOPE  H14R  326   4.540   4.246  15.600  1.3467 -1.2507  0.2159
    3DOPE  H14S  327   4.440   4.279  15.736 -0.4333 -1.5906  0.9442
    3DOPE  C215  328   4.535   4.080  15.719 -0.2125  0.1128 -0.1054
    3DOPE  H15R  329   4.632   4.033  15.695 -0.3169  0.2567 -0.8405
    3DOPE  H15S  330   4.475   4.038  15.635 -0.5137 -0.0446  0.1847
    3DOPE  C216  331   4.492   4.030  15.851 -0.3432 -1.0489 -0.3293
    3DOPE  H16R  332   4.382   4.040  15.863 -0.0605  0.7864  1.3227
    3DOPE  H16S  333   4.525   4.098  15.933 -1.6110  0.6403 -1.1395
    3DOPE  C217  334   4.541   3.890  15.873  0.4082  0.4888  0.5099
    3DOPE  H17R  335   4.647   3.887  15.908  0.2802  2.1387  1.1522
    3DOPE  H17S  336   4.528   3.833  15.779 -1.3515  0.0849  0.9695
    3DOPE  C218  337   4.450   3.821  15.980 -0.3226 -0.0334 -0.7291
    3DOPE  H18R  338   4.462   3.856  16.084 -1.0563 -1.5486 -0.0992
    3DOPE  H18S  339   4.479   3.714  15.982 -1.1627 -0.2645 -0.1072
    3DOPE  H18T  340   4.344   3.821  15.945  0.0124  1.5139 -1.8182
    3DOPE   C33  341   4.429   4.631  16.506 -0.0268 -0.5012  0.4747
    3DOPE   H3X  342   4.322   4.647  16.530 -0.2464 -2.0635  0.6124
    3DOPE   H3Y  343   4.462   4.539  16.558  0.4376  0.5802  2.1943
    3DOPE   C34  344   4.421   4.593  16.358  0.1417  0.5351  0.2580
    3DOPE   H4X  345   4.379   4.689  16.321 -3.0483 -0.6766  0.4285
    3DOPE   H4Y  346   4.529   4.590  16.331 -0.5902  0.1371 -2.9531
    3DOPE   C35  347   4.339   4.461  16.341 -0.5604  0.3209  0.8174
    3DOPE   H5X  348   4.235   4.464  16.379 -0.4323 -0.4278  1.2299
    3DOPE   H5Y  349   4.387   4.387  16.407  2.0793  0.8172 -0.4114
    3DOPE   C36  350   4.327   4.418  16.197 -0.2741 -0.3903 -0.3880
    3DOPE   H6X  351   4.273   4.500  16.144  0.5321  0.2891 -0.1901
    3DOPE   H6Y  352   4.255   4.334  16.200  0.9798 -1.5041  3.2755
    3DOPE   C37  353   4.460   4.396  16.126 -0.6310 -0.4733 -0.5285
    3DOPE   H7X  354   4.446   4.355  16.024  0.8009 -0.8491 -0.5927
    3DOPE   H7Y  355   4.507   4.496  16.115 -1.4782 -0.1666 -1.5933
    3DOPE   C38  356   4.544   4.296  16.204  0.2187  0.0702 -0.5018
    3DOPE   H8X  357   4.567   4.342  16.303 -0.8967 -1.9439  0.7485
    3DOPE   H8Y  358   4.632   4.284  16.137  1.2873  0.6576  0.7369
    3DOPE   C39  359   4.470   4.163  16.240 -0.3948  0.3782  0.5009
    3DOPE   H9X  360   4.374   4.139  16.191  1.1642 -2.7328 -1.3031
    3DOPE  C310  361   4.532   4.065  16.319 -0.5141 -0.4122  0.3768
    3DOPE  H10X  362   4.491   3.964  16.335  0.6322 -1.1229 -0.9211
    3DOPE  C311  363   4.669   4.063  16.383  0.3744  0.5031  0.2993
    3DOPE  H11X  364   4.723   4.154  16.348  1.1661  0.2316  0.7996
    3DOPE  H11Y  365   4.655   4.064  16.493  0.0951  1.5024  0.2670
    3DOPE  C312  366   4.759   3.937  16.356 -0.3209  0.7975  0.2319
    3DOPE  H12X  367   4.709   3.848  16.401 -0.4046  1.1947  0.9253
    3DOPE  H12Y  368   4.853   3.962  16.410 -1.2004  1.1400  1.6350
    3DOPE  C313  369   4.788   3.903  16.211 -0.2348 -0.3676  0.0314
    3DOPE  H13X  370   4.686   3.893  16.166 -1.0492  3.0547  0.7901
    3DOPE  H13Y  371   4.837   3.987  16.157 -0.6470  0.6510  1.1995
    3DOPE  C314  372   4.868   3.773  16.212  0.1944 -0.1329 -0.5541
    3DOPE  H14X  373   4.810   3.701  16.274  3.2291 -0.7308  1.8445
    3DOPE  H14Y  374   4.962   3.783  16.271 -0.2668 -0.0429  0.1848
    3DOPE  C315  375   4.879   3.719  16.067 -0.0626  0.4755 -0.1734
    3DOPE  H15X  376   4.777   3.723  16.023  0.8379  1.1454 -2.3739
    3DOPE  H15Y  377   4.910   3.613  16.076 -1.1336  0.0776 -0.9894
    3DOPE  C316  378   4.979   3.801  15.991  0.2837  0.4291 -0.3956
    3DOPE  H16X  379   5.079   3.797  16.040  0.4491  1.7245 -0.5961
    3DOPE  H16Y  380   4.955   3.909  15.988 -1.4029  0.1784  1.6389
    3DOPE  C317  381   4.999   3.731  15.857  0.3720 -0.2685  0.8014
    3DOPE  H17X  382   5.042   3.631  15.881 -0.6719 -0.3311  2.5650
    3DOPE  H17Y  383   4.902   3.723  15.805 -0.0100  0.0506  1.4464
    3DOPE  C318  384   5.098   3.792  15.753  0.0033  0.5059  0.0276
    3DOPE  H18X  385   5.089   3.717  15.672  1.0108 -1.1855  1.3989
    3DOPE  H18Y  386   5.078   3.899  15.729 -1.8231  0.2742  0.3744
    3DOPE  H18Z  387   5.203   3.784  15.788  1.4831 -0.7940 -4.1061
    4DOPE     N  388   5.109   2.659  16.895  0.4376 -0.1815  0.1792
    4DOPE   HN1  389   5.103   2.622  16.798  0.8100 -2.0841  0.8496
    4DOPE   HN2  390   5.035   2.618  16.954  1.3226 -0.4939  1.1018
    4DOPE   HN3  391   5.087   2.760  16.881 -0.6322 -0.3847  0.3304
    4DOPE   C12  392   5.239   2.634  16.957  0.4660 -0.6230 -0.3573
    4DOPE  H12A  393   5.225   2.558  17.037  1.5865 -0.0114  0.4519
    4DOPE  H12B  394   5.261   2.731  17.005  0.1858 -0.7248 -0.0160
    4DOPE   C11  395   5.347   2.605  16.856 -0.0240 -0.0544  0.4188
    4DOPE  H11A  396   5.447   2.617  16.902 -0.1678  0.2895  0.6454
    4DOPE  H11B  397   5.339   2.679  16.774 -0.7340  1.2410  1.6243
    4DOPE     P  398   5.373   2.346  16.873  0.0934 -0.7777 -0.4285
    4DOPE   O13  399   5.295   2.337  17.003 -0.1193  0.2582  0.5887
    4DOPE   O14  400   5.521   2.347  16.893 -0.2640 -0.1036  0.0369
    4DOPE   O11  401   5.343   2.224  16.780  0.0577  0.0186  0.1894
    4DOPE   O12  402   5.331   2.471  16.802  1.0215 -0.3206  0.1280
    4DOPE    C1  403   5.207   2.211  16.723 -0.3013  0.9927  0.5641
    4DOPE    HA  404   5.142   2.291  16.764 -0.6821 -0.0647  2.0988
    4DOPE    HB  405   5.163   2.116  16.761 -2.8389  1.1989 -1.5649
    4DOPE    C2  406   5.214   2.195  16.560 -0.8223 -0.6374 -0.5057
    4DOPE    HS  407   5.254   2.285  16.508 -0.0029  0.3391  1.6822
    4DOPE   O21  408   5.091   2.154  16.497  0.3806  0.3238  0.3169
    4DOPE   C21  409   5.018   2.260  16.468  0.6926 -0.3366  0.1004
    4DOPE   O22  410   5.038   2.377  16.501 -0.0274  0.3801 -0.6841
    4DOPE   C22  411   4.899   2.218  16.381  0.3142 -0.0164 -0.3665
    4DOPE   H2R  412   4.878   2.110  16.392 -1.4010  0.5027  2.3122
    4DOPE   H2S  413   4.926   2.251  16.278 -0.8948  0.2128 -0.6320
    4DOPE    C3  414   5.316   2.080  16.531 -0.0589  0.3767  0.1826
    4DOPE    HX  415   5.279   1.983  16.570  0.2040 -0.3549 -1.2773
    4DOPE    HY  416   5.411   2.100  16.585  1.3207  0.9561 -2.2675
    4DOPE   O31  417   5.335   2.063  16.390  0.9918 -0.4390  0.4703
    4DOPE   C31  418   5.461   2.059  16.352 -0.0718  0.1789  0.6455
    4DOPE   O32  419   5.561   2.077  16.421 -0.1333  0.3117  0.8392
    4DOPE   C32  420   5.466   2.053  16.200  0.9801 -0.3839 -0.0868
    4DOPE   H2X  421   5.410   1.972  16.147  0.4859  0.6428 -1.1904
    4DOPE   H2Y  422   5.418   2.147  16.165 -1.4739 -2.5334 -3.0475
    4DOPE   C23  423   4.774   2.294  16.428 -0.5107  0.4687 -0.0062
    4DOPE   H3R  424   4.805   2.395  16.463 -0.7194  0.4248  0.3018
    4DOPE   H3S  425   4.736   2.253  16.523  2.4918  1.0391  1.5608
    4DOPE   C24  426   4.669   2.292  16.325  0.8896 -0.8508  1.0993
    4DOPE   H4R  427   4.569   2.301  16.373  0.0582 -2.0895 -0.3099
    4DOPE   H4S  428   4.666   2.190  16.279 -1.1392 -0.6496  0.6478
    4DOPE   C25  429   4.678   2.394  16.207 -0.1110 -0.2391 -0.2332
    4DOPE   H5R  430   4.767   2.384  16.142  1.4809 -0.0251  1.8023
    4DOPE   H5S  431   4.697   2.491  16.258 -1.7426  0.0018 -0.0363
    4DOPE   C26  432   4.554   2.404  16.110 -0.2641  0.2368 -0.3391
    4DOPE   H6R  433   4.580   2.463  16.020 -0.8748 -1.7831 -1.9103
    4DOPE   H6S  434   4.467   2.452  16.160 -0.6774 -2.0400  1.2747
    4DOPE   C27  435   4.517   2.261  16.057  0.1442 -0.5582 -0.4955
    4DOPE   H7R  436   4.416   2.275  16.013 -1.5568 -1.9598  2.6191
    4DOPE   H7S  437   4.493   2.181  16.130  1.5804  1.3097  2.1983
    4DOPE   C28  438   4.612   2.203  15.957 -0.5532  0.3613  0.4592
    4DOPE   H8R  439   4.705   2.176  16.010 -1.3095  0.5949  1.9447
    4DOPE   H8S  440   4.639   2.286  15.889 -0.0387 -0.8513 -0.8897
    4DOPE   C29  441   4.547   2.085  15.887  0.3677 -0.4372  0.0362
    4DOPE   H9R  442   4.468   2.034  15.944  0.0355  0.2171  0.1733
    4DOPE  C210  443   4.557   2.054  15.761 -0.3649  0.7779  0.2384
    4DOPE  H10R  444   4.494   1.978  15.712  1.6060  0.7531 -2.4831
    4DOPE  C211  445   4.645   2.122  15.659  0.3508  0.2444 -0.3805
    4DOPE  H11R  446   4.706   2.208  15.694  1.3336 -0.5258 -0.1641
    4DOPE  H11S  447   4.578   2.172  15.586 -1.7885  1.3253  2.1556
    4DOPE  C212  448   4.753   2.041  15.585 -0.1844  0.3387  0.2646
    4DOPE  H12R  449   4.831   2.001  15.653 -0.2669  1.0481  0.7849
    4DOPE  H12S  450   4.800   2.109  15.510  1.1959  0.7785  1.4884
    4DOPE  C213  451   4.698   1.917  15.511  0.4850 -0.3945 -0.1912
    4DOPE  H13R  452   4.634   1.946  15.425  0.4838  0.4891  0.0896
    4DOPE  H13S  453   4.636   1.871  15.591 -0.5021 -0.0554 -0.7498
    4DOPE  C214  454   4.799   1.816  15.474  0.9950 -0.0859 -0.3169
    4DOPE  H14R  455   4.838   1.779  15.571  0.1031  3.3212  1.4943
    4DOPE  H14S  456   4.887   1.861  15.423  0.2275 -0.1827 -1.7658
    4DOPE  C215  457   4.737   1.696  15.391 -0.2142 -0.2192 -0.7657
    4DOPE  H15R  458   4.721   1.725  15.285  1.0701  0.2379 -0.8594
    4DOPE  H15S  459   4.637   1.671  15.431 -0.5849  1.6061 -0.4665
    4DOPE  C216  460   4.831   1.576  15.392 -0.6638  0.3973  0.1995
    4DOPE  H16R  461   4.842   1.551  15.500 -1.9387 -1.2388 -0.0186
    4DOPE  H16S  462   4.926   1.610  15.344  0.3674 -0.0827  1.8199
    4DOPE  C217  463   4.765   1.446  15.324  0.4180 -0.5936 -0.6657
    4DOPE  H17R  464   4.663   1.428  15.364 -0.2258  1.7924 -1.0821
    4DOPE  H17S  465   4.840   1.372  15.359  1.9187  1.1735  0.0472
    4DOPE  C218  466   4.768   1.456  15.172  0.1205 -0.0438  0.1756
    4DOPE  H18R  467   4.875   1.459  15.145 -0.5486  1.8438 -2.7828
    4DOPE  H18S  468   4.713   1.541  15.125  0.2680  0.4049  0.7990
    4DOPE  H18T  469   4.719   1.370  15.121 -0.5558  0.5655 -0.2324
    4DOPE   C33  470   5.609   2.057  16.152 -0.1207  0.0705  0.5621
    4DOPE   H3X  471   5.647   1.953  16.164 -1.8032 -0.5423  0.9999
    4DOPE   H3Y  472   5.665   2.125  16.219 -2.0788  1.4325  0.8949
    4DOPE   C34  473   5.641   2.097  16.005  0.3978  0.3842  0.2653
    4DOPE   H4X  474   5.609   2.202  15.988 -0.5767  0.1844  0.7948
    4DOPE   H4Y  475   5.749   2.106  15.982  0.0861  0.2313 -1.3446
    4DOPE   C35  476   5.590   1.993  15.900  0.7793 -0.4195 -0.4200
    4DOPE   H5X  477   5.482   1.976  15.915  0.9405  1.1348  3.8476
    4DOPE   H5Y  478   5.647   1.899  15.919  0.2833 -0.3085  1.9153
    4DOPE   C36  479   5.616   2.048  15.757 -0.1016  0.1611  0.5871
    4DOPE   H6X  480   5.723   2.076  15.743  0.1428 -0.3527  1.3381
    4DOPE   H6Y  481   5.555   2.139  15.742 -1.1143 -0.0316  3.0619
    4DOPE   C37  482   5.568   1.947  15.656 -0.0187  0.1506 -0.4193
    4DOPE   H7X  483   5.634   1.857  15.657 -1.2064 -0.8080  2.8936
    4DOPE   H7Y  484   5.461   1.922  15.670  0.4291 -0.5870  2.3096
    4DOPE   C38  485   5.595   2.000  15.513  0.1170 -0.7602  0.2469
    4DOPE   H8X  486   5.523   2.079  15.482  0.1302  0.4905  3.1256
    4DOPE   H8Y  487   5.572   1.911  15.450  1.3312 -0.4537 -0.6587
    4DOPE   C39  488   5.737   2.058  15.485 -0.5804 -0.1483 -0.1819
    4DOPE   H9X  489   5.819   2.021  15.549  1.3902  0.2997 -2.3051
    4DOPE  C310  490   5.787   2.139  15.387  0.4295 -0.3936 -0.1348
    4DOPE  H10X  491   5.890   2.178  15.389  0.7028 -1.1017  0.1762
    4DOPE  C311  492   5.705   2.176  15.267  0.3969  0.2153 -0.0060
    4DOPE  H11X  493   5.618   2.111  15.242  0.0220  0.7154 -0.0270
    4DOPE  H11Y  494   5.651   2.272  15.279 -2.2310 -1.1592 -0.1126
    4DOPE  C312  495   5.784   2.198  15.139  0.0120  0.2847  0.2977
    4DOPE  H12X  496   5.849   2.110  15.120 -0.9459 -0.4022  0.1678
    4DOPE  H12Y  497   5.862   2.277  15.152  1.2777 -1.3419  3.4715
    4DOPE  C313  498   5.689   2.218  15.021  0.5132  0.3248  0.5924
    4DOPE  H13X  499   5.603   2.148  15.024  0.4516  0.4304  1.6773
    4DOPE  H13Y  500   5.656   2.325  15.020 -1.3027 -0.2027  0.1621
    4DOPE  C314  501   5.763   2.193  14.885  0.4056  0.4873 -0.5572
    4DOPE  H14X  502   5.801   2.089  14.895 -1.9769 -0.2906  1.4850
    4DOPE  H14Y  503   5.851   2.260  14.876  0.1049  0.7441 -1.7630
    4DOPE  C315  504   5.684   2.201  14.754  0.7599 -0.4435 -0.1676
    4DOPE  H15X  505   5.635   2.301  14.754 -0.9689 -1.2433  0.2728
    4DOPE  H15Y  506   5.593   2.137  14.745 -0.8966  1.7976 -0.2886
    4DOPE  C316  507   5.766   2.187  14.628  0.4816  0.0335  0.8104
    4DOPE  H16X  508   5.845   2.109  14.634  1.6216  0.9752 -1.1254
    4DOPE  H16Y  509   5.818   2.284  14.612  1.4248 -0.6767 -0.5928
    4DOPE  C317  510   5.671   2.158  14.502  0.0413 -0.4869 -0.1503
    4DOPE  H17X  511   5.728   2.146  14.407 -1.2648  0.0303 -1.0270
    4DOPE  H17Y  512   5.617   2.066  14.534 -0.3726 -0.5806 -1.0894
    4DOPE  C318  513   5.564   2.272  14.479 -0.2222  0.0655 -0.3083
    4DOPE  H18X  514   5.490   2.280  14.562  1.6767  0.1559  1.4339
    4DOPE  H18Y  515   5.611   2.373  14.473  0.7504 -0.0616  3.0613
    4DOPE  H18Z  516   5.502   2.261  14.387 -1.0793  1.6534  0.0248
    5DOPE     N  517   3.204   4.447  17.362  0.6718 -0.0540  0.0362
    5DOPE   HN1  518   3.271   4.484  17.292  0.7218 -1.5103 -0.7402
    5DOPE   HN2  519   3.126   4.513  17.375  0.1958 -0.3832 -1.0293
    5DOPE   HN3  520   3.262   4.444  17.449  1.6898  1.7759 -0.5255
    5DOPE   C12  521   3.152   4.308  17.340  0.5014 -0.4810  0.0636
    5DOPE  H12A  522   3.108   4.309  17.238  1.4687  3.6635 -0.4887
    5DOPE  H12B  523   3.075   4.285  17.417  0.2898  2.1788  0.7465
    5DOPE   C11  524   3.265   4.200  17.344 -0.7165 -0.0774 -0.1602
    5DOPE  H11A  525   3.320   4.226  17.437 -2.5914 -1.7386  1.4868
    5DOPE  H11B  526   3.335   4.205  17.258 -2.4133 -1.0754 -1.6557
    5DOPE     P  527   3.146   4.007  17.204 -0.3569  0.2610  0.0578
    5DOPE   O13  528   3.002   4.043  17.205 -0.1907 -0.6967 -0.1763
    5DOPE   O14  529   3.186   3.867  17.185 -0.0748 -0.5183 -0.0480
    5DOPE   O11  530   3.213   4.097  17.095 -0.2992 -0.1612  0.2206
    5DOPE   O12  531   3.208   4.070  17.332  0.3086  0.4415 -0.0236
    5DOPE    C1  532   3.319   4.044  17.017 -0.8518  0.4252  0.6924
    5DOPE    HA  533   3.273   3.988  16.932 -2.0890 -0.5897  1.9781
    5DOPE    HB  534   3.382   3.977  17.078 -0.7788  0.0018  0.1633
    5DOPE    C2  535   3.406   4.166  16.968  0.1113 -0.3378 -0.5477
    5DOPE    HS  536   3.427   4.228  17.058 -2.1045  2.7970 -2.0012
    5DOPE   O21  537   3.326   4.237  16.868  0.1484 -0.3419  0.7277
    5DOPE   C21  538   3.354   4.365  16.856  0.1015  0.1293 -0.4870
    5DOPE   O22  539   3.442   4.421  16.918 -0.4055  0.7382  0.9683
    5DOPE   C22  540   3.260   4.425  16.759  0.4049 -0.3725  0.2339
    5DOPE   H2R  541   3.157   4.426  16.802 -0.0355 -2.2524 -0.6914
    5DOPE   H2S  542   3.249   4.365  16.667  1.1306 -1.1678  0.6499
    5DOPE    C3  543   3.549   4.131  16.910 -0.1687  0.0975 -0.5978
    5DOPE    HX  544   3.608   4.083  16.991 -0.3893 -3.3653 -2.2878
    5DOPE    HY  545   3.598   4.227  16.883 -0.8745  0.7609  0.4409
    5DOPE   O31  546   3.537   4.035  16.800 -0.2693 -0.3444  0.0613
    5DOPE   C31  547   3.519   4.089  16.685  0.4466 -0.1959  0.2680
    5DOPE   O32  548   3.531   4.210  16.654  0.0582  0.3488 -0.5329
    5DOPE   C32  549   3.489   3.981  16.588  0.3615 -0.5106  0.2479
    5DOPE   H2X  550   3.555   3.893  16.601  0.2287 -0.3080  2.7946
    5DOPE   H2Y  551   3.387   3.950  16.619  0.1312  0.0747  0.0779
    5DOPE   C23  552   3.306   4.570  16.727 -0.0246 -0.1480 -0.3666
    5DOPE   H3R  553   3.415   4.571  16.704  0.4044 -0.4763  1.5218
    5DOPE   H3S  554   3.293   4.630  16.819  1.7281  0.1505 -0.2683
    5DOPE   C24  555   3.233   4.650  16.621  0.9541 -0.2322 -0.2174
    5DOPE   H4R  556   3.255   4.758  16.634 -0.4261  0.1269 -0.6945
    5DOPE   H4S  557   3.123   4.637  16.631  1.0347 -1.4571 -0.7037
    5DOPE   C25  558   3.264   4.616  16.469  0.0683 -0.7242  0.3236
    5DOPE   H5R  559   3.255   4.506  16.459 -2.1348 -0.7163  1.3671
    5DOPE   H5S  560   3.363   4.652  16.433  0.7246 -1.8137  0.9963
    5DOPE   C26  561   3.146   4.679  16.381  0.5221  0.1176 -0.6167
    5DOPE   H6R  562   3.128   4.776  16.432  1.3687  0.4001 -0.8252
    5DOPE   H6S  563   3.051   4.623  16.388 -0.0808  1.0965 -0.8536
    5DOPE   C27  564   3.196   4.685  16.237  0.2808 -0.1395 -0.2586
    5DOPE   H7R  565   3.220   4.587  16.189 -0.5653 -0.9728  0.9544
    5DOPE   H7S  566   3.292   4.740  16.236  0.9842 -1.1620  2.7635
    5DOPE   C28  567   3.100   4.755  16.144  0.0489 -0.8685  0.1834
    5DOPE   H8R  568   3.068   4.854  16.181  1.2113  0.4716 -2.1816
    5DOPE   H8S  569   3.008   4.693  16.154 -1.0418  0.6813  0.1124
    5DOPE   C29  570   3.151   4.762  16.003 -0.7815  0.1519  0.2198
    5DOPE   H9R  571   3.257   4.734  15.990 -0.6594  0.6297  0.1498
    5DOPE  C210  572   3.079   4.781  15.891 -0.1893  0.0148 -0.6406
    5DOPE  H10R  573   3.132   4.766  15.795 -0.5442 -1.4725 -0.6402
    5DOPE  C211  574   2.932   4.810  15.883 -0.6564  0.1673  0.0516
    5DOPE  H11R  575   2.914   4.919  15.894  0.9940  0.3778  1.0078
    5DOPE  H11S  576   2.889   4.752  15.967 -0.0281  0.1004  0.3343
    5DOPE  C212  577   2.889   4.759  15.749 -0.2203 -0.1214 -0.7630
    5DOPE  H12R  578   2.780   4.779  15.755  0.1231  1.7531  4.1543
    5DOPE  H12S  579   2.900   4.648  15.749  1.2899  0.0103 -1.7000
    5DOPE  C213  580   2.946   4.820  15.620 -0.5773 -0.2261 -0.4200
    5DOPE  H13R  581   3.047   4.777  15.603 -0.4035 -1.2069  2.4353
    5DOPE  H13S  582   2.968   4.927  15.640 -0.1358 -0.5659  1.0356
    5DOPE  C214  583   2.856   4.796  15.500  0.0004 -0.2322  0.5775
    5DOPE  H14R  584   2.756   4.841  15.520  0.1471  0.5413 -0.3469
    5DOPE  H14S  585   2.841   4.689  15.476 -4.6334  0.2150  0.6055
    5DOPE  C215  586   2.926   4.862  15.382 -0.8342 -0.5330  0.0721
    5DOPE  H15R  587   3.031   4.824  15.379 -0.2907  0.4632  2.8612
    5DOPE  H15S  588   2.930   4.972  15.395  0.2110 -0.4625 -0.6901
    5DOPE  C216  589   2.854   4.835  15.257 -0.0570 -0.5602 -0.2433
    5DOPE  H16R  590   2.826   4.727  15.251 -2.4921  0.0531 -1.1093
    5DOPE  H16S  591   2.923   4.858  15.172 -0.2875  2.3662  0.2716
    5DOPE  C217  592   2.726   4.914  15.238 -0.8721 -0.6823 -0.4091
    5DOPE  H17R  593   2.753   5.022  15.244 -0.4455 -0.8358  0.5376
    5DOPE  H17S  594   2.652   4.895  15.319  0.0521  1.7354  1.1131
    5DOPE  C218  595   2.664   4.885  15.103 -0.5013 -0.3128  0.4335
    5DOPE  H18R  596   2.580   4.952  15.076 -0.9876 -0.1947  2.1220
    5DOPE  H18S  597   2.615   4.787  15.120 -1.4584  0.2629  1.0603
    5DOPE  H18T  598   2.734   4.891  15.017 -0.2915  0.5416  0.6523
    5DOPE   C33  599   3.502   4.027  16.441 -0.0553 -0.1269 -0.1704
    5DOPE   H3X  600   3.609   4.054  16.425  0.2366 -0.0598  1.6723
    5DOPE   H3Y  601   3.445   4.122  16.427 -1.6729 -0.9380  0.6573
    5DOPE   C34  602   3.463   3.915  16.344 -0.5543 -0.2241  0.5938
    5DOPE   H4X  603   3.512   3.815  16.354  1.0260  0.5116  0.4742
    5DOPE   H4Y  604   3.355   3.904  16.364 -0.7282 -0.7158 -0.5427
    5DOPE   C35  605   3.470   3.958  16.197 -0.5339  0.0557  0.1061
    5DOPE   H5X  606   3.422   3.879  16.135  0.1893 -0.9856  0.8124
    5DOPE   H5Y  607   3.577   3.964  16.167 -0.4299 -0.1575  0.4234
    5DOPE   C36  608   3.415   4.092  16.159 -0.1876  0.0016  0.1638
    5DOPE   H6X  609   3.422   4.101  16.049 -1.3155 -1.4218 -0.0443
    5DOPE   H6Y  610   3.481   4.168  16.206  1.4399 -1.4589  0.3442
    5DOPE   C37  611   3.274   4.124  16.207  0.7717  0.0626  0.7815
    5DOPE   H7X  612   3.209   4.050  16.155 -0.9481  1.6915  0.5211
    5DOPE   H7Y  613   3.272   4.098  16.315  2.7705  2.6657  1.5495
    5DOPE   C38  614   3.233   4.272  16.171  0.2221 -0.2020 -0.1218
    5DOPE   H8X  615   3.248   4.295  16.063 -0.4929  2.2232  0.2315
    5DOPE   H8Y  616   3.303   4.348  16.212  0.9581 -0.5224 -0.7547
    5DOPE   C39  617   3.085   4.291  16.203  0.4152  0.2905 -1.0170
    5DOPE   H9X  618   3.063   4.266  16.308 -0.0699 -1.0145 -1.3972
    5DOPE  C310  619   2.991   4.344  16.122 -0.2565 -0.0921  0.0162
    5DOPE  H10X  620   2.892   4.372  16.162  0.8456  3.7264  0.4556
    5DOPE  C311  621   3.005   4.376  15.976  0.5091  0.1948  0.3676
    5DOPE  H11X  622   3.010   4.486  15.960 -2.2327  0.1241 -1.7594
    5DOPE  H11Y  623   3.103   4.336  15.942 -0.3558 -1.0108 -0.8128
    5DOPE  C312  624   2.894   4.320  15.882  0.8751 -0.1919 -0.2098
    5DOPE  H12X  625   2.907   4.211  15.866  1.8319 -0.0515 -0.4095
    5DOPE  H12Y  626   2.920   4.366  15.785  3.6924  0.0935  0.5844
    5DOPE  C313  627   2.747   4.359  15.921 -0.3196 -0.0019  0.1625
    5DOPE  H13X  628   2.714   4.297  16.007  0.9469 -0.6643  0.2063
    5DOPE  H13Y  629   2.751   4.467  15.949 -0.1227  0.4455 -1.4911
    5DOPE  C314  630   2.649   4.333  15.804  0.0626  0.0240 -0.7218
    5DOPE  H14X  631   2.545   4.335  15.844  0.8858  0.5332  1.5013
    5DOPE  H14Y  632   2.667   4.230  15.764  0.4875 -0.2477  0.1452
    5DOPE  C315  633   2.660   4.431  15.689  0.3468 -0.2128  0.3038
    5DOPE  H15X  634   2.766   4.436  15.657  0.4065  3.2224  0.6508
    5DOPE  H15Y  635   2.619   4.529  15.724  0.9271 -0.0833  0.6347
    5DOPE  C316  636   2.595   4.393  15.553 -0.1219 -0.4232 -0.0698
    5DOPE  H16X  637   2.487   4.415  15.566  0.0374  0.8369 -0.7841
    5DOPE  H16Y  638   2.588   4.283  15.537 -1.0000 -0.1559 -1.8073
    5DOPE  C317  639   2.653   4.473  15.434  0.0521  0.4316 -0.3388
    5DOPE  H17X  640   2.623   4.580  15.447 -2.9594 -0.4346  0.7035
    5DOPE  H17Y  641   2.763   4.466  15.429  0.0847  0.3992  0.3954
    5DOPE  C318  642   2.594   4.418  15.305  0.8515  0.2974  0.6732
    5DOPE  H18X  643   2.483   4.416  15.301  0.8412 -3.1294 -1.4642
    5DOPE  H18Y  644   2.623   4.477  15.215 -1.9017  0.8275  0.0505
    5DOPE  H18Z  645   2.612   4.310  15.286 -0.1880  0.4806 -1.7933
    6DOPE     N  646   3.739   4.574  16.926  0.3438 -0.1313 -0.1508
    6DOPE   HN1  647   3.757   4.504  17.000  1.4864  2.3108  2.0452
    6DOPE   HN2  648   3.679   4.649  16.966  0.4235  0.3288 -0.8702
    6DOPE   HN3  649   3.687   4.532  16.846  0.1040  0.2594 -0.2017
    6DOPE   C12  650   3.877   4.611  16.887 -0.0437 -0.6178  0.6629
    6DOPE  H12A  651   3.873   4.691  16.810 -0.5196 -0.1137  1.2037
    6DOPE  H12B  652   3.929   4.522  16.846  2.2805  0.3111  1.4178
    6DOPE   C11  653   3.954   4.667  17.013  0.9281  0.6755  0.6271
    6DOPE  H11A  654   4.057   4.700  16.988  0.5651  0.7695 -0.8035
    6DOPE  H11B  655   3.964   4.579  17.080 -0.0757 -0.9433 -1.2518
    6DOPE     P  656   3.877   4.914  17.062  0.4657 -0.1709 -0.0316
    6DOPE   O13  657   3.963   4.989  17.159  0.3683  0.2188  0.2447
    6DOPE   O14  658   3.732   4.948  17.049 -0.3432 -0.2216 -0.3387
    6DOPE   O11  659   3.939   4.928  16.917 -0.1309  0.1796 -0.4368
    6DOPE   O12  660   3.881   4.760  17.089  0.2881  0.4229 -0.1202
    6DOPE    C1  661   3.906   5.047  16.835 -0.4501  0.0505  1.1758
    6DOPE    HA  662   3.995   5.115  16.832 -0.2603 -0.1853  1.3795
    6DOPE    HB  663   3.825   5.111  16.877  0.0316  0.4192  1.5715
    6DOPE    C2  664   3.882   5.009  16.688 -0.9900 -0.1827 -1.0789
    6DOPE    HS  665   3.858   5.097  16.624  0.6026  0.2294 -1.1383
    6DOPE   O21  666   3.784   4.899  16.682  0.0800  0.0908 -0.5716
    6DOPE   C21  667   3.660   4.941  16.700 -0.2559 -0.8651  0.4040
    6DOPE   O22  668   3.632   5.057  16.719 -0.2316 -0.5792  0.0009
    6DOPE   C22  669   3.565   4.836  16.649  0.5421 -0.7701  0.1937
    6DOPE   H2R  670   3.460   4.855  16.681  0.5282  1.9762 -1.2320
    6DOPE   H2S  671   3.593   4.745  16.707 -0.4665  0.5864  3.0007
    6DOPE    C3  672   4.006   4.961  16.616 -0.7146  0.4235  0.5451
    6DOPE    HX  673   3.967   4.935  16.516 -0.6272 -1.4144  0.9594
    6DOPE    HY  674   4.047   4.872  16.667  0.2648  0.7742  0.3859
    6DOPE   O31  675   4.105   5.064  16.613 -0.2709  0.0753  0.4291
    6DOPE   C31  676   4.203   5.035  16.529 -0.1038 -0.7073 -0.5413
    6DOPE   O32  677   4.210   4.928  16.468 -0.2832 -0.4446 -0.0032
    6DOPE   C32  678   4.288   5.160  16.514  0.3415 -0.8764 -0.9791
    6DOPE   H2X  679   4.227   5.252  16.510 -1.4371 -1.8966  1.1366
    6DOPE   H2Y  680   4.361   5.150  16.597  0.2737 -2.4465 -1.0773
    6DOPE   C23  681   3.581   4.814  16.496  0.5309 -0.0649 -0.4308
    6DOPE   H3R  682   3.551   4.708  16.485 -0.4734 -0.0716  1.7656
    6DOPE   H3S  683   3.691   4.815  16.476  0.5016 -0.1792 -0.6048
    6DOPE   C24  684   3.516   4.915  16.400  1.2373 -0.5823 -0.4243
    6DOPE   H4R  685   3.563   5.015  16.415 -3.7110  1.9309  0.1606
    6DOPE   H4S  686   3.409   4.931  16.424  0.8632 -1.2785 -1.5436
    6DOPE   C25  687   3.544   4.889  16.248  0.5730  0.0971 -0.2378
    6DOPE   H5R  688   3.505   4.791  16.211  2.5750 -0.1553 -1.8695
    6DOPE   H5S  689   3.651   4.895  16.221  0.9452 -4.0994 -0.3644
    6DOPE   C26  690   3.473   4.994  16.159  0.4956  0.5830 -0.1721
    6DOPE   H6R  691   3.497   5.100  16.181 -0.9813  0.6412  1.4000
    6DOPE   H6S  692   3.362   4.987  16.166  0.6180  0.1780  1.7980
    6DOPE   C27  693   3.518   4.953  16.019 -0.5799 -0.4985  0.1959
    6DOPE   H7R  694   3.458   4.862  15.994  0.0018 -0.6851 -0.5789
    6DOPE   H7S  695   3.628   4.937  16.023 -0.1904  1.8728  0.1833
    6DOPE   C28  696   3.482   5.062  15.912  0.6542 -0.0627 -0.2484
    6DOPE   H8R  697   3.536   5.155  15.940  1.6976 -0.8729  0.5571
    6DOPE   H8S  698   3.372   5.071  15.912  0.4784 -1.0794 -3.4457
    6DOPE   C29  699   3.531   5.019  15.779 -0.2980 -0.0752 -0.1736
    6DOPE   H9R  700   3.641   5.008  15.779 -0.3409 -0.5503  0.1989
    6DOPE  C210  701   3.458   4.993  15.671  0.4722 -0.7003  0.1709
    6DOPE  H10R  702   3.520   4.958  15.587  2.0945 -0.7943  1.3620
    6DOPE  C211  703   3.305   4.994  15.656 -1.5674 -0.3163 -0.0532
    6DOPE  H11R  704   3.248   5.003  15.751 -1.6039 -0.3119 -0.0760
    6DOPE  H11S  705   3.270   4.892  15.629 -0.5009 -0.2404 -1.9281
    6DOPE  C212  706   3.240   5.080  15.546 -0.3796 -0.3053 -0.3874
    6DOPE  H12R  707   3.286   5.181  15.551 -0.9490 -0.0756  0.3893
    6DOPE  H12S  708   3.130   5.096  15.558 -0.0931  1.4766  0.2366
    6DOPE  C213  709   3.268   5.025  15.410 -0.8219  0.3377  0.5727
    6DOPE  H13R  710   3.244   4.916  15.417  3.0812 -0.6635  0.6154
    6DOPE  H13S  711   3.377   5.032  15.389 -0.8841 -2.2768 -1.1832
    6DOPE  C214  712   3.197   5.087  15.281 -0.2616 -0.7664 -0.7447
    6DOPE  H14R  713   3.231   5.193  15.275 -0.8421 -0.4373  1.2265
    6DOPE  H14S  714   3.087   5.096  15.290 -0.0431 -0.3932  2.6440
    6DOPE  C215  715   3.244   5.013  15.157  0.3198  0.3871  0.0852
    6DOPE  H15R  716   3.218   4.905  15.157  0.5699  0.3233 -0.1701
    6DOPE  H15S  717   3.355   5.022  15.153  0.1876  2.4770  0.2752
    6DOPE  C216  718   3.177   5.069  15.026  0.6110 -0.2900  0.2081
    6DOPE  H16R  719   3.207   5.176  15.022  0.5895 -0.2079  1.5582
    6DOPE  H16S  720   3.067   5.061  15.025  0.5916 -0.0822  0.4283
    6DOPE  C217  721   3.232   5.004  14.900 -0.5118  0.1138  0.5091
    6DOPE  H17R  722   3.188   4.903  14.889  0.4987 -0.5126  1.8969
    6DOPE  H17S  723   3.343   5.003  14.910 -0.5036 -1.0177  0.4297
    6DOPE  C218  724   3.198   5.078  14.769 -0.4387  0.3140 -1.0884
    6DOPE  H18R  725   3.266   5.166  14.764 -0.8872  0.6807 -0.7419
    6DOPE  H18S  726   3.092   5.110  14.759 -0.2063  2.2592  1.6620
    6DOPE  H18T  727   3.225   5.016  14.680  0.2971 -2.1994  0.7575
    6DOPE   C33  728   4.363   5.150  16.381  0.0623 -0.2646  0.2572
    6DOPE   H3X  729   4.403   5.048  16.366  2.1038  0.4316  0.5941
    6DOPE   H3Y  730   4.448   5.222  16.388  0.3029 -0.6816  2.2866
    6DOPE   C34  731   4.282   5.199  16.255  0.3628 -0.5969 -0.3946
    6DOPE   H4X  732   4.195   5.130  16.246 -0.8218  0.5468  1.7139
    6DOPE   H4Y  733   4.248   5.304  16.265  0.9569 -0.4925  0.5678
    6DOPE   C35  734   4.360   5.196  16.122  1.0528 -0.3297  0.5031
    6DOPE   H5X  735   4.436   5.278  16.123  2.6510 -1.7505  1.0510
    6DOPE   H5Y  736   4.282   5.208  16.044  1.6800  0.4267 -0.0256
    6DOPE   C36  737   4.424   5.064  16.090 -0.2216  0.3884 -0.0541
    6DOPE   H6X  738   4.496   5.037  16.170 -1.3411  2.1914  1.6797
    6DOPE   H6Y  739   4.477   5.086  15.995  0.2100 -0.7963 -0.0942
    6DOPE   C37  740   4.320   4.957  16.073 -0.0450  0.0823  0.2114
    6DOPE   H7X  741   4.257   4.954  16.164  0.8459 -1.6155  0.8039
    6DOPE   H7Y  742   4.258   4.994  15.988 -0.5966  0.9411  0.9679
    6DOPE   C38  743   4.366   4.816  16.059  0.8439 -0.6120  0.4454
    6DOPE   H8X  744   4.283   4.746  16.084  0.2922  0.4570  1.7090
    6DOPE   H8Y  745   4.438   4.784  16.137 -0.6288 -2.2276  1.2048
    6DOPE   C39  746   4.422   4.785  15.921  0.1637 -0.2943  0.1061
    6DOPE   H9X  747   4.488   4.866  15.886 -0.0960 -0.6666 -1.3193
    6DOPE  C310  748   4.356   4.712  15.830 -0.7087  0.7782  0.2454
    6DOPE  H10X  749   4.405   4.687  15.735 -0.1261  0.6200  0.5827
    6DOPE  C311  750   4.247   4.610  15.854  0.2444  0.1032 -0.5251
    6DOPE  H11X  751   4.278   4.543  15.937  1.4057  2.2546  0.8891
    6DOPE  H11Y  752   4.160   4.667  15.893  0.1876  0.3983 -1.0745
    6DOPE  C312  753   4.196   4.549  15.718  0.3344 -0.5518  0.2378
    6DOPE  H12X  754   4.118   4.478  15.753 -0.8992  0.3629 -0.6154
    6DOPE  H12Y  755   4.277   4.494  15.665 -0.7659 -1.6478 -0.3518
    6DOPE  C313  756   4.141   4.656  15.622  0.5253  0.5891  0.3312
    6DOPE  H13X  757   4.088   4.731  15.685  1.8893  1.3926  0.5455
    6DOPE  H13Y  758   4.220   4.719  15.577  0.7309  0.7383  0.8878
    6DOPE  C314  759   4.048   4.582  15.527 -0.6623  0.1063  0.0138
    6DOPE  H14X  760   3.966   4.535  15.585 -0.0441  0.4616  1.2055
    6DOPE  H14Y  761   4.113   4.500  15.489  1.0083  0.7063  1.4298
    6DOPE  C315  762   3.992   4.671  15.409 -0.2906 -0.1101  0.4189
    6DOPE  H15X  763   3.918   4.742  15.451 -0.4538 -0.3442  0.5320
    6DOPE  H15Y  764   3.937   4.611  15.333 -0.7913  3.0684 -1.9423
    6DOPE  C316  765   4.101   4.750  15.336 -0.7304 -0.2808 -0.7834
    6DOPE  H16X  766   4.183   4.686  15.298 -1.1198 -0.5922 -1.1123
    6DOPE  H16Y  767   4.140   4.824  15.409 -0.1541  0.1660 -1.5413
    6DOPE  C317  768   4.050   4.833  15.221 -0.3667  0.3808  0.3721
    6DOPE  H17X  769   3.960   4.890  15.253  0.0032  0.8447  0.5836
    6DOPE  H17Y  770   4.120   4.912  15.188  0.7110 -0.2968  0.9605
    6DOPE  C318  771   4.007   4.736  15.102 -0.0977 -1.1769 -0.1359
    6DOPE  H18X  772   3.924   4.669  15.133  0.8765 -1.7588  1.3011
    6DOPE  H18Y  773   3.973   4.798  15.016 -1.7962 -0.7717  0.7848
    6DOPE  H18Z  774   4.097   4.676  15.080  1.9953  1.7816 -0.2446
    7DOPE     N  775   5.129   5.226  17.069 -0.9510  0.0468 -0.1108
    7DOPE   HN1  776   5.030   5.244  17.093 -0.8972  1.9471 -1.1475
    7DOPE   HN2  777   5.165   5.315  17.029  1.4215 -0.4974  0.6450
    7DOPE   HN3  778   5.121   5.149  17.000 -1.3846 -1.1850  1.2639
    7DOPE   C12  779   5.208   5.184  17.193 -0.4395 -0.0984  0.5289
    7DOPE  H12A  780   5.159   5.090  17.227 -1.0200 -0.4675 -1.2069
    7DOPE  H12B  781   5.194   5.270  17.263 -0.3187 -0.2245  0.7087
    7DOPE   C11  782   5.358   5.177  17.175 -0.3668 -0.3525  0.0932
    7DOPE  H11A  783   5.395   5.125  17.267 -0.1696 -0.6231 -0.1373
    7DOPE  H11B  784   5.396   5.281  17.180 -0.6352 -0.3136  1.9680
    7DOPE     P  785   5.541   5.104  17.014 -0.0864 -0.0928  0.4186
    7DOPE   O13  786   5.595   4.992  17.089  0.4364  0.4900 -0.0715
    7DOPE   O14  787   5.601   5.240  17.044  0.4690 -0.2091  0.4742
    7DOPE   O11  788   5.532   5.066  16.859 -0.4593 -0.0734 -0.0891
    7DOPE   O12  789   5.391   5.104  17.056 -0.4167  0.4023  0.4721
    7DOPE    C1  790   5.402   5.082  16.795 -0.2894 -0.2194  0.8944
    7DOPE    HA  791   5.357   5.183  16.808 -0.0516 -0.0849  0.6677
    7DOPE    HB  792   5.335   5.006  16.840  3.3605 -3.0625  2.0506
    7DOPE    C2  793   5.402   5.042  16.644  0.8747 -0.1916  0.4827
    7DOPE    HS  794   5.434   4.935  16.643 -0.1392 -0.5154  0.9818
    7DOPE   O21  795   5.482   5.133  16.578  0.3321 -0.7740 -0.3803
    7DOPE   C21  796   5.534   5.079  16.467  0.2136  0.0543  0.6231
    7DOPE   O22  797   5.526   4.964  16.430  0.0170 -0.2854  0.1596
    7DOPE   C22  798   5.604   5.192  16.381  0.5354 -0.0213 -0.0720
    7DOPE   H2R  799   5.705   5.213  16.423  1.1029 -2.2362 -0.1659
    7DOPE   H2S  800   5.548   5.285  16.402  2.0233  0.5335  1.7325
    7DOPE    C3  801   5.254   5.042  16.581 -0.3106  0.1842 -0.2259
    7DOPE    HX  802   5.179   5.118  16.612 -2.8608 -2.2530 -0.0035
    7DOPE    HY  803   5.208   4.949  16.620  3.2310 -2.0514 -0.9264
    7DOPE   O31  804   5.256   5.029  16.435  0.4233 -0.6091  0.2788
    7DOPE   C31  805   5.248   4.905  16.385  0.1481  0.7115 -0.0035
    7DOPE   O32  806   5.242   4.802  16.450 -0.4174  0.0775 -0.5755
    7DOPE   C32  807   5.267   4.924  16.235 -0.1251 -0.2424 -0.7896
    7DOPE   H2X  808   5.188   4.991  16.195 -0.3538  0.1972  0.3877
    7DOPE   H2Y  809   5.372   4.957  16.219  0.0717  0.4200  1.5855
    7DOPE   C23  810   5.611   5.168  16.230  0.0074 -0.3047  0.3945
    7DOPE   H3R  811   5.581   5.265  16.185 -1.7016 -1.2769 -0.7026
    7DOPE   H3S  812   5.535   5.097  16.190 -0.5440  0.8449 -0.6382
    7DOPE   C24  813   5.748   5.126  16.184  0.2871 -0.2416 -0.4664
    7DOPE   H4R  814   5.762   5.031  16.241  0.3197  1.6871  3.0196
    7DOPE   H4S  815   5.821   5.205  16.213  1.7944 -1.3951 -0.9291
    7DOPE   C25  816   5.762   5.112  16.029  0.2383  0.5048 -0.3617
    7DOPE   H5R  817   5.674   5.052  15.997  0.6590 -0.3759  0.1032
    7DOPE   H5S  818   5.851   5.051  16.006 -0.8127 -1.9286  1.5346
    7DOPE   C26  819   5.767   5.248  15.951  0.2431  0.3900 -0.3050
    7DOPE   H6R  820   5.854   5.294  16.003  1.2938 -0.6304 -1.1278
    7DOPE   H6S  821   5.673   5.305  15.971 -0.4558 -1.0625  0.7202
    7DOPE   C27  822   5.797   5.230  15.803  0.0387 -0.1670 -0.3045
    7DOPE   H7R  823   5.871   5.151  15.781  0.1124  0.3985 -2.3361
    7DOPE   H7S  824   5.836   5.322  15.754  0.3618  0.6116  1.3459
    7DOPE   C28  825   5.670   5.194  15.714  0.0586 -0.1317 -0.0250
    7DOPE   H8R  826   5.638   5.093  15.747 -0.4430  0.4527  1.3331
    7DOPE   H8S  827   5.701   5.186  15.608 -0.4173 -0.2759 -0.1566
    7DOPE   C29  828   5.554   5.289  15.719 -0.1525 -0.0772  0.1893
    7DOPE   H9R  829   5.507   5.288  15.818  2.1197 -1.9402  1.3418
    7DOPE  C210  830   5.496   5.356  15.615  0.2568 -0.3279  0.0578
    7DOPE  H10R  831   5.417   5.429  15.638 -0.0134 -0.7507  0.5042
    7DOPE  C211  832   5.534   5.348  15.473 -0.0861 -0.7287  0.2704
    7DOPE  H11R  833   5.454   5.354  15.396 -1.6373 -0.1760  1.8553
    7DOPE  H11S  834   5.573   5.245  15.459  0.4857 -0.5464  0.4662
    7DOPE  C212  835   5.632   5.454  15.430  0.0533  0.9184 -0.4182
    7DOPE  H12R  836   5.712   5.464  15.506 -0.2380  0.6755 -0.0739
    7DOPE  H12S  837   5.569   5.545  15.446 -3.5154 -1.3722 -0.3234
    7DOPE  C213  838   5.700   5.444  15.290 -0.4121  0.1106 -0.1628
    7DOPE  H13R  839   5.624   5.433  15.210 -1.7686 -1.8275  1.2900
    7DOPE  H13S  840   5.744   5.342  15.283 -1.4631 -0.4186  0.6120
    7DOPE  C214  841   5.791   5.566  15.247  0.0901  0.1472  0.5406
    7DOPE  H14R  842   5.864   5.590  15.328 -1.1498 -0.6806  1.9601
    7DOPE  H14S  843   5.722   5.653  15.237 -0.0568  0.1390  1.3509
    7DOPE  C215  844   5.867   5.547  15.116  0.7675 -0.5801 -0.5106
    7DOPE  H15R  845   5.793   5.516  15.038  0.7020 -0.2624 -0.5744
    7DOPE  H15S  846   5.939   5.464  15.132  0.7468 -0.1034  2.6300
    7DOPE  C216  847   5.949   5.665  15.071 -0.4548 -1.0324 -0.1193
    7DOPE  H16R  848   6.017   5.685  15.157 -0.3876 -2.8823  0.3039
    7DOPE  H16S  849   5.880   5.750  15.055  0.4645 -0.1371  0.5301
    7DOPE  C217  850   6.040   5.634  14.954  0.6229  0.4597  0.1106
    7DOPE  H17R  851   6.104   5.545  14.972  1.3544  1.5370  3.5755
    7DOPE  H17S  852   6.102   5.725  14.937 -2.3042  2.9927  1.9045
    7DOPE  C218  853   5.968   5.607  14.822  0.2190 -0.3573 -0.0809
    7DOPE  H18R  854   6.031   5.562  14.742 -0.2456 -1.6457  0.2430
    7DOPE  H18S  855   5.917   5.700  14.791  0.1841 -0.4263 -0.2284
    7DOPE  H18T  856   5.893   5.529  14.848  1.2002 -1.1674  0.3744
    7DOPE   C33  857   5.246   4.791  16.154 -1.1811 -0.3453 -0.7884
    7DOPE   H3X  858   5.146   4.747  16.173 -0.9995 -1.1638 -1.6462
    7DOPE   H3Y  859   5.330   4.725  16.185  0.7850  1.4211 -2.0338
    7DOPE   C34  860   5.253   4.804  16.012  0.8590 -0.1286  0.2480
    7DOPE   H4X  861   5.182   4.882  15.979 -0.9511 -1.1645  1.4937
    7DOPE   H4Y  862   5.345   4.853  15.973  1.4488 -1.7652 -0.5329
    7DOPE   C35  863   5.230   4.676  15.934 -0.3454  0.3519  0.4165
    7DOPE   H5X  864   5.133   4.629  15.959  0.0113 -0.8929 -0.4495
    7DOPE   H5Y  865   5.303   4.600  15.970  1.0943  1.4313 -0.1038
    7DOPE   C36  866   5.243   4.696  15.780 -0.0896 -0.1382 -0.3188
    7DOPE   H6X  867   5.205   4.796  15.749 -2.3274 -0.3233  1.5259
    7DOPE   H6Y  868   5.174   4.626  15.729 -0.1264  0.7540 -1.5439
    7DOPE   C37  869   5.384   4.673  15.744  0.5473  0.0505 -0.5496
    7DOPE   H7X  870   5.453   4.750  15.786  1.6151  0.9970 -3.7482
    7DOPE   H7Y  871   5.410   4.573  15.784  0.5126  0.3015  0.1029
    7DOPE   C38  872   5.401   4.675  15.598 -0.0834  0.3612  0.4669
    7DOPE   H8X  873   5.375   4.777  15.562 -0.4626  0.2592  0.4422
    7DOPE   H8Y  874   5.320   4.612  15.556 -0.9089  1.9083 -0.3686
    7DOPE   C39  875   5.528   4.631  15.533 -0.3570  0.3572 -0.4027
    7DOPE   H9X  876   5.613   4.665  15.595 -1.3181 -0.7644  1.6239
    7DOPE  C310  877   5.548   4.564  15.421  0.8249 -0.0604  0.3321
    7DOPE  H10X  878   5.653   4.548  15.391  0.6039  2.2031 -1.9411
    7DOPE  C311  879   5.448   4.513  15.324 -0.1475 -0.3392 -0.5991
    7DOPE  H11X  880   5.479   4.413  15.288  0.9651 -0.1537 -0.1806
    7DOPE  H11Y  881   5.353   4.501  15.381  0.5685 -1.2025  0.4444
    7DOPE  C312  882   5.444   4.622  15.215  0.1694 -0.2832 -0.6441
    7DOPE  H12X  883   5.547   4.658  15.197  0.3218  0.1217  0.8967
    7DOPE  H12Y  884   5.388   4.706  15.262  1.8403 -0.1509  1.2259
    7DOPE  C313  885   5.372   4.583  15.082  0.1274 -0.2930  0.0368
    7DOPE  H13X  886   5.412   4.486  15.044 -0.3901 -0.8525  0.8829
    7DOPE  H13Y  887   5.262   4.581  15.099  0.0334 -3.6193 -0.2928
    7DOPE  C314  888   5.373   4.694  14.964 -0.4464  0.5412  0.0623
    7DOPE  H14X  889   5.303   4.669  14.881  0.0093 -1.0686  0.1205
    7DOPE  H14Y  890   5.477   4.693  14.925 -0.6525  0.4432 -0.5036
    7DOPE  C315  891   5.341   4.834  15.013  0.1397  0.2843 -0.0684
    7DOPE  H15X  892   5.421   4.861  15.084 -0.9287  0.5339  1.0715
    7DOPE  H15Y  893   5.240   4.846  15.058 -0.2137 -1.3442 -0.3563
    7DOPE  C316  894   5.359   4.947  14.905  0.4709 -0.1048 -0.4651
    7DOPE  H16X  895   5.299   4.901  14.824  1.1153 -0.1627 -0.9115
    7DOPE  H16Y  896   5.461   4.944  14.862  0.0134  0.0541 -1.5887
    7DOPE  C317  897   5.314   5.083  14.950 -0.0609 -0.2651 -0.5165
    7DOPE  H17X  898   5.325   5.147  14.861 -2.1964  0.3616 -0.3822
    7DOPE  H17Y  899   5.204   5.077  14.964 -0.1067 -0.6043 -0.9902
    7DOPE  C318  900   5.396   5.146  15.057  0.2612  0.4440 -0.1169
    7DOPE  H18X  901   5.359   5.244  15.095 -0.4900 -0.7016  2.3144
    7DOPE  H18Y  902   5.403   5.076  15.142 -2.1635 -1.9062 -1.6632
    7DOPE  H18Z  903   5.495   5.162  15.010  0.6971 -2.8024 -0.5251
    8DOPE     N  904   5.962   5.163  17.368 -0.1748 -0.0876 -0.1136
    8DOPE   HN1  905   5.965   5.062  17.393  3.9515 -0.3998 -1.2007
    8DOPE   HN2  906   5.904   5.216  17.436  0.9133  0.0092  0.7648
    8DOPE   HN3  907   5.917   5.171  17.274 -1.8058 -1.6204  0.4726
    8DOPE   C12  908   6.097   5.227  17.365  0.1157 -0.3609  0.0192
    8DOPE  H12A  909   6.121   5.250  17.471  0.1940  2.6054 -0.5394
    8DOPE  H12B  910   6.096   5.327  17.315  0.8790 -0.9640 -1.2646
    8DOPE   C11  911   6.208   5.147  17.290  0.2315  0.0277  0.0029
    8DOPE  H11A  912   6.239   5.064  17.358  0.7165  0.1582 -0.0584
    8DOPE  H11B  913   6.296   5.212  17.269 -0.8180  1.1909 -0.9572
    8DOPE     P  914   6.199   4.965  17.096 -0.6684  0.0210 -0.1565
    8DOPE   O13  915   6.108   4.942  16.984  0.0072 -0.4477  0.2340
    8DOPE   O14  916   6.213   4.858  17.196 -0.0078 -0.1863 -0.7342
    8DOPE   O11  917   6.345   5.015  17.033 -0.4438  0.1832  0.0376
    8DOPE   O12  918   6.146   5.101  17.166  0.0867  0.5429  0.2966
    8DOPE    C1  919   6.342   5.132  16.947  0.7160 -0.6920 -0.0329
    8DOPE    HA  920   6.293   5.220  16.993  0.4629 -0.0290 -1.5068
    8DOPE    HB  921   6.285   5.106  16.856  0.9524 -1.1318 -0.0595
    8DOPE    C2  922   6.479   5.184  16.899 -0.4398 -0.6105 -0.7321
    8DOPE    HS  923   6.478   5.280  16.842 -1.4729  0.0303  0.3180
    8DOPE   O21  924   6.538   5.076  16.820 -0.1379 -0.8119 -0.1644
    8DOPE   C21  925   6.506   5.078  16.688  0.2094 -0.1025  0.3645
    8DOPE   O22  926   6.441   5.165  16.637  0.4461 -0.3895  0.1755
    8DOPE   C22  927   6.569   4.961  16.613 -0.4634  0.3274 -0.4929
    8DOPE   H2R  928   6.543   4.865  16.664 -0.7885 -0.5757 -2.2978
    8DOPE   H2S  929   6.679   4.972  16.605 -0.3933  0.4074  0.4312
    8DOPE    C3  930   6.562   5.215  17.038  0.3658  0.3610 -0.5190
    8DOPE    HX  931   6.542   5.136  17.113  0.5247  1.5981  0.8665
    8DOPE    HY  932   6.531   5.313  17.079 -0.5924  0.4925 -1.5192
    8DOPE   O31  933   6.708   5.220  17.017 -0.0790  0.2738  0.1249
    8DOPE   C31  934   6.748   5.320  16.935  0.1271 -0.2103  0.3458
    8DOPE   O32  935   6.675   5.418  16.902 -0.0483  0.2548 -0.3245
    8DOPE   C32  936   6.887   5.304  16.897 -0.2120  0.0697  0.6736
    8DOPE   H2X  937   6.940   5.400  16.911  1.3559 -0.8859  1.7399
    8DOPE   H2Y  938   6.948   5.233  16.958 -0.2329 -1.3278 -0.8453
    8DOPE   C23  939   6.512   4.947  16.469  0.6510 -0.4010 -0.2086
    8DOPE   H3R  940   6.407   4.983  16.467 -0.2109 -2.7355 -1.3387
    8DOPE   H3S  941   6.498   4.841  16.440  1.2233 -0.0064 -2.0205
    8DOPE   C24  942   6.601   5.024  16.368 -0.1762  0.4724  0.2173
    8DOPE   H4R  943   6.699   4.975  16.352 -0.4350  0.1434 -0.4085
    8DOPE   H4S  944   6.620   5.123  16.415  0.1480 -0.6915  2.7137
    8DOPE   C25  945   6.546   5.023  16.225  0.2809 -0.5322  0.3414
    8DOPE   H5R  946   6.448   5.074  16.238 -0.0220 -1.3916  1.7286
    8DOPE   H5S  947   6.525   4.926  16.175  0.6235 -0.0337 -0.8080
    8DOPE   C26  948   6.636   5.090  16.123 -0.2803  0.1640 -0.9332
    8DOPE   H6R  949   6.659   5.196  16.147  2.4170 -0.5802  0.1045
    8DOPE   H6S  950   6.589   5.099  16.023 -1.5034  0.7111 -0.3364
    8DOPE   C27  951   6.766   5.015  16.115 -0.1382  0.3597 -0.1887
    8DOPE   H7R  952   6.750   4.905  16.106  0.6970  0.0083  2.0153
    8DOPE   H7S  953   6.835   5.040  16.199  2.0736 -2.4862 -1.0018
    8DOPE   C28  954   6.840   5.051  15.985 -0.3390  0.4752 -0.4044
    8DOPE   H8R  955   6.841   5.162  15.977 -0.5418  0.6840  1.8500
    8DOPE   H8S  956   6.782   5.025  15.893  1.0956 -1.7289 -0.7625
    8DOPE   C29  957   6.974   4.986  15.960 -0.0080  0.9726  0.6774
    8DOPE   H9R  958   6.992   4.882  15.991 -0.0600  0.1032 -1.9420
    8DOPE  C210  959   7.081   5.044  15.905 -0.8997  0.0601 -0.1436
    8DOPE  H10R  960   7.174   4.986  15.896  0.2655  1.9050 -0.6607
    8DOPE  C211  961   7.095   5.188  15.851 -0.3339  1.1177  0.0047
    8DOPE  H11R  962   7.154   5.243  15.926  0.5339 -0.2606  0.3785
    8DOPE  H11S  963   6.991   5.225  15.840 -1.2042 -0.8275  1.0880
    8DOPE  C212  964   7.157   5.205  15.710  0.0983  0.1143  0.0045
    8DOPE  H12R  965   7.259   5.163  15.699  0.5880  1.1315  0.5013
    8DOPE  H12S  966   7.166   5.312  15.683 -0.0161  0.1329  0.0423
    8DOPE  C213  967   7.073   5.150  15.590  0.2126 -0.3001  0.2639
    8DOPE  H13R  968   6.990   5.223  15.576  1.7807  1.8898  1.6003
    8DOPE  H13S  969   7.040   5.049  15.620 -3.3314  0.3057 -1.1496
    8DOPE  C214  970   7.163   5.159  15.464  0.2006 -0.2456 -0.3628
    8DOPE  H14R  971   7.217   5.256  15.452  1.0434 -0.6320  0.2397
    8DOPE  H14S  972   7.104   5.152  15.371 -0.6934 -0.0352  0.1790
    8DOPE  C215  973   7.271   5.044  15.463  0.4359  0.1376 -0.3782
    8DOPE  H15R  974   7.219   4.945  15.468  2.1199 -0.9280 -2.2828
    8DOPE  H15S  975   7.339   5.057  15.549  1.9431 -0.4877 -1.4353
    8DOPE  C216  976   7.354   5.035  15.334 -0.9574 -0.1763 -0.1608
    8DOPE  H16R  977   7.293   4.985  15.255  1.9650 -1.0204 -2.0639
    8DOPE  H16S  978   7.435   4.960  15.349 -2.3562 -1.6791  0.2048
    8DOPE  C217  979   7.395   5.170  15.265  0.4681  0.5321  0.7005
    8DOPE  H17R  980   7.494   5.158  15.216 -0.1150  1.1820 -0.6628
    8DOPE  H17S  981   7.412   5.253  15.337  0.7772  0.8203  0.2974
    8DOPE  C218  982   7.301   5.207  15.160  0.2174  0.3172  0.4677
    8DOPE  H18R  983   7.308   5.123  15.087  1.7551  0.6311  0.2257
    8DOPE  H18S  984   7.334   5.296  15.101  1.8278 -0.5347  0.0215
    8DOPE  H18T  985   7.197   5.217  15.198  0.8426  0.0296  2.3642
    8DOPE   C33  986   6.914   5.269  16.747 -0.3480 -0.1305 -0.1445
    8DOPE   H3X  987   6.866   5.170  16.729 -0.5996 -0.0669  0.1655
    8DOPE   H3Y  988   7.024   5.253  16.741 -0.2308 -0.2217  1.6154
    8DOPE   C34  989   6.866   5.373  16.646  0.4604 -0.2734 -0.0860
    8DOPE   H4X  990   6.762   5.404  16.665  0.3548 -0.5462 -0.2110
    8DOPE   H4Y  991   6.933   5.455  16.679 -0.3311 -0.5208  2.3011
    8DOPE   C35  992   6.882   5.336  16.501  0.0702 -0.0385 -0.2248
    8DOPE   H5X  993   6.829   5.401  16.428  0.3754 -0.4137 -0.7854
    8DOPE   H5Y  994   6.827   5.242  16.483  0.0725  0.3403 -2.5441
    8DOPE   C36  995   7.030   5.335  16.460  0.7991 -0.1902  0.3492
    8DOPE   H6X  996   7.090   5.259  16.513  1.9516  0.5764  0.1646
    8DOPE   H6Y  997   7.076   5.430  16.496 -0.7476  0.7868 -0.1270
    8DOPE   C37  998   7.051   5.319  16.305  0.1581 -0.2410 -0.1701
    8DOPE   H7X  999   7.026   5.213  16.281 -0.9870 -0.5479  2.1215
    8DOPE   H7Y 1000   6.975   5.382  16.253  2.7471  1.3200 -2.3116
    8DOPE   C38 1001   7.190   5.359  16.261 -0.2207 -0.4403 -0.6217
    8DOPE   H8X 1002   7.215   5.463  16.289  0.4731 -0.6257 -0.5435
    8DOPE   H8Y 1003   7.189   5.359  16.150  1.7981 -0.5905 -0.6778
    8DOPE   C39 1004   7.292   5.263  16.315  0.3603 -0.6929 -0.0256
    8DOPE   H9X 1005   7.269   5.156  16.303  0.5793 -0.4538 -3.6639
    8DOPE  C310 1006   7.417   5.294  16.345  0.1329 -0.2053 -0.2552
    8DOPE  H10X 1007   7.482   5.218  16.392  2.3746  2.6200  1.5796
    8DOPE  C311 1008   7.474   5.439  16.346 -1.0606 -0.9114  0.8101
    8DOPE  H11X 1009   7.585   5.435  16.345 -0.9239  1.5160  0.9629
    8DOPE  H11Y 1010   7.443   5.485  16.250  0.5222  1.9179  1.5470
    8DOPE  C312 1011   7.419   5.528  16.461  0.6716  0.2650  0.0039
    8DOPE  H12X 1012   7.434   5.472  16.556  0.6677 -0.4204 -0.3941
    8DOPE  H12Y 1013   7.311   5.549  16.453  0.9544  1.6708 -0.4593
    8DOPE  C313 1014   7.473   5.674  16.461  0.6333  0.2456 -0.7897
    8DOPE  H13X 1015   7.433   5.728  16.550  0.4841  0.3532 -0.9217
    8DOPE  H13Y 1016   7.581   5.688  16.481 -0.0664  0.7171  3.6781
    8DOPE  C314 1017   7.424   5.748  16.333 -0.0710 -0.4293  0.9923
    8DOPE  H14X 1018   7.465   5.696  16.244 -1.9088  0.3204 -0.3673
    8DOPE  H14Y 1019   7.475   5.846  16.332 -0.8692  0.0027 -0.4223
    8DOPE  C315 1020   7.274   5.763  16.316 -0.7077  0.1717  0.0069
    8DOPE  H15X 1021   7.233   5.792  16.415 -1.1780 -0.2513 -0.0576
    8DOPE  H15Y 1022   7.228   5.665  16.289 -3.4466  1.2795  0.3035
    8DOPE  C316 1023   7.237   5.875  16.217  0.0737 -0.0977 -0.0439
    8DOPE  H16X 1024   7.271   5.841  16.117 -1.0062 -1.6765  0.0856
    8DOPE  H16Y 1025   7.288   5.967  16.253  1.4710 -1.1384  0.7283
    8DOPE  C317 1026   7.083   5.901  16.226 -0.2211  0.3351 -0.2160
    8DOPE  H17X 1027   7.041   5.806  16.187  0.8147 -0.7418  1.2183
    8DOPE  H17Y 1028   7.051   5.912  16.332 -0.5796  0.9586 -0.3829
    8DOPE  C318 1029   7.023   6.011  16.141 -0.2718 -0.2371  0.1316
    8DOPE  H18X 1030   7.044   5.994  16.033  2.5852 -0.5635  0.6663
    8DOPE  H18Y 1031   7.067   6.112  16.156 -0.5784 -0.2938  1.4779
    8DOPE  H18Z 1032   6.913   6.015  16.154 -0.4079  1.4337 -1.1101
    9DOPE     N 1033   2.829   4.238  17.173 -0.5116  0.2360 -0.2555
    9DOPE   HN1 1034   2.733   4.214  17.205 -1.4014 -0.9010 -3.3437
    9DOPE   HN2 1035   2.900   4.165  17.194 -1.0705 -0.0776  0.5825
    9DOPE   HN3 1036   2.848   4.327  17.223 -1.8447 -0.5610  1.7645
    9DOPE   C12 1037   2.826   4.267  17.021  0.1919  0.4201  0.3904
    9DOPE  H12A 1038   2.729   4.306  16.982 -0.0554 -0.0890  0.4840
    9DOPE  H12B 1039   2.841   4.171  16.968 -0.0710  0.4819  0.1988
    9DOPE   C11 1040   2.940   4.359  16.985 -0.0228 -0.5369 -0.5152
    9DOPE  H11A 1041   2.944   4.377  16.875 -0.5958  0.5691 -0.3671
    9DOPE  H11B 1042   3.035   4.311  17.016  0.4064 -0.6924 -1.9988
    9DOPE     P 1043   3.032   4.592  17.060  0.0046 -0.0018 -0.1556
    9DOPE   O13 1044   3.148   4.522  17.100 -0.5688 -0.5572  0.3404
    9DOPE   O14 1045   2.983   4.707  17.144 -0.0691 -0.8259 -0.0412
    9DOPE   O11 1046   3.053   4.647  16.909  0.1017  0.0050  0.1867
    9DOPE   O12 1047   2.915   4.489  17.046  0.3414  0.1707  0.2575
    9DOPE    C1 1048   2.964   4.741  16.852 -0.1304 -0.0352  0.5084
    9DOPE    HA 1049   3.013   4.781  16.760  1.5506 -2.7497  0.1130
    9DOPE    HB 1050   2.945   4.827  16.920  0.2367  0.3077  0.1910
    9DOPE    C2 1051   2.829   4.683  16.799  0.5119  0.0572 -0.9931
    9DOPE    HS 1052   2.771   4.644  16.885 -1.0152 -2.5432 -3.0404
    9DOPE   O21 1053   2.861   4.581  16.708 -0.4701  0.3199  0.6163
    9DOPE   C21 1054   2.776   4.483  16.688  0.0048 -0.5853 -1.0490
    9DOPE   O22 1055   2.672   4.470  16.751  0.1590  0.0893 -0.0379
    9DOPE   C22 1056   2.848   4.372  16.610 -0.1743  0.4596 -0.3089
    9DOPE   H2R 1057   2.874   4.302  16.691 -2.0816  0.3584  0.2504
    9DOPE   H2S 1058   2.940   4.412  16.562  0.2789 -0.6743 -0.3975
    9DOPE    C3 1059   2.744   4.792  16.722  0.0330  0.4255  0.8395
    9DOPE    HX 1060   2.717   4.867  16.800  1.8422 -0.5697  2.5382
    9DOPE    HY 1061   2.651   4.744  16.688  0.7232 -0.6740  0.4584
    9DOPE   O31 1062   2.825   4.852  16.619 -0.3791  0.1205 -0.6616
    9DOPE   C31 1063   2.770   4.865  16.499  0.3730 -0.0149 -0.7510
    9DOPE   O32 1064   2.673   4.802  16.457 -0.0681  0.0817  0.7514
    9DOPE   C32 1065   2.854   4.959  16.406  0.0291  0.4750  0.2633
    9DOPE   H2X 1066   2.908   5.027  16.475  1.3695  1.1832 -1.4215
    9DOPE   H2Y 1067   2.930   4.895  16.357  0.6565  0.5507  1.1204
    9DOPE   C23 1068   2.767   4.302  16.504 -0.4814  0.0193  1.1056
    9DOPE   H3R 1069   2.690   4.243  16.557 -0.7534 -1.0593 -0.4181
    9DOPE   H3S 1070   2.836   4.234  16.450  1.0988  2.7558 -0.5472
    9DOPE   C24 1071   2.706   4.406  16.406 -0.3693 -0.6626 -0.4712
    9DOPE   H4R 1072   2.780   4.475  16.360  0.1676 -0.9410 -0.0335
    9DOPE   H4S 1073   2.644   4.476  16.466  1.5157 -0.2457  1.0691
    9DOPE   C25 1074   2.605   4.358  16.303 -0.7533 -0.2817  0.4122
    9DOPE   H5R 1075   2.509   4.320  16.344 -1.1880 -0.4874 -0.7530
    9DOPE   H5S 1076   2.652   4.276  16.244 -0.6800 -0.8060  1.1853
    9DOPE   C26 1077   2.557   4.484  16.219 -0.1801 -0.1308  0.3027
    9DOPE   H6R 1078   2.547   4.448  16.114 -2.7750  0.9507  0.0960
    9DOPE   H6S 1079   2.631   4.567  16.228 -1.8473  1.6516 -1.2703
    9DOPE   C27 1080   2.426   4.539  16.277 -0.4501 -0.2371  0.2480
    9DOPE   H7R 1081   2.426   4.562  16.386 -0.2874 -1.9889  0.6405
    9DOPE   H7S 1082   2.340   4.470  16.263 -0.4069 -0.0388 -1.1656
    9DOPE   C28 1083   2.389   4.671  16.207 -0.1012 -0.3170  0.2622
    9DOPE   H8R 1084   2.467   4.747  16.225 -1.4260  1.4334 -0.9873
    9DOPE   H8S 1085   2.296   4.718  16.247  0.5402  0.3341  1.0235
    9DOPE   C29 1086   2.380   4.642  16.058 -0.6303  0.3916  0.0010
    9DOPE   H9R 1087   2.306   4.561  16.045  0.6357 -0.4791 -2.2994
    9DOPE  C210 1088   2.458   4.677  15.954  0.0705  0.2391  0.0628
    9DOPE  H10R 1089   2.436   4.641  15.852  0.4676  0.7489 -0.2067
    9DOPE  C211 1090   2.559   4.785  15.964  0.6042 -0.8833 -0.6971
    9DOPE  H11R 1091   2.641   4.766  15.892 -0.6101 -1.6664 -1.9002
    9DOPE  H11S 1092   2.600   4.786  16.067 -3.9491  1.8357  1.4287
    9DOPE  C212 1093   2.497   4.924  15.934 -0.1806 -0.1543  0.1389
    9DOPE  H12R 1094   2.575   5.001  15.949 -0.0369  0.1906 -2.0591
    9DOPE  H12S 1095   2.417   4.951  16.006 -1.2896  0.5892 -1.3165
    9DOPE  C213 1096   2.427   4.938  15.791  0.0567 -0.1420  0.1448
    9DOPE  H13R 1097   2.384   5.041  15.788  1.4345  0.4561 -2.4136
    9DOPE  H13S 1098   2.344   4.864  15.785 -1.3075  1.2595  0.7918
    9DOPE  C214 1099   2.525   4.926  15.676 -0.1757  0.2341 -0.4744
    9DOPE  H14R 1100   2.554   4.822  15.653 -1.0304  0.1441 -1.2239
    9DOPE  H14S 1101   2.612   4.992  15.694  0.2966 -0.0980 -1.4990
    9DOPE  C215 1102   2.472   4.991  15.543 -0.2969  0.0241 -0.2479
    9DOPE  H15R 1103   2.553   4.987  15.466  0.0078  2.5555 -0.1410
    9DOPE  H15S 1104   2.444   5.098  15.554  1.9896  0.5121  1.6002
    9DOPE  C216 1105   2.357   4.916  15.479  0.0429  1.2437 -0.3457
    9DOPE  H16R 1106   2.309   4.976  15.399 -2.1001 -3.1064 -2.6458
    9DOPE  H16S 1107   2.287   4.895  15.563 -0.3824  0.6546 -0.8453
    9DOPE  C217 1108   2.398   4.783  15.413  0.5794  0.0359 -0.2066
    9DOPE  H17R 1109   2.427   4.701  15.482  1.2957  0.2004 -0.2936
    9DOPE  H17S 1110   2.492   4.799  15.354  1.7731 -2.6565  0.8085
    9DOPE  C218 1111   2.288   4.739  15.321 -0.2823  0.2991  0.0185
    9DOPE  H18R 1112   2.321   4.660  15.251  0.5507  0.0856  0.6288
    9DOPE  H18S 1113   2.250   4.824  15.261  1.1793  0.6606 -0.4316
    9DOPE  H18T 1114   2.201   4.695  15.374 -0.6605  0.6029 -0.3499
    9DOPE   C33 1115   2.769   5.036  16.295  0.0585 -0.7092  0.8774
    9DOPE   H3X 1116   2.754   5.138  16.337 -0.7941 -0.2419 -0.5096
    9DOPE   H3Y 1117   2.675   4.978  16.284 -0.3334  0.2509 -1.2909
    9DOPE   C34 1118   2.840   5.044  16.163 -0.6251 -0.1288  0.2406
    9DOPE   H4X 1119   2.869   4.941  16.133 -1.1729 -0.1729 -0.1535
    9DOPE   H4Y 1120   2.765   5.080  16.090  0.2731  0.0599 -0.6198
    9DOPE   C35 1121   2.953   5.139  16.162 -0.4819  0.3077 -0.2278
    9DOPE   H5X 1122   3.030   5.112  16.237 -1.5809 -0.2129  0.7571
    9DOPE   H5Y 1123   2.935   5.243  16.198  2.3774  0.9873 -0.5857
    9DOPE   C36 1124   3.027   5.154  16.027 -0.7083 -0.7436 -0.6428
    9DOPE   H6X 1125   3.064   5.057  15.986  0.7275 -0.8170  0.7348
    9DOPE   H6Y 1126   3.124   5.207  16.042 -1.1488 -0.0328 -0.2248
    9DOPE   C37 1127   2.948   5.230  15.912 -0.5122 -0.4094  0.3968
    9DOPE   H7X 1128   2.842   5.198  15.908 -0.3686 -0.8704  0.1713
    9DOPE   H7Y 1129   2.938   5.336  15.942  2.7886 -0.2170  1.2561
    9DOPE   C38 1130   3.014   5.222  15.778 -0.1413  0.8030 -0.4069
    9DOPE   H8X 1131   2.996   5.118  15.744 -1.6235  1.5015 -1.9686
    9DOPE   H8Y 1132   3.123   5.243  15.779  0.0387  0.0991 -2.0688
    9DOPE   C39 1133   2.937   5.296  15.673 -0.3864 -0.5308  0.2048
    9DOPE   H9X 1134   2.830   5.272  15.681 -0.3240 -1.1665 -0.6880
    9DOPE  C310 1135   2.978   5.389  15.582  0.2196  0.3475  0.5728
    9DOPE  H10X 1136   2.910   5.444  15.515 -0.2687 -1.0678 -0.1235
    9DOPE  C311 1137   3.124   5.426  15.579 -0.0006  1.0429 -0.4414
    9DOPE  H11X 1138   3.171   5.404  15.677  0.0627 -0.4603 -0.7914
    9DOPE  H11Y 1139   3.179   5.364  15.505  1.2831 -0.5130  1.7034
    9DOPE  C312 1140   3.152   5.576  15.548 -0.0560 -0.6293  0.2303
    9DOPE  H12X 1141   3.246   5.603  15.601 -0.0572 -2.4715  1.2518
    9DOPE  H12Y 1142   3.079   5.644  15.597  0.8409 -0.2236  1.0252
    9DOPE  C313 1143   3.165   5.600  15.396  0.2369 -0.0470  0.6963
    9DOPE  H13X 1144   3.085   5.539  15.350  0.0944  0.9458 -0.4016
    9DOPE  H13Y 1145   3.138   5.706  15.375 -1.6720 -0.6213  0.1017
    9DOPE  C314 1146   3.295   5.549  15.333  0.0738 -0.0304  0.4647
    9DOPE  H14X 1147   3.303   5.443  15.364  0.1005 -0.3245 -0.4991
    9DOPE  H14Y 1148   3.390   5.602  15.355  0.0176  0.2473  0.0442
    9DOPE  C315 1149   3.291   5.559  15.178 -0.2558  0.5418 -0.6598
    9DOPE  H15X 1150   3.339   5.658  15.165  1.1964  0.3189  2.2278
    9DOPE  H15Y 1151   3.189   5.567  15.134 -0.5524 -0.6913 -0.2221
    9DOPE  C316 1152   3.371   5.450  15.112 -0.3663 -0.4810  0.0411
    9DOPE  H16X 1153   3.319   5.355  15.137 -0.3028 -0.0860  1.8035
    9DOPE  H16Y 1154   3.464   5.446  15.174  1.1655  1.0958 -2.0230
    9DOPE  C317 1155   3.374   5.460  14.959 -0.5141  0.5047 -0.7086
    9DOPE  H17X 1156   3.435   5.546  14.927 -0.4697  0.4125 -0.8735
    9DOPE  H17Y 1157   3.431   5.372  14.921 -0.3375  1.0338 -1.7042
    9DOPE  C318 1158   3.241   5.464  14.892  0.4880  0.4204  0.1333
    9DOPE  H18X 1159   3.244   5.443  14.782  2.0421  1.7138 -0.0976
    9DOPE  H18Y 1160   3.173   5.399  14.951  1.7982 -0.7817  0.3650
    9DOPE  H18Z 1161   3.207   5.570  14.897 -0.9648 -0.0328  0.5665
   10DOPE     N 1162   2.374   5.939  16.535  0.2023  0.0243  0.1582
   10DOPE   HN1 1163   2.391   5.863  16.466 -0.8241  1.7772 -2.1493
   10DOPE   HN2 1164   2.276   5.920  16.564 -0.3712  0.3675 -1.4587
   10DOPE   HN3 1165   2.384   6.029  16.485  0.8792  0.2761  0.7241
   10DOPE   C12 1166   2.466   5.926  16.648 -0.3979 -0.4598 -0.1691
   10DOPE  H12A 1167   2.413   5.954  16.742  2.3348  1.5020  0.9257
   10DOPE  H12B 1168   2.556   5.987  16.624 -0.8281 -0.2331 -1.2645
   10DOPE   C11 1169   2.507   5.777  16.661  0.5765  0.2325  0.4265
   10DOPE  H11A 1170   2.550   5.742  16.565  1.1652  0.6253  0.5401
   10DOPE  H11B 1171   2.412   5.722  16.677  0.2957  0.0606 -1.5248
   10DOPE     P 1172   2.748   5.742  16.741  0.0772  0.2676 -0.4473
   10DOPE   O13 1173   2.814   5.698  16.866 -0.3655 -0.4154  0.9351
   10DOPE   O14 1174   2.780   5.878  16.692 -0.4955  0.1407 -0.2929
   10DOPE   O11 1175   2.768   5.640  16.617  0.0388 -0.6103  0.3040
   10DOPE   O12 1176   2.589   5.740  16.770 -0.3674 -0.1315  0.6014
   10DOPE    C1 1177   2.722   5.510  16.636  0.8560  0.0763  0.2973
   10DOPE    HA 1178   2.615   5.506  16.665  1.0587 -0.3072  1.0330
   10DOPE    HB 1179   2.783   5.467  16.719 -1.0973 -0.4469  1.5397
   10DOPE    C2 1180   2.734   5.429  16.506 -0.6723  0.6709 -0.4502
   10DOPE    HS 1181   2.702   5.324  16.525  1.6831 -0.1276 -0.4409
   10DOPE   O21 1182   2.867   5.428  16.445  0.7441 -0.6957  0.6377
   10DOPE   C21 1183   2.962   5.374  16.516 -0.1089  0.2533  0.1051
   10DOPE   O22 1184   2.949   5.310  16.619  0.0554  0.3388 -0.1969
   10DOPE   C22 1185   3.094   5.390  16.451  0.2485 -0.2344 -0.0255
   10DOPE   H2R 1186   3.122   5.493  16.482 -0.9643 -0.2455  1.2076
   10DOPE   H2S 1187   3.083   5.396  16.341 -0.2562 -1.0870 -0.0265
   10DOPE    C3 1188   2.633   5.472  16.397 -0.3209  0.5328 -1.5728
   10DOPE    HX 1189   2.672   5.564  16.349  1.1647  0.1083 -1.2615
   10DOPE    HY 1190   2.541   5.494  16.454 -0.0074 -1.5351 -0.1136
   10DOPE   O31 1191   2.624   5.367  16.303 -0.0533  0.2650 -0.3031
   10DOPE   C31 1192   2.517   5.381  16.227 -0.4257 -0.2659  0.0586
   10DOPE   O32 1193   2.449   5.484  16.215 -0.0275  0.1130 -0.0744
   10DOPE   C32 1194   2.489   5.247  16.157  0.4644  0.7451 -0.0567
   10DOPE   H2X 1195   2.582   5.194  16.128  0.3742 -0.6840  2.0280
   10DOPE   H2Y 1196   2.451   5.173  16.231  0.8707  0.4890 -0.0997
   10DOPE   C23 1197   3.203   5.294  16.499  0.3337  0.2610 -0.0273
   10DOPE   H3R 1198   3.162   5.192  16.482  0.1333  0.3641 -0.1684
   10DOPE   H3S 1199   3.211   5.292  16.610 -0.1807 -1.7131  0.0304
   10DOPE   C24 1200   3.339   5.286  16.420 -0.1116 -0.3448 -0.2129
   10DOPE   H4R 1201   3.308   5.269  16.314 -0.2157 -0.7699 -0.1198
   10DOPE   H4S 1202   3.391   5.192  16.450  1.2034  0.7819  1.1679
   10DOPE   C25 1203   3.423   5.411  16.442  0.1986  0.6116 -0.1633
   10DOPE   H5R 1204   3.406   5.443  16.547  1.6204  0.2183  0.2143
   10DOPE   H5S 1205   3.381   5.489  16.375 -2.2624 -0.3229  0.1853
   10DOPE   C26 1206   3.577   5.387  16.413 -0.8050  0.6699 -0.0881
   10DOPE   H6R 1207   3.615   5.294  16.460 -1.5778 -0.3627 -1.4562
   10DOPE   H6S 1208   3.628   5.476  16.457 -0.1476  1.1943 -1.8317
   10DOPE   C27 1209   3.624   5.382  16.261 -0.5390 -0.0043  0.6104
   10DOPE   H7R 1210   3.581   5.475  16.218 -0.7793 -0.7190 -0.7600
   10DOPE   H7S 1211   3.583   5.294  16.207  3.1790 -0.9529 -1.0261
   10DOPE   C28 1212   3.780   5.387  16.236 -0.7979 -0.3654  0.1605
   10DOPE   H8R 1213   3.825   5.463  16.303 -0.0273 -1.1252  0.5141
   10DOPE   H8S 1214   3.803   5.409  16.130  2.1435  1.2034  1.0183
   10DOPE   C29 1215   3.843   5.251  16.268  0.0969 -0.3738  0.5973
   10DOPE   H9R 1216   3.875   5.248  16.373 -0.8164  0.1946  0.9135
   10DOPE  C210 1217   3.872   5.146  16.194  0.1264  0.3162 -1.2940
   10DOPE  H10R 1218   3.946   5.079  16.241 -0.4249  1.5435  1.4877
   10DOPE  C211 1219   3.842   5.119  16.049 -0.0959  0.3426 -0.3560
   10DOPE  H11R 1220   3.748   5.168  16.017 -1.2637 -1.7117 -0.2330
   10DOPE  H11S 1221   3.832   5.010  16.028 -0.7330  0.7765 -2.5684
   10DOPE  C212 1222   3.948   5.168  15.944  0.3589  1.3423 -0.4582
   10DOPE  H12R 1223   4.045   5.127  15.979 -0.1613  0.4230 -0.0598
   10DOPE  H12S 1224   3.962   5.278  15.952  1.9941  1.0668  1.0811
   10DOPE  C213 1225   3.917   5.134  15.801  0.1884  0.2771 -0.4683
   10DOPE  H13R 1226   3.836   5.202  15.766  1.4931  2.5369  0.7591
   10DOPE  H13S 1227   3.884   5.028  15.791 -0.2293  0.4327 -0.7698
   10DOPE  C214 1228   4.047   5.137  15.707  0.6979  0.3387  0.1216
   10DOPE  H14R 1229   4.127   5.064  15.733  0.2580  0.4846  2.0102
   10DOPE  H14S 1230   4.096   5.236  15.712 -0.1284  0.8292 -1.1798
   10DOPE  C215 1231   4.002   5.116  15.563  0.2245  0.0253  0.0032
   10DOPE  H15R 1232   3.929   5.196  15.537 -0.6507  0.2479  2.7830
   10DOPE  H15S 1233   3.948   5.019  15.563  1.4823 -0.8894  4.2929
   10DOPE  C216 1234   4.115   5.114  15.462 -0.8196  0.6390  0.7472
   10DOPE  H16R 1235   4.087   5.070  15.364  1.3307  2.2306 -0.6679
   10DOPE  H16S 1236   4.205   5.069  15.508 -1.4922 -0.1157  1.3586
   10DOPE  C217 1237   4.147   5.249  15.419 -0.1722  0.3909 -0.2645
   10DOPE  H17R 1238   4.211   5.309  15.486  2.9596 -0.9034 -1.9096
   10DOPE  H17S 1239   4.050   5.303  15.415 -0.1932  0.6299  2.0395
   10DOPE  C218 1240   4.214   5.262  15.284 -0.0179 -0.3934 -0.8528
   10DOPE  H18R 1241   4.145   5.230  15.203 -2.2539 -0.7638  1.1179
   10DOPE  H18S 1242   4.313   5.212  15.281  0.8137  0.9942  1.0563
   10DOPE  H18T 1243   4.234   5.370  15.267  1.0583 -0.3976  0.2276
   10DOPE   C33 1244   2.377   5.261  16.053  0.0434 -0.1538  0.4165
   10DOPE   H3X 1245   2.298   5.322  16.103  0.5204  2.8969 -2.1934
   10DOPE   H3Y 1246   2.335   5.158  16.049 -1.1625  0.3142  0.6235
   10DOPE   C34 1247   2.408   5.314  15.913 -0.8335 -0.0732  0.4906
   10DOPE   H4X 1248   2.465   5.410  15.914 -0.4074 -0.3220  1.5750
   10DOPE   H4Y 1249   2.479   5.247  15.860  0.9426 -0.3096  3.0167
   10DOPE   C35 1250   2.284   5.319  15.819  0.1000  0.1951 -0.2511
   10DOPE   H5X 1251   2.209   5.368  15.885  0.0603 -1.6955  1.1939
   10DOPE   H5Y 1252   2.249   5.215  15.803 -1.5521  0.7787 -0.6168
   10DOPE   C36 1253   2.312   5.391  15.691  0.2965 -0.3533  0.4237
   10DOPE   H6X 1254   2.375   5.323  15.629  2.8939 -0.2920  2.7763
   10DOPE   H6Y 1255   2.376   5.481  15.703 -0.1801  0.0342  0.0746
   10DOPE   C37 1256   2.183   5.431  15.621 -0.3923 -0.0541  0.2449
   10DOPE   H7X 1257   2.126   5.347  15.578 -0.5943  0.7648 -1.1592
   10DOPE   H7Y 1258   2.120   5.482  15.697 -1.5043 -3.1174  1.5359
   10DOPE   C38 1259   2.207   5.522  15.497  0.0754 -0.2670 -0.2080
   10DOPE   H8X 1260   2.114   5.526  15.436 -1.7814  3.0030  2.4517
   10DOPE   H8Y 1261   2.285   5.473  15.435 -0.1383  0.3049 -0.9519
   10DOPE   C39 1262   2.235   5.665  15.533  0.0565  0.2213  0.2450
   10DOPE   H9X 1263   2.189   5.695  15.628  0.0851 -0.0825  0.3539
   10DOPE  C310 1264   2.345   5.739  15.492  0.0154 -0.4736 -0.2857
   10DOPE  H10X 1265   2.352   5.835  15.545 -1.1775  0.2371 -1.3373
   10DOPE  C311 1266   2.435   5.721  15.371  0.2653  0.2153 -0.1021
   10DOPE  H11X 1267   2.523   5.663  15.407  0.0760  0.8175  1.3993
   10DOPE  H11Y 1268   2.389   5.654  15.295  0.7823  1.9930 -2.0614
   10DOPE  C312 1269   2.484   5.839  15.286  0.1723  0.5301  0.0667
   10DOPE  H12X 1270   2.502   5.810  15.180 -2.1519 -2.0046  0.2492
   10DOPE  H12Y 1271   2.581   5.873  15.328  2.0013 -1.8361 -1.8922
   10DOPE  C313 1272   2.376   5.953  15.278  0.1456 -0.3865 -0.0295
   10DOPE  H13X 1273   2.285   5.905  15.237  0.2826  1.0158 -2.1412
   10DOPE  H13Y 1274   2.378   5.975  15.387 -0.7702  2.2145 -0.4651
   10DOPE  C314 1275   2.422   6.087  15.228  0.1499  0.0113  0.0517
   10DOPE  H14X 1276   2.516   6.119  15.278 -0.7368  0.6150  1.4348
   10DOPE  H14Y 1277   2.335   6.156  15.236 -0.4836 -0.7753  0.0617
   10DOPE  C315 1278   2.443   6.073  15.071  0.3233 -0.3699  0.6590
   10DOPE  H15X 1279   2.365   6.001  15.038 -1.8261  0.4506  3.5324
   10DOPE  H15Y 1280   2.537   6.020  15.046 -1.8026 -3.5052 -1.3498
   10DOPE  C316 1281   2.427   6.205  14.996  0.1134 -0.8426  0.0089
   10DOPE  H16X 1282   2.507   6.272  15.034 -0.7070  0.7157 -0.9332
   10DOPE  H16Y 1283   2.328   6.251  15.020  0.5828 -0.6188  1.6447
   10DOPE  C317 1284   2.448   6.193  14.845  0.1514  0.2448 -0.6368
   10DOPE  H17X 1285   2.545   6.140  14.832  0.1070 -0.5712  1.7754
   10DOPE  H17Y 1286   2.374   6.118  14.809 -0.5682  0.5649  0.1644
   10DOPE  C318 1287   2.438   6.329  14.777 -0.9601 -0.4679 -0.2789
   10DOPE  H18X 1288   2.515   6.404  14.805  1.1767 -1.7387 -2.3765
   10DOPE  H18Y 1289   2.439   6.317  14.667 -0.4252  0.9637 -0.4518
   10DOPE  H18Z 1290   2.343   6.381  14.803  0.7042  1.8944  1.5009
   11DOPE     N 1291   1.654   3.071  17.097  0.2552 -0.4675  0.1650
   11DOPE   HN1 1292   1.742   3.048  17.147 -0.2208 -2.2268  0.2399
   11DOPE   HN2 1293   1.621   3.167  17.118 -3.5591 -2.0483  2.4314
   11DOPE   HN3 1294   1.588   2.998  17.132  2.5850 -3.1708 -0.6945
   11DOPE   C12 1295   1.659   3.055  16.946 -0.3090 -0.2809 -0.4202
   11DOPE  H12A 1296   1.558   3.080  16.909 -0.6686 -0.1997  0.5843
   11DOPE  H12B 1297   1.682   2.949  16.922  0.4467  0.2159 -2.0656
   11DOPE   C11 1298   1.760   3.143  16.884 -0.1281  0.1590 -0.2956
   11DOPE  H11A 1299   1.727   3.249  16.872 -2.0932 -0.4283 -0.2616
   11DOPE  H11B 1300   1.760   3.112  16.777 -2.1262  0.2098 -0.3313
   11DOPE     P 1301   2.029   3.109  16.875  0.0468  0.1180  0.1400
   11DOPE   O13 1302   2.036   2.964  16.854  0.1425 -0.2384 -0.1138
   11DOPE   O14 1303   2.133   3.170  16.950 -0.5271 -0.0470  0.0715
   11DOPE   O11 1304   2.017   3.185  16.736 -0.8144 -0.0387 -0.4029
   11DOPE   O12 1305   1.889   3.131  16.945  0.1478  0.2178  0.2267
   11DOPE    C1 1306   2.141   3.194  16.656 -0.0206  0.2422 -0.8599
   11DOPE    HA 1307   2.235   3.206  16.712 -0.2045  0.3662 -0.5763
   11DOPE    HB 1308   2.139   3.289  16.599 -1.3343  1.2916  0.8382
   11DOPE    C2 1309   2.145   3.074  16.559  0.3538  0.1848  0.0664
   11DOPE    HS 1310   2.131   2.980  16.617  0.7664  0.7125  1.0419
   11DOPE   O21 1311   2.271   3.077  16.498 -1.0612  0.0308 -0.0803
   11DOPE   C21 1312   2.321   2.957  16.462 -0.1095 -0.3305  0.0271
   11DOPE   O22 1313   2.264   2.850  16.469  0.1996 -0.0630  0.6036
   11DOPE   C22 1314   2.459   2.980  16.405 -0.6345  0.2033 -0.1307
   11DOPE   H2R 1315   2.518   2.886  16.410 -0.5269  0.3119  0.8062
   11DOPE   H2S 1316   2.517   3.049  16.470 -1.8258 -0.9435  2.2644
   11DOPE    C3 1317   2.038   3.087  16.442  0.4625  0.6408 -0.0069
   11DOPE    HX 1318   2.083   3.173  16.389  3.2209 -0.0903  0.9827
   11DOPE    HY 1319   1.940   3.114  16.488 -0.4363  0.5476 -1.7656
   11DOPE   O31 1320   2.033   2.975  16.355 -0.7321  0.8880  0.4310
   11DOPE   C31 1321   1.963   2.869  16.401  0.7467  0.6559 -0.2077
   11DOPE   O32 1322   1.905   2.863  16.509 -0.5892 -0.0431  0.0914
   11DOPE   C32 1323   1.972   2.757  16.298 -0.3724 -0.5037  0.1577
   11DOPE   H2X 1324   1.965   2.799  16.195  1.7401  0.7661  0.4702
   11DOPE   H2Y 1325   2.076   2.717  16.302  0.4977  1.7110  0.7384
   11DOPE   C23 1326   2.448   3.038  16.264 -0.1299 -0.1994 -0.4739
   11DOPE   H3R 1327   2.549   3.062  16.223  0.3049 -0.4155  0.4469
   11DOPE   H3S 1328   2.391   3.132  16.251 -1.1521 -0.8840 -1.0607
   11DOPE   C24 1329   2.393   2.934  16.169  0.2849 -0.3713 -0.0670
   11DOPE   H4R 1330   2.292   2.897  16.193  1.1213 -3.5035 -0.9942
   11DOPE   H4S 1331   2.460   2.847  16.187  1.7458  0.6964 -0.1220
   11DOPE   C25 1332   2.401   2.983  16.020  0.3052 -0.1230  0.8953
   11DOPE   H5R 1333   2.438   2.891  15.969 -0.6655 -1.1379  1.9371
   11DOPE   H5S 1334   2.459   3.077  16.011 -0.1088 -0.0155 -0.8968
   11DOPE   C26 1335   2.260   3.006  15.957  0.2477 -1.0886  0.8751
   11DOPE   H6R 1336   2.203   2.910  15.957 -0.8636 -0.4521  1.0133
   11DOPE   H6S 1337   2.275   3.034  15.851 -0.4462 -1.2476  0.7300
   11DOPE   C27 1338   2.179   3.112  16.032 -0.3207 -0.2012 -0.5152
   11DOPE   H7R 1339   2.206   3.099  16.139 -0.1244  1.4165 -0.3487
   11DOPE   H7S 1340   2.072   3.087  16.010 -0.3211 -0.2942 -0.4106
   11DOPE   C28 1341   2.196   3.264  16.008 -0.5258  0.5703  0.1522
   11DOPE   H8R 1342   2.172   3.291  15.903 -0.1068 -1.1964 -0.4371
   11DOPE   H8S 1343   2.305   3.282  16.016 -0.4881  0.4847 -0.1563
   11DOPE   C29 1344   2.117   3.351  16.104 -0.0817  0.5312 -0.4966
   11DOPE   H9R 1345   2.008   3.352  16.090 -0.5137  1.7065  2.2549
   11DOPE  C210 1346   2.156   3.437  16.202  1.1729  0.6577  0.0676
   11DOPE  H10R 1347   2.083   3.499  16.256 -1.4894 -2.0725 -0.1601
   11DOPE  C211 1348   2.297   3.462  16.242  0.2177 -0.3536 -0.2603
   11DOPE  H11R 1349   2.330   3.567  16.227 -1.1216  0.7471  3.3820
   11DOPE  H11S 1350   2.368   3.406  16.178 -2.8399 -2.2481 -2.2574
   11DOPE  C212 1351   2.320   3.422  16.387 -0.5013  0.4370  0.2908
   11DOPE  H12R 1352   2.326   3.314  16.410  2.6335  0.8197  1.7988
   11DOPE  H12S 1353   2.232   3.458  16.444 -0.8517  2.8954 -1.6262
   11DOPE  C213 1354   2.447   3.469  16.456 -0.0453  0.0151  0.0174
   11DOPE  H13R 1355   2.434   3.578  16.474  3.1712  0.7151 -1.1636
   11DOPE  H13S 1356   2.536   3.462  16.390  1.3452  2.5351  1.4342
   11DOPE  C214 1357   2.470   3.395  16.593  0.1988 -1.0305  0.3645
   11DOPE  H14R 1358   2.482   3.286  16.573  0.1864 -0.7530 -1.3049
   11DOPE  H14S 1359   2.370   3.406  16.639 -0.3973  1.2869 -1.3336
   11DOPE  C215 1360   2.582   3.448  16.683  0.6765 -0.3227 -0.3167
   11DOPE  H15R 1361   2.667   3.428  16.615 -0.3617 -1.7823 -1.2733
   11DOPE  H15S 1362   2.591   3.378  16.769 -0.6887  1.1408  1.0993
   11DOPE  C216 1363   2.595   3.601  16.703  0.9064  0.6597  0.4050
   11DOPE  H16R 1364   2.501   3.640  16.748 -0.5574 -1.4304 -0.6586
   11DOPE  H16S 1365   2.591   3.649  16.603  0.6842  0.3493  0.2631
   11DOPE  C217 1366   2.708   3.638  16.789 -0.2031  0.1120  0.7265
   11DOPE  H17R 1367   2.803   3.590  16.757  0.4000  0.4929  1.9093
   11DOPE  H17S 1368   2.693   3.603  16.893 -0.6393  3.1345  1.7785
   11DOPE  C218 1369   2.734   3.789  16.792 -0.6094 -0.3315 -0.3833
   11DOPE  H18R 1370   2.642   3.846  16.815  0.0681 -0.1290  2.0458
   11DOPE  H18S 1371   2.768   3.822  16.691  0.7556 -2.8368 -0.8351
   11DOPE  H18T 1372   2.810   3.813  16.869 -0.0674  0.3242 -1.1024
   11DOPE   C33 1373   1.867   2.650  16.306  0.2930  0.9144 -0.7057
   11DOPE   H3X 1374   1.880   2.587  16.397  0.0549 -0.9947 -1.9371
   11DOPE   H3Y 1375   1.867   2.568  16.231  0.3227 -1.9490  2.2240
   11DOPE   C34 1376   1.722   2.700  16.306  0.1054 -0.0327  1.1847
   11DOPE   H4X 1377   1.650   2.618  16.327  0.1660  0.1294  2.1017
   11DOPE   H4Y 1378   1.713   2.785  16.378  2.0518  1.6287 -0.3966
   11DOPE   C35 1379   1.670   2.753  16.164 -0.1654 -0.0423  0.0452
   11DOPE   H5X 1380   1.754   2.814  16.126 -0.5261  0.9402  0.7681
   11DOPE   H5Y 1381   1.588   2.827  16.181  2.2812  3.6805 -2.8405
   11DOPE   C36 1382   1.641   2.640  16.064  0.2237  0.2598 -0.7925
   11DOPE   H6X 1383   1.549   2.589  16.098  0.7941 -0.0787  0.3120
   11DOPE   H6Y 1384   1.724   2.566  16.066 -0.1747 -0.3136 -3.1003
   11DOPE   C37 1385   1.628   2.688  15.917 -0.0139 -0.7315 -0.3068
   11DOPE   H7X 1386   1.704   2.769  15.906 -2.4857  1.7717  0.1202
   11DOPE   H7Y 1387   1.640   2.601  15.848 -1.2993  0.3713 -2.0111
   11DOPE   C38 1388   1.493   2.751  15.892 -0.7565  0.0339  0.3962
   11DOPE   H8X 1389   1.496   2.803  15.794 -0.6203 -0.2396  0.2502
   11DOPE   H8Y 1390   1.475   2.831  15.966 -0.8241  0.5712 -0.1948
   11DOPE   C39 1391   1.381   2.645  15.880 -0.2583 -0.1328 -0.1848
   11DOPE   H9X 1392   1.321   2.621  15.969 -1.1901  1.3857 -0.3672
   11DOPE  C310 1393   1.352   2.582  15.765  0.2573  0.4975  0.2068
   11DOPE  H10X 1394   1.260   2.521  15.763  1.6181 -1.6497  0.2954
   11DOPE  C311 1395   1.431   2.596  15.635 -0.6189  0.5043 -0.4983
   11DOPE  H11X 1396   1.394   2.691  15.592 -2.6478 -0.5433 -1.2074
   11DOPE  H11Y 1397   1.533   2.610  15.677 -1.0219 -0.4425  0.8914
   11DOPE  C312 1398   1.428   2.477  15.533  0.2648 -0.0884 -0.2062
   11DOPE  H12X 1399   1.448   2.382  15.585 -2.9470 -1.1956 -0.7592
   11DOPE  H12Y 1400   1.513   2.490  15.463 -0.4102  0.2170 -0.9898
   11DOPE  C313 1401   1.298   2.450  15.469 -1.0295 -0.2778 -0.6066
   11DOPE  H13X 1402   1.230   2.409  15.546 -0.6859  0.2987  0.0106
   11DOPE  H13Y 1403   1.250   2.539  15.424  1.4386  0.9427 -0.9543
   11DOPE  C314 1404   1.308   2.331  15.368  0.0610  0.3556  0.2118
   11DOPE  H14X 1405   1.209   2.285  15.350  0.2086  0.9505 -2.5065
   11DOPE  H14Y 1406   1.373   2.248  15.404 -0.1710  0.9171  2.0403
   11DOPE  C315 1407   1.350   2.385  15.235  0.1884 -0.4403  0.2781
   11DOPE  H15X 1408   1.457   2.418  15.232  0.7770 -2.2665 -0.3247
   11DOPE  H15Y 1409   1.283   2.464  15.196  0.3765 -1.4522 -2.2994
   11DOPE  C316 1410   1.340   2.274  15.132  0.0574 -0.1725  0.3171
   11DOPE  H16X 1411   1.235   2.240  15.116  0.1463 -0.5112  0.4476
   11DOPE  H16Y 1412   1.390   2.184  15.175  0.1076 -0.4021 -0.2245
   11DOPE  C317 1413   1.411   2.300  14.995 -0.0856 -0.1522 -0.1653
   11DOPE  H17X 1414   1.372   2.231  14.917  1.0511  0.6278 -1.4688
   11DOPE  H17Y 1415   1.391   2.405  14.964 -1.1735 -0.0603  0.8013
   11DOPE  C318 1416   1.561   2.293  15.001 -0.1026  0.7545 -0.2965
   11DOPE  H18X 1417   1.586   2.188  15.028 -3.0152  0.1988  0.6515
   11DOPE  H18Y 1418   1.599   2.304  14.898 -1.4884  0.4109 -0.8725
   11DOPE  H18Z 1419   1.598   2.359  15.083 -1.7477 -0.0459  1.1525
   12DOPE     N 1420   4.095   7.166  16.712  0.4597 -0.2149 -0.7818
   12DOPE   HN1 1421   4.194   7.198  16.718 -0.3138  2.0605  3.1523
   12DOPE   HN2 1422   4.045   7.257  16.705 -1.4960 -0.8538  2.8749
   12DOPE   HN3 1423   4.081   7.111  16.799  0.3340 -0.2818 -0.8437
   12DOPE   C12 1424   4.069   7.074  16.597 -0.5623  0.1101  0.7156
   12DOPE  H12A 1425   3.962   7.075  16.567 -0.2537  0.2050 -0.4189
   12DOPE  H12B 1426   4.094   6.974  16.638 -1.2817  0.2972  1.6443
   12DOPE   C11 1427   4.166   7.110  16.481 -0.1190 -0.5284  0.0531
   12DOPE  H11A 1428   4.128   7.205  16.440  1.0441  0.6003  1.4590
   12DOPE  H11B 1429   4.162   7.034  16.400 -1.1020  2.9395 -3.4432
   12DOPE     P 1430   4.391   7.019  16.586  0.5865  0.1835 -0.1338
   12DOPE   O13 1431   4.342   6.998  16.722 -0.6019 -0.2772  0.1804
   12DOPE   O14 1432   4.530   7.050  16.556  0.4485  0.0045 -0.0833
   12DOPE   O11 1433   4.347   6.892  16.508 -0.1283 -0.2333  0.2174
   12DOPE   O12 1434   4.298   7.133  16.533  0.4324  0.1485  0.0173
   12DOPE    C1 1435   4.414   6.763  16.523 -0.0788  0.7464 -0.4911
   12DOPE    HA 1436   4.335   6.685  16.511 -0.5465  1.2259 -0.5590
   12DOPE    HB 1437   4.450   6.753  16.627  0.3339  0.0879 -0.6941
   12DOPE    C2 1438   4.526   6.752  16.414 -0.1706  0.1849 -0.2049
   12DOPE    HS 1439   4.583   6.847  16.422 -0.0641  0.4601 -3.1703
   12DOPE   O21 1440   4.466   6.732  16.283 -0.6849  0.0070  0.4784
   12DOPE   C21 1441   4.523   6.791  16.183  0.1727 -0.9887 -0.4517
   12DOPE   O22 1442   4.620   6.862  16.195 -1.3250 -0.0052  0.0964
   12DOPE   C22 1443   4.443   6.758  16.059  0.0670 -0.7667 -0.0197
   12DOPE   H2R 1444   4.339   6.793  16.072  0.0983  0.1957 -1.9270
   12DOPE   H2S 1445   4.436   6.647  16.051 -0.7546 -0.6478 -1.3842
   12DOPE    C3 1446   4.618   6.626  16.425 -0.8911  0.1526 -0.1658
   12DOPE    HX 1447   4.552   6.537  16.425 -0.7502  0.0260 -1.3614
   12DOPE    HY 1448   4.655   6.622  16.529  0.8872  0.0926 -0.7683
   12DOPE   O31 1449   4.720   6.622  16.321  0.1270 -0.3778  0.0319
   12DOPE   C31 1450   4.826   6.695  16.334 -0.0020  0.5399  0.4260
   12DOPE   O32 1451   4.863   6.764  16.429  0.3808 -0.0558  0.6343
   12DOPE   C32 1452   4.906   6.682  16.202  0.6219  0.8291 -0.5136
   12DOPE   H2X 1453   4.915   6.574  16.178 -0.0572  0.1216  2.0610
   12DOPE   H2Y 1454   4.844   6.730  16.123  1.4376 -0.1645 -1.8005
   12DOPE   C23 1455   4.503   6.822  15.934 -0.4970  0.4948  0.2369
   12DOPE   H3R 1456   4.605   6.779  15.933 -0.1874  1.2043  0.6564
   12DOPE   H3S 1457   4.488   6.930  15.916 -0.3865  0.6041  0.7728
   12DOPE   C24 1458   4.455   6.752  15.801  0.0466 -0.2970 -0.3058
   12DOPE   H4R 1459   4.481   6.644  15.806  0.0033 -0.2439  1.4865
   12DOPE   H4S 1460   4.504   6.804  15.715  1.4819 -0.5598  0.3268
   12DOPE   C25 1461   4.310   6.776  15.769  0.4000 -0.7315  0.8783
   12DOPE   H5R 1462   4.302   6.887  15.768  1.4744 -0.6237 -0.8573
   12DOPE   H5S 1463   4.249   6.738  15.854 -1.4838  3.0910  1.4587
   12DOPE   C26 1464   4.275   6.709  15.631  0.2914 -0.1361  0.1069
   12DOPE   H6R 1465   4.341   6.757  15.556 -2.6656 -0.7780 -3.1752
   12DOPE   H6S 1466   4.181   6.756  15.595  0.0410 -0.0728  0.8120
   12DOPE   C27 1467   4.278   6.561  15.627 -0.0644 -0.0550  0.4018
   12DOPE   H7R 1468   4.194   6.524  15.690 -0.8541  1.5478  0.3303
   12DOPE   H7S 1469   4.372   6.536  15.681 -0.7450 -0.7363  1.3153
   12DOPE   C28 1470   4.282   6.505  15.483 -0.3294  0.7401  0.1295
   12DOPE   H8R 1471   4.337   6.409  15.482  0.4752  1.1962 -0.1949
   12DOPE   H8S 1472   4.344   6.573  15.420  1.7938 -0.8345  0.4161
   12DOPE   C29 1473   4.146   6.496  15.421 -0.1298  0.7629 -0.6885
   12DOPE   H9R 1474   4.068   6.511  15.497  0.0988 -1.0658 -0.0254
   12DOPE  C210 1475   4.111   6.490  15.293 -0.3354 -0.2230 -0.0092
   12DOPE  H10R 1476   4.004   6.497  15.268 -0.7917  1.2655  2.1283
   12DOPE  C211 1477   4.199   6.474  15.170 -0.0954 -0.2046 -0.1681
   12DOPE  H11R 1478   4.305   6.452  15.198 -0.4027  0.0090  1.2282
   12DOPE  H11S 1479   4.192   6.572  15.118 -1.2616  0.2347  0.7929
   12DOPE  C212 1480   4.139   6.375  15.069 -0.5283 -0.0497  0.3778
   12DOPE  H12R 1481   4.137   6.274  15.115  1.0001 -0.3108 -0.0742
   12DOPE  H12S 1482   4.210   6.362  14.984  0.1598 -2.4094  1.2247
   12DOPE  C213 1483   4.014   6.422  15.006 -0.2282  0.4628 -0.6299
   12DOPE  H13R 1484   4.016   6.532  14.988  1.5291  0.9007  1.7675
   12DOPE  H13S 1485   3.925   6.399  15.070  0.0130  2.3310  0.4412
   12DOPE  C214 1486   3.986   6.353  14.870  0.2878 -0.6397  0.7014
   12DOPE  H14R 1487   4.060   6.412  14.811  0.2136  0.0483  1.2756
   12DOPE  H14S 1488   3.891   6.393  14.828  1.1197  2.9010  1.8116
   12DOPE  C215 1489   4.003   6.201  14.860 -0.2636  0.2319 -0.2831
   12DOPE  H15R 1490   3.947   6.160  14.946  0.4804 -0.3903 -0.0737
   12DOPE  H15S 1491   4.110   6.173  14.873  0.3444  1.4255 -2.1864
   12DOPE  C216 1492   3.957   6.157  14.726  0.3210 -0.3268  0.7519
   12DOPE  H16R 1493   4.008   6.218  14.648  0.4788 -1.9117 -0.4226
   12DOPE  H16S 1494   3.853   6.191  14.707  0.1569 -0.1437  1.9095
   12DOPE  C217 1495   3.973   6.007  14.697 -0.0280  0.0139 -0.2338
   12DOPE  H17R 1496   4.080   5.984  14.720  0.9472  3.4284 -0.8247
   12DOPE  H17S 1497   3.946   5.982  14.592 -0.9745 -3.9365  0.7709
   12DOPE  C218 1498   3.874   5.927  14.782  0.1833  0.3550  0.0128
   12DOPE  H18R 1499   3.889   5.818  14.771  2.6849  0.7583 -1.6170
   12DOPE  H18S 1500   3.770   5.960  14.764 -0.2769 -0.5498  0.9099
   12DOPE  H18T 1501   3.896   5.956  14.887  0.5819 -1.3380  0.4286
   12DOPE   C33 1502   5.047   6.743  16.229 -0.6793 -0.1494 -0.6751
   12DOPE   H3X 1503   5.108   6.680  16.298 -1.3576 -0.8098 -0.6593
   12DOPE   H3Y 1504   5.037   6.847  16.267 -1.2287 -0.9396  1.5332
   12DOPE   C34 1505   5.134   6.745  16.106 -0.5041 -0.3346  0.1298
   12DOPE   H4X 1506   5.094   6.675  16.029 -0.1371  2.3493 -2.6805
   12DOPE   H4Y 1507   5.118   6.837  16.046 -1.5037 -0.9353 -0.5600
   12DOPE   C35 1508   5.283   6.704  16.132  0.6822  0.1225 -0.4642
   12DOPE   H5X 1509   5.289   6.596  16.157 -0.5595  0.2472  0.4968
   12DOPE   H5Y 1510   5.316   6.774  16.212 -0.9741  1.0150 -0.5078
   12DOPE   C36 1511   5.370   6.752  16.016  0.7025  0.0782 -0.2795
   12DOPE   H6X 1512   5.337   6.693  15.928  2.1760 -0.5889 -0.4114
   12DOPE   H6Y 1513   5.469   6.707  16.040 -0.2944 -1.0561  2.0297
   12DOPE   C37 1514   5.380   6.907  15.990 -0.8150  0.4789  0.1829
   12DOPE   H7X 1515   5.276   6.946  15.981 -0.5316  1.6981  1.6820
   12DOPE   H7Y 1516   5.430   6.945  16.082 -0.1173  1.0027 -0.4025
   12DOPE   C38 1517   5.478   6.942  15.870 -0.3976  0.0613  0.2836
   12DOPE   H8X 1518   5.414   6.919  15.782 -0.2326 -0.1568  0.2171
   12DOPE   H8Y 1519   5.557   6.865  15.862  0.1182  0.6319 -0.1496
   12DOPE   C39 1520   5.535   7.086  15.863 -0.7184  0.0754 -0.0089
   12DOPE   H9X 1521   5.473   7.160  15.915 -1.8627  0.6208 -2.0005
   12DOPE  C310 1522   5.631   7.132  15.774 -0.4548 -0.6266  0.0749
   12DOPE  H10X 1523   5.681   7.228  15.796  0.1457 -1.0159  0.4740
   12DOPE  C311 1524   5.706   7.046  15.672  0.8047 -0.0678  0.7631
   12DOPE  H11X 1525   5.801   7.015  15.722  0.2519 -0.3536  1.6734
   12DOPE  H11Y 1526   5.649   6.951  15.665  0.0452  0.4230  0.1372
   12DOPE  C312 1527   5.716   7.106  15.531 -0.6528 -0.4273  0.0731
   12DOPE  H12X 1528   5.784   7.194  15.536 -1.0165  0.0369 -1.9279
   12DOPE  H12Y 1529   5.619   7.146  15.494 -0.0222  0.8163 -0.2971
   12DOPE  C313 1530   5.764   7.021  15.419  0.0291  0.9019 -0.0254
   12DOPE  H13X 1531   5.859   6.974  15.452 -0.7605 -1.1861 -0.5669
   12DOPE  H13Y 1532   5.688   6.941  15.405  1.3263 -0.4835  0.5466
   12DOPE  C314 1533   5.791   7.090  15.290  0.1191 -0.3203  0.0667
   12DOPE  H14X 1534   5.865   7.170  15.310 -0.9597  0.5405  0.7743
   12DOPE  H14Y 1535   5.698   7.141  15.257 -0.9340 -1.8124  0.6361
   12DOPE  C315 1536   5.850   6.996  15.178 -0.0577 -0.0672 -0.6980
   12DOPE  H15X 1537   5.791   6.905  15.154  1.0966 -1.7642  2.3165
   12DOPE  H15Y 1538   5.937   6.945  15.223 -1.3680 -1.8064 -0.0063
   12DOPE  C316 1539   5.874   7.068  15.052  0.4702  0.5261  0.8309
   12DOPE  H16X 1540   5.957   7.140  15.071  0.6656  1.7298 -3.4102
   12DOPE  H16Y 1541   5.780   7.123  15.028  0.9152 -0.4254 -4.3697
   12DOPE  C317 1542   5.917   6.971  14.939  0.4412  0.0519  0.2314
   12DOPE  H17X 1543   5.965   7.028  14.856  0.9517 -1.7506 -0.7625
   12DOPE  H17Y 1544   5.994   6.902  14.981 -0.7446  0.2209  2.9061
   12DOPE  C318 1545   5.792   6.893  14.877 -0.6786  0.1123 -0.2680
   12DOPE  H18X 1546   5.768   6.921  14.772 -0.8224 -0.0126 -0.2690
   12DOPE  H18Y 1547   5.834   6.790  14.878  1.2570  0.8501 -1.0228
   12DOPE  H18Z 1548   5.697   6.898  14.933 -1.3306  4.1983 -1.4350
   13DOPE     N 1549   3.592   1.015  17.005  0.1287  0.1651 -0.3409
   13DOPE   HN1 1550   3.671   0.976  17.061 -0.4376 -1.7164 -0.7701
   13DOPE   HN2 1551   3.593   1.111  16.966  1.0190  0.8325  1.2209
   13DOPE   HN3 1552   3.510   1.019  17.069  1.8625 -1.7664  2.2270
   13DOPE   C12 1553   3.565   0.930  16.887 -0.1161 -0.6711 -0.1525
   13DOPE  H12A 1554   3.619   0.980  16.804 -1.7894 -0.4208 -1.1174
   13DOPE  H12B 1555   3.460   0.940  16.852  0.7015  0.9412 -2.3709
   13DOPE   C11 1556   3.611   0.784  16.902 -0.1437  0.3337 -0.6200
   13DOPE  H11A 1557   3.601   0.723  16.810  0.5232  0.2899 -0.6625
   13DOPE  H11B 1558   3.540   0.734  16.971 -3.0675  3.3645 -1.1520
   13DOPE     P 1559   3.863   0.804  16.875 -0.1418  0.1655 -0.2060
   13DOPE   O13 1560   3.962   0.705  16.915 -0.1104  0.3857 -0.5567
   13DOPE   O14 1561   3.916   0.945  16.887  0.5619  0.2036  0.3494
   13DOPE   O11 1562   3.823   0.780  16.725 -0.1347 -0.3566 -0.3823
   13DOPE   O12 1563   3.736   0.772  16.961  0.5694 -0.4744 -0.7501
   13DOPE    C1 1564   3.827   0.647  16.677 -0.4330 -0.2106  0.7311
   13DOPE    HA 1565   3.763   0.577  16.734 -0.2783 -1.2569 -0.3441
   13DOPE    HB 1566   3.932   0.614  16.694 -0.6256 -1.5269 -0.4474
   13DOPE    C2 1567   3.799   0.644  16.521 -0.1290  0.2606 -0.8754
   13DOPE    HS 1568   3.879   0.709  16.480 -1.0038  0.7963 -1.7566
   13DOPE   O21 1569   3.660   0.692  16.492 -1.0113  0.3065 -0.2376
   13DOPE   C21 1570   3.652   0.823  16.484 -0.1550  0.2099  0.5290
   13DOPE   O22 1571   3.754   0.894  16.482  0.2145 -0.2766  0.2439
   13DOPE   C22 1572   3.508   0.862  16.472  0.2554  0.3209 -0.2929
   13DOPE   H2R 1573   3.469   0.919  16.559  0.4590  1.6897 -1.0664
   13DOPE   H2S 1574   3.453   0.767  16.458 -0.2100  0.8289 -2.2234
   13DOPE    C3 1575   3.827   0.500  16.469 -0.7140  0.2512  0.5596
   13DOPE    HX 1576   3.757   0.429  16.519 -1.4012  0.0234 -0.7017
   13DOPE    HY 1577   3.929   0.479  16.507  0.1420  0.6954 -1.3887
   13DOPE   O31 1578   3.814   0.487  16.327 -0.5920  0.2950  0.8860
   13DOPE   C31 1579   3.700   0.472  16.276  0.6524  0.4549  0.1467
   13DOPE   O32 1580   3.594   0.448  16.334 -0.5954 -0.3580 -0.3202
   13DOPE   C32 1581   3.702   0.460  16.122 -0.6271 -0.2689 -0.9895
   13DOPE   H2X 1582   3.805   0.428  16.094  0.8265 -0.0722  3.2928
   13DOPE   H2Y 1583   3.629   0.380  16.097 -1.9891  0.3697  0.7679
   13DOPE   C23 1584   3.490   0.956  16.352  0.9328 -0.1710  0.4359
   13DOPE   H3R 1585   3.557   1.044  16.363  0.7968  0.6087 -3.5722
   13DOPE   H3S 1586   3.388   1.000  16.361  0.5187 -1.2735  1.2324
   13DOPE   C24 1587   3.504   0.893  16.217 -0.0242  0.4396 -0.1046
   13DOPE   H4R 1588   3.491   0.783  16.224 -0.9758  0.5386 -0.1828
   13DOPE   H4S 1589   3.609   0.908  16.186  0.5388 -1.5140  0.7086
   13DOPE   C25 1590   3.388   0.933  16.119 -0.6193  0.6054 -0.1482
   13DOPE   H5R 1591   3.427   0.943  16.015 -1.4433  3.2316 -0.2866
   13DOPE   H5S 1592   3.368   1.042  16.128  3.2980  1.8062 -2.9119
   13DOPE   C26 1593   3.256   0.848  16.120 -0.1286 -0.1304  0.8685
   13DOPE   H6R 1594   3.231   0.834  16.227 -2.7869 -1.4812  0.1464
   13DOPE   H6S 1595   3.282   0.749  16.077 -0.1707  0.0256  0.4700
   13DOPE   C27 1596   3.144   0.930  16.053 -0.1978  0.4088 -0.4053
   13DOPE   H7R 1597   3.183   0.964  15.955 -0.0588 -1.2144 -0.9260
   13DOPE   H7S 1598   3.119   1.018  16.117 -0.2556  0.0130  0.1197
   13DOPE   C28 1599   3.023   0.840  16.022 -0.3993 -0.0002 -0.4613
   13DOPE   H8R 1600   2.998   0.804  16.124 -1.2429 -1.5170 -1.1696
   13DOPE   H8S 1601   3.062   0.752  15.966  0.9545 -0.5322  1.2458
   13DOPE   C29 1602   2.906   0.910  15.962 -0.3192  0.3302 -0.0340
   13DOPE   H9R 1603   2.817   0.916  16.026 -0.7132  0.3509 -0.5779
   13DOPE  C210 1604   2.889   0.959  15.838 -0.7609  0.3083  0.1756
   13DOPE  H10R 1605   2.798   1.019  15.822 -0.9889  0.4892  1.9273
   13DOPE  C211 1606   2.991   0.967  15.723  0.1063 -0.2686 -0.4795
   13DOPE  H11R 1607   3.091   0.927  15.746  0.8370  1.6690 -0.0525
   13DOPE  H11S 1608   3.006   1.074  15.695 -0.4704  0.6540  2.4438
   13DOPE  C212 1609   2.948   0.880  15.610 -0.2011  0.1606 -0.4844
   13DOPE  H12R 1610   2.925   0.775  15.637 -0.6106  0.8220  2.0068
   13DOPE  H12S 1611   3.029   0.875  15.534  2.6243  0.2139  2.2951
   13DOPE  C213 1612   2.822   0.929  15.543  0.4937  0.1110 -0.3876
   13DOPE  H13R 1613   2.816   1.040  15.535  0.7151  0.2188  0.7695
   13DOPE  H13S 1614   2.737   0.900  15.609 -0.4299  1.8591 -0.7330
   13DOPE  C214 1615   2.811   0.870  15.401  0.0271 -0.5370  0.3938
   13DOPE  H14R 1616   2.801   0.761  15.421 -0.3318 -0.6340 -0.2790
   13DOPE  H14S 1617   2.905   0.876  15.343  0.8058 -1.2259  1.5358
   13DOPE  C215 1618   2.678   0.918  15.331  0.0003  0.2301 -0.1547
   13DOPE  H15R 1619   2.683   1.029  15.321  1.7208 -0.0129 -3.1425
   13DOPE  H15S 1620   2.598   0.884  15.401  0.1504  0.3748  0.0907
   13DOPE  C216 1621   2.664   0.870  15.191 -0.4391  0.2615 -0.5127
   13DOPE  H16R 1622   2.635   0.764  15.208  2.2983 -0.4215  0.4079
   13DOPE  H16S 1623   2.762   0.877  15.140 -0.9033  0.8296 -1.3677
   13DOPE  C217 1624   2.553   0.930  15.105 -0.0313  0.5728  0.3539
   13DOPE  H17R 1625   2.569   0.879  15.008  2.7398 -2.5086  2.2062
   13DOPE  H17S 1626   2.569   1.038  15.081  0.5673  0.0400 -1.8444
   13DOPE  C218 1627   2.416   0.902  15.164  0.1039  1.2103  0.1242
   13DOPE  H18R 1628   2.406   0.792  15.172  0.5184  1.1796  0.2103
   13DOPE  H18S 1629   2.342   0.943  15.091 -0.2958 -1.1515 -0.8604
   13DOPE  H18T 1630   2.395   0.939  15.267 -0.0268  0.4628  0.3656
   13DOPE   C33 1631   3.644   0.583  16.041  0.0402  0.9324 -0.5897
   13DOPE   H3X 1632   3.701   0.673  16.073  1.0471 -0.3836  1.4897
   13DOPE   H3Y 1633   3.537   0.599  16.067 -0.0948  1.4150 -1.3900
   13DOPE   C34 1634   3.656   0.556  15.889  0.5281  0.5437  0.0997
   13DOPE   H4X 1635   3.762   0.561  15.858  0.7495 -0.3307  0.6804
   13DOPE   H4Y 1636   3.630   0.448  15.880  0.1959  0.5459  0.9499
   13DOPE   C35 1637   3.566   0.642  15.805 -0.7351 -0.1615  0.5359
   13DOPE   H5X 1638   3.467   0.641  15.856 -1.6606 -0.0090 -1.1926
   13DOPE   H5Y 1639   3.552   0.598  15.704  0.6105 -0.9539  0.6690
   13DOPE   C36 1640   3.613   0.789  15.800 -0.1720  0.1300 -0.0914
   13DOPE   H6X 1641   3.722   0.793  15.781 -0.0093 -0.5383  0.6469
   13DOPE   H6Y 1642   3.614   0.828  15.904 -1.8549 -2.0626  0.8323
   13DOPE   C37 1643   3.532   0.886  15.719 -0.3938  0.0218  0.0742
   13DOPE   H7X 1644   3.426   0.856  15.729 -1.3513  1.3982 -4.0139
   13DOPE   H7Y 1645   3.548   0.983  15.769 -1.4827  0.2087  0.0710
   13DOPE   C38 1646   3.574   0.876  15.568  0.0528  0.9987  0.5087
   13DOPE   H8X 1647   3.545   0.774  15.533  1.9042  1.0357 -1.2970
   13DOPE   H8Y 1648   3.684   0.871  15.561 -0.0804 -0.9297 -1.0248
   13DOPE   C39 1649   3.520   0.989  15.478 -0.1027  0.0805 -0.6011
   13DOPE   H9X 1650   3.578   1.082  15.478 -0.4205  0.2802 -1.0062
   13DOPE  C310 1651   3.415   0.972  15.397  0.2779  0.4155 -0.0136
   13DOPE  H10X 1652   3.374   1.055  15.338 -3.4006 -1.1344  0.1065
   13DOPE  C311 1653   3.320   0.855  15.395 -0.2329  0.4795 -0.1629
   13DOPE  H11X 1654   3.338   0.784  15.479 -1.0385 -1.0092 -1.1992
   13DOPE  H11Y 1655   3.216   0.887  15.416 -1.7035 -2.5268 -2.1237
   13DOPE  C312 1656   3.320   0.781  15.259 -0.2416  0.2136 -0.8205
   13DOPE  H12X 1657   3.274   0.681  15.276 -0.7315  0.5194 -0.3082
   13DOPE  H12Y 1658   3.426   0.768  15.230  0.1699  3.9128 -1.4328
   13DOPE  C313 1659   3.269   0.855  15.146 -0.3780 -0.1637 -0.6936
   13DOPE  H13X 1660   3.323   0.951  15.141  1.7881 -1.2308  0.6858
   13DOPE  H13Y 1661   3.283   0.802  15.049 -1.7491 -1.4508 -0.2357
   13DOPE  C314 1662   3.114   0.886  15.145 -0.1100 -0.3907 -0.1124
   13DOPE  H14X 1663   3.093   0.961  15.225  1.2888 -0.4740  0.3598
   13DOPE  H14Y 1664   3.047   0.798  15.157 -0.5746  0.1329  1.3423
   13DOPE  C315 1665   3.078   0.960  15.010  0.3160  0.6629  0.1261
   13DOPE  H15X 1666   2.967   0.971  15.003 -0.1937 -1.9320  2.5142
   13DOPE  H15Y 1667   3.112   0.891  14.930 -0.7160  0.6043 -0.2802
   13DOPE  C316 1668   3.141   1.095  14.992  0.4572 -0.2354  0.1550
   13DOPE  H16X 1669   3.252   1.089  14.993  0.4113 -1.4864  1.3028
   13DOPE  H16Y 1670   3.100   1.159  15.073 -2.6538 -0.3225 -1.2457
   13DOPE  C317 1671   3.099   1.169  14.863  0.1275  0.0186 -0.4929
   13DOPE  H17X 1672   3.170   1.253  14.851  1.0566 -0.6486  0.2171
   13DOPE  H17Y 1673   3.106   1.107  14.771 -0.8193 -0.9654  0.0659
   13DOPE  C318 1674   2.962   1.238  14.851 -0.6093 -0.5618 -0.4011
   13DOPE  H18X 1675   2.879   1.164  14.851 -0.9907 -0.1388 -0.7255
   13DOPE  H18Y 1676   2.947   1.300  14.942  0.6378 -1.2146  0.2683
   13DOPE  H18Z 1677   2.961   1.310  14.766 -0.1964 -0.0420  0.0258
   14DOPE     N 1678   0.606   3.944  16.665  0.5603  0.3438 -0.3212
   14DOPE   HN1 1679   0.526   3.951  16.731 -2.1112  3.2106 -3.4329
   14DOPE   HN2 1680   0.702   3.916  16.693  1.1603  3.0950  0.6262
   14DOPE   HN3 1681   0.619   4.045  16.646 -2.2028  0.9616  0.6739
   14DOPE   C12 1682   0.559   3.872  16.549 -0.2204 -0.2609  0.0938
   14DOPE  H12A 1683   0.608   3.923  16.464  1.8891  1.4705  2.2124
   14DOPE  H12B 1684   0.448   3.873  16.545 -0.2395  2.9729 -2.1620
   14DOPE   C11 1685   0.613   3.732  16.561  0.3091  0.2625  0.5370
   14DOPE  H11A 1686   0.720   3.745  16.588  0.2741  1.3111  0.2124
   14DOPE  H11B 1687   0.601   3.689  16.459  0.6249  1.1736  0.1041
   14DOPE     P 1688   0.555   3.493  16.665  0.3474  0.3411  0.0449
   14DOPE   O13 1689   0.465   3.451  16.775 -0.0299 -0.3681  0.4971
   14DOPE   O14 1690   0.698   3.466  16.685 -0.4029 -0.7208  0.2584
   14DOPE   O11 1691   0.511   3.430  16.531  0.9255  0.5583  0.6613
   14DOPE   O12 1692   0.539   3.647  16.649  0.1995  0.1024  0.5799
   14DOPE    C1 1693   0.394   3.472  16.449  0.4381  0.5327  0.0657
   14DOPE    HA 1694   0.424   3.497  16.345  3.3225  1.6636  1.0756
   14DOPE    HB 1695   0.338   3.554  16.499 -0.6074 -1.1400  1.7436
   14DOPE    C2 1696   0.289   3.358  16.442 -0.0475  0.3540 -0.0710
   14DOPE    HS 1697   0.350   3.272  16.405 -0.1808 -0.1901  0.9348
   14DOPE   O21 1698   0.191   3.390  16.341  0.2878 -0.3253 -0.5571
   14DOPE   C21 1699   0.109   3.290  16.304  0.5832 -0.6629 -0.3593
   14DOPE   O22 1700   0.125   3.175  16.338  0.3287  0.2582 -0.0510
   14DOPE   C22 1701   0.001   3.320  16.200  0.4012  0.1744  0.3725
   14DOPE   H2R 1702  -0.076   3.376  16.256 -0.7683 -0.3679 -0.6478
   14DOPE   H2S 1703  -0.048   3.226  16.166 -0.8383  1.0429 -0.3198
   14DOPE    C3 1704   0.227   3.312  16.577 -0.0328 -0.5240  0.4166
   14DOPE    HX 1705   0.313   3.273  16.637  2.0928  1.8524 -0.8693
   14DOPE    HY 1706   0.152   3.232  16.558  1.2271 -1.3338 -1.4973
   14DOPE   O31 1707   0.165   3.427  16.639  0.1647 -0.6134 -0.5998
   14DOPE   C31 1708   0.033   3.437  16.616 -0.3704 -0.0624  0.0469
   14DOPE   O32 1709  -0.034   3.355  16.555  0.3759  0.3241 -0.3772
   14DOPE   C32 1710  -0.031   3.557  16.689  0.5181 -0.7260 -0.5510
   14DOPE   H2X 1711  -0.139   3.537  16.706  0.3887 -0.0890 -0.6058
   14DOPE   H2Y 1712   0.014   3.544  16.790  0.6119 -1.5533 -0.6899
   14DOPE   C23 1713   0.035   3.415  16.083 -0.0517 -0.3036 -0.2796
   14DOPE   H3R 1714   0.064   3.517  16.117  0.1093  0.4351 -2.4595
   14DOPE   H3S 1715  -0.062   3.431  16.031  0.1110  1.3625 -0.1094
   14DOPE   C24 1716   0.140   3.366  15.978 -0.7674  0.0406  0.8734
   14DOPE   H4R 1717   0.137   3.448  15.903  0.2306  0.3304  1.1323
   14DOPE   H4S 1718   0.111   3.277  15.919  0.7080  1.3962 -2.0658
   14DOPE   C25 1719   0.281   3.357  16.034  0.5223 -0.0887 -1.3330
   14DOPE   H5R 1720   0.290   3.267  16.098 -1.8240  0.0789 -0.6654
   14DOPE   H5S 1721   0.305   3.446  16.097  0.7843 -1.7415  0.9952
   14DOPE   C26 1722   0.382   3.348  15.927 -0.2129 -0.5198 -0.5662
   14DOPE   H6R 1723   0.375   3.440  15.865 -1.5520 -1.8613 -2.5193
   14DOPE   H6S 1724   0.352   3.270  15.853  0.2277  0.0708 -1.3815
   14DOPE   C27 1725   0.527   3.321  15.986  0.8913 -0.0063 -0.1796
   14DOPE   H7R 1726   0.606   3.340  15.911  0.3501 -0.3603 -0.8439
   14DOPE   H7S 1727   0.529   3.216  16.024 -0.3105 -0.4526 -1.3050
   14DOPE   C28 1728   0.558   3.417  16.106 -0.3104 -0.5762 -0.1321
   14DOPE   H8R 1729   0.655   3.390  16.153  0.2475 -0.1219 -0.9995
   14DOPE   H8S 1730   0.491   3.402  16.193  1.0734  2.0104  1.4870
   14DOPE   C29 1731   0.548   3.564  16.066  0.2104  0.7942 -0.1081
   14DOPE   H9R 1732   0.457   3.594  16.013 -0.3424  1.3917  1.1564
   14DOPE  C210 1733   0.637   3.664  16.093  0.0594 -0.0465  0.0545
   14DOPE  H10R 1734   0.625   3.764  16.049 -0.8234 -0.4014 -0.5461
   14DOPE  C211 1735   0.761   3.651  16.167 -0.2042  0.0101  0.0692
   14DOPE  H11R 1736   0.790   3.568  16.236  0.7540  1.7662  1.8813
   14DOPE  H11S 1737   0.750   3.735  16.238 -1.0802 -0.3767  0.4109
   14DOPE  C212 1738   0.879   3.675  16.080  0.6019  0.3438 -0.2581
   14DOPE  H12R 1739   0.967   3.659  16.146  1.1033 -0.1076 -1.0275
   14DOPE  H12S 1740   0.884   3.778  16.040  3.2711  0.3640 -0.0105
   14DOPE  C213 1741   0.891   3.575  15.961 -0.0361 -0.3582  0.6303
   14DOPE  H13R 1742   0.886   3.469  15.994 -0.8346 -0.0603  1.5133
   14DOPE  H13S 1743   0.993   3.591  15.921 -0.6272 -1.3570 -1.4322
   14DOPE  C214 1744   0.803   3.613  15.836 -0.6735  0.6235 -0.7849
   14DOPE  H14R 1745   0.798   3.724  15.829  0.7423  1.1389  3.4938
   14DOPE  H14S 1746   0.706   3.560  15.843 -0.0357 -0.4633  0.3010
   14DOPE  C215 1747   0.878   3.565  15.700  0.3814  0.5424  0.4642
   14DOPE  H15R 1748   0.888   3.457  15.723  0.3063  0.3418 -0.3789
   14DOPE  H15S 1749   0.983   3.602  15.704  0.5961 -0.0880  0.7721
   14DOPE  C216 1750   0.796   3.593  15.577 -0.0952  0.0459  0.1138
   14DOPE  H16R 1751   0.815   3.697  15.543 -0.8506  0.3956  0.7109
   14DOPE  H16S 1752   0.693   3.600  15.619  1.0394  0.1341  3.1945
   14DOPE  C217 1753   0.823   3.486  15.467 -0.0411  0.3959  0.4441
   14DOPE  H17R 1754   0.802   3.384  15.506  2.6520 -0.3702  0.1354
   14DOPE  H17S 1755   0.933   3.485  15.451 -0.0242  2.9602 -0.1041
   14DOPE  C218 1756   0.753   3.513  15.335 -0.7093  0.3458 -0.2877
   14DOPE  H18R 1757   0.802   3.601  15.287 -1.3556  0.6642 -0.3661
   14DOPE  H18S 1758   0.648   3.533  15.363 -0.4697  1.9547 -0.4306
   14DOPE  H18T 1759   0.762   3.428  15.264  2.0602  1.5700 -1.5833
   14DOPE   C33 1760  -0.014   3.693  16.611 -0.4689  0.2861 -0.7044
   14DOPE   H3X 1761   0.091   3.730  16.604 -1.0699  1.8534 -1.8494
   14DOPE   H3Y 1762  -0.066   3.771  16.669  1.0138 -0.8831  2.4259
   14DOPE   C34 1763  -0.061   3.667  16.469 -0.8551  0.3688 -0.3295
   14DOPE   H4X 1764   0.027   3.637  16.409  0.4366 -0.5132  1.8794
   14DOPE   H4Y 1765  -0.142   3.591  16.470  0.3208 -1.0657  3.7420
   14DOPE   C35 1766  -0.124   3.799  16.415 -0.1763 -0.2218  0.3909
   14DOPE   H5X 1767  -0.085   3.882  16.477 -0.3781 -0.7634  1.2677
   14DOPE   H5Y 1768  -0.233   3.806  16.429 -0.0644 -0.2878  1.3898
   14DOPE   C36 1769  -0.076   3.823  16.266  0.5395  0.9413 -0.1337
   14DOPE   H6X 1770   0.032   3.799  16.268  0.2277 -0.6500  3.0675
   14DOPE   H6Y 1771  -0.107   3.922  16.227 -3.3561  0.5794  1.5207
   14DOPE   C37 1772  -0.146   3.723  16.171  0.4358  0.1857 -0.5143
   14DOPE   H7X 1773  -0.112   3.621  16.198 -0.6875 -0.1920 -0.4941
   14DOPE   H7Y 1774  -0.255   3.727  16.194 -0.0051 -0.0167 -2.3901
   14DOPE   C38 1775  -0.133   3.764  16.022 -0.4448 -0.0202 -1.0841
   14DOPE   H8X 1776  -0.159   3.677  15.959 -0.3729 -1.3446  0.6312
   14DOPE   H8Y 1777  -0.026   3.789  16.003 -0.5790  1.8400  0.2519
   14DOPE   C39 1778  -0.206   3.890  15.977  0.1721  0.0151  0.2755
   14DOPE   H9X 1779  -0.153   3.986  15.986 -0.6863  0.3961  1.7708
   14DOPE  C310 1780  -0.324   3.894  15.916 -0.5364 -0.6056 -0.3258
   14DOPE  H10X 1781  -0.355   3.999  15.899 -2.9927 -0.3492  4.0753
   14DOPE  C311 1782  -0.414   3.781  15.869  0.1709 -0.2197 -0.3497
   14DOPE  H11X 1783  -0.407   3.703  15.949  0.3535  0.4559  0.3026
   14DOPE  H11Y 1784  -0.523   3.802  15.870 -0.2066 -1.9678  0.6702
   14DOPE  C312 1785  -0.382   3.722  15.728  0.0658  0.2368 -0.8164
   14DOPE  H12X 1786  -0.428   3.621  15.722 -1.5798  0.9276 -0.5474
   14DOPE  H12Y 1787  -0.273   3.708  15.717  0.5151 -0.1063  2.8658
   14DOPE  C313 1788  -0.433   3.802  15.609  0.1931 -0.1671  0.5950
   14DOPE  H13X 1789  -0.542   3.783  15.620  0.1198 -1.2136 -1.4608
   14DOPE  H13Y 1790  -0.410   3.911  15.606 -0.6750  0.0030 -0.8782
   14DOPE  C314 1791  -0.394   3.747  15.465 -0.1586  0.0140 -0.2319
   14DOPE  H14X 1792  -0.404   3.637  15.452  0.7705  0.1172 -2.4426
   14DOPE  H14Y 1793  -0.284   3.763  15.457  0.1807 -0.6582  2.2863
   14DOPE  C315 1794  -0.457   3.831  15.350  0.4735  0.0061  0.3629
   14DOPE  H15X 1795  -0.457   3.939  15.375 -2.2497  0.1801 -0.1147
   14DOPE  H15Y 1796  -0.562   3.798  15.339  0.5175 -0.2930  0.8184
   14DOPE  C316 1797  -0.375   3.820  15.220  0.1586 -0.8830 -0.3759
   14DOPE  H16X 1798  -0.346   3.714  15.212 -1.9224 -1.4744 -0.6879
   14DOPE  H16Y 1799  -0.288   3.886  15.241 -1.2081  1.6906 -2.2196
   14DOPE  C317 1800  -0.449   3.871  15.099 -0.8956 -0.3025  0.4269
   14DOPE  H17X 1801  -0.494   3.971  15.116 -1.1646 -0.5515  1.2559
   14DOPE  H17Y 1802  -0.379   3.876  15.013 -0.8548  0.9980  0.5143
   14DOPE  C318 1803  -0.560   3.773  15.058 -0.0903  0.4006  0.8140
   14DOPE  H18X 1804  -0.628   3.809  14.978  0.0085 -0.0871  0.5032
   14DOPE  H18Y 1805  -0.510   3.676  15.038 -1.6843 -0.1347 -0.8872
   14DOPE  H18Z 1806  -0.629   3.751  15.142  1.6136 -1.4152  1.8050
   15DOPE     N 1807   1.852   2.611  17.319 -0.0414  0.0646 -0.3586
   15DOPE   HN1 1808   1.859   2.667  17.231  0.3835  2.1634  0.9455
   15DOPE   HN2 1809   1.871   2.669  17.403  3.7466 -0.6544 -0.5368
   15DOPE   HN3 1810   1.907   2.523  17.312 -0.1895  0.0292 -1.2284
   15DOPE   C12 1811   1.703   2.565  17.343 -0.1994  0.2716  0.3674
   15DOPE  H12A 1812   1.632   2.644  17.310 -2.7316 -1.5755  1.0551
   15DOPE  H12B 1813   1.684   2.547  17.451 -0.9548  0.7694  0.3299
   15DOPE   C11 1814   1.687   2.434  17.266  0.1187  0.9429  0.5686
   15DOPE  H11A 1815   1.709   2.445  17.158  0.7204 -1.1807  0.4214
   15DOPE  H11B 1816   1.578   2.411  17.268  0.4345 -0.6310  1.7713
   15DOPE     P 1817   1.760   2.181  17.248  0.3717 -0.6744 -0.0867
   15DOPE   O13 1818   1.839   2.089  17.335 -0.3234  0.2329 -0.3924
   15DOPE   O14 1819   1.805   2.198  17.109 -0.1994 -0.1356 -0.1681
   15DOPE   O11 1820   1.612   2.135  17.249 -0.0275 -0.0909 -0.1074
   15DOPE   O12 1821   1.762   2.324  17.323 -0.2573  0.2800 -0.2292
   15DOPE    C1 1822   1.569   2.019  17.177 -0.2884 -0.1844 -1.0047
   15DOPE    HA 1823   1.490   1.969  17.237  2.0985 -0.7066  1.9100
   15DOPE    HB 1824   1.649   1.941  17.174  1.2592  1.2028  1.5553
   15DOPE    C2 1825   1.526   2.051  17.026  0.1404 -0.2486  1.0732
   15DOPE    HS 1826   1.441   1.982  17.005  1.2250 -1.9174  2.0082
   15DOPE   O21 1827   1.622   2.029  16.931  0.3016  0.2681 -0.2793
   15DOPE   C21 1828   1.641   1.901  16.901 -0.2333  0.2602 -0.4902
   15DOPE   O22 1829   1.565   1.815  16.940 -0.3031 -0.6110  0.3175
   15DOPE   C22 1830   1.762   1.882  16.810 -0.2056 -0.0535 -0.1227
   15DOPE   H2R 1831   1.847   1.923  16.868 -1.1821  2.6574 -0.4534
   15DOPE   H2S 1832   1.760   1.950  16.723  1.6281 -1.7608 -1.5788
   15DOPE    C3 1833   1.482   2.196  17.007 -0.2903 -0.0964  0.9205
   15DOPE    HX 1834   1.571   2.260  17.025 -0.6434  0.1871  1.7370
   15DOPE    HY 1835   1.412   2.227  17.087 -1.2443  0.2103 -0.0151
   15DOPE   O31 1836   1.432   2.227  16.871 -0.6242  0.3173  0.0112
   15DOPE   C31 1837   1.313   2.173  16.849  0.0097 -0.5264  0.7031
   15DOPE   O32 1838   1.250   2.102  16.930  0.1276 -0.1563  0.2617
   15DOPE   C32 1839   1.264   2.202  16.708  0.3590  0.3228 -0.4119
   15DOPE   H2X 1840   1.153   2.198  16.710  0.3045 -0.9886 -2.5873
   15DOPE   H2Y 1841   1.309   2.299  16.677  3.9353 -0.7750  0.7582
   15DOPE   C23 1842   1.786   1.741  16.751  0.5238 -0.1902 -0.7653
   15DOPE   H3R 1843   1.817   1.668  16.829  2.0758  2.4487  1.2916
   15DOPE   H3S 1844   1.871   1.734  16.680  2.1736  0.8458  0.9835
   15DOPE   C24 1845   1.656   1.683  16.682  0.4731  0.2726 -0.1841
   15DOPE   H4R 1846   1.577   1.686  16.761  0.3924 -1.9602 -0.1269
   15DOPE   H4S 1847   1.670   1.577  16.653 -0.1434  0.3128 -0.6526
   15DOPE   C25 1848   1.597   1.753  16.569 -0.2783 -0.0197  0.7767
   15DOPE   H5R 1849   1.572   1.856  16.602  1.3681  0.2347  1.2928
   15DOPE   H5S 1850   1.513   1.694  16.526  1.1692 -0.8145 -1.1244
   15DOPE   C26 1851   1.696   1.792  16.451 -0.8108  0.7236  0.1894
   15DOPE   H6R 1852   1.734   1.703  16.398 -0.0782  1.2018 -0.0973
   15DOPE   H6S 1853   1.781   1.849  16.493  0.2396 -0.1726 -0.6695
   15DOPE   C27 1854   1.621   1.869  16.344  0.7079  0.6454  0.0806
   15DOPE   H7R 1855   1.674   1.904  16.253  0.0966  2.4360  0.3856
   15DOPE   H7S 1856   1.595   1.969  16.385  2.3138  1.1428 -0.0297
   15DOPE   C28 1857   1.488   1.808  16.281  0.3149 -0.1250 -0.0413
   15DOPE   H8R 1858   1.439   1.892  16.228  0.5107  0.5325  0.8005
   15DOPE   H8S 1859   1.419   1.777  16.362  1.9110 -0.9168  1.0771
   15DOPE   C29 1860   1.522   1.692  16.189 -0.2742  0.1135  0.5140
   15DOPE   H9R 1861   1.579   1.617  16.245  0.1981  1.6714  2.2333
   15DOPE  C210 1862   1.505   1.692  16.053 -0.4877 -0.0137 -0.0602
   15DOPE  H10R 1863   1.535   1.598  16.004  0.7047 -0.2872  1.1471
   15DOPE  C211 1864   1.447   1.802  15.966  0.4831  1.0482 -0.6656
   15DOPE  H11R 1865   1.386   1.862  16.036  0.8655  1.3162 -0.5637
   15DOPE  H11S 1866   1.392   1.758  15.879 -2.0450  1.1976  0.7755
   15DOPE  C212 1867   1.563   1.893  15.933 -0.6632  0.6613 -0.1125
   15DOPE  H12R 1868   1.601   1.940  16.025 -4.3948  0.5434  1.6625
   15DOPE  H12S 1869   1.515   1.974  15.874  1.8371  2.5135  0.2539
   15DOPE  C213 1870   1.684   1.825  15.853 -0.5903 -0.9296  0.5232
   15DOPE  H13R 1871   1.655   1.778  15.757 -0.7068  0.7240 -0.2812
   15DOPE  H13S 1872   1.744   1.754  15.914  2.0330 -2.0690 -3.0243
   15DOPE  C214 1873   1.788   1.933  15.815  0.3290  0.3796 -0.7076
   15DOPE  H14R 1874   1.843   1.977  15.901 -0.7266 -1.4349  0.9689
   15DOPE  H14S 1875   1.743   2.012  15.752 -0.0287  0.7929  0.0431
   15DOPE  C215 1876   1.895   1.876  15.715 -0.2877  0.0219 -0.8464
   15DOPE  H15R 1877   1.865   1.809  15.632  3.4536 -2.5517 -0.4206
   15DOPE  H15S 1878   1.964   1.814  15.777 -2.4257 -0.2127  1.4808
   15DOPE  C216 1879   1.978   1.991  15.658 -0.0682  0.0237  0.5157
   15DOPE  H16R 1880   2.026   2.051  15.738  0.3342 -0.3322  0.5473
   15DOPE  H16S 1881   1.920   2.061  15.594 -1.1120 -0.1765  1.2204
   15DOPE  C217 1882   2.099   1.946  15.574 -0.2219  0.8313  0.3707
   15DOPE  H17R 1883   2.066   1.863  15.508 -0.1857  0.8836  0.2865
   15DOPE  H17S 1884   2.173   1.897  15.641 -2.0533 -1.4528  0.8695
   15DOPE  C218 1885   2.168   2.062  15.501 -0.1532 -0.1257 -0.2327
   15DOPE  H18R 1886   2.251   2.031  15.434 -0.5915 -0.7913 -0.4777
   15DOPE  H18S 1887   2.195   2.141  15.575 -1.3233  0.0552  0.0279
   15DOPE  H18T 1888   2.092   2.117  15.442 -1.2947  0.3186  1.5696
   15DOPE   C33 1889   1.328   2.095  16.619 -0.5900  0.0839  0.3199
   15DOPE   H3X 1890   1.286   1.994  16.635  0.8151 -0.5083  0.4435
   15DOPE   H3Y 1891   1.438   2.096  16.635 -0.4672  2.2575 -0.2791
   15DOPE   C34 1892   1.297   2.136  16.472 -0.0584  0.0238 -0.4859
   15DOPE   H4X 1893   1.343   2.234  16.449 -0.1169 -0.0726 -1.0172
   15DOPE   H4Y 1894   1.344   2.061  16.406  0.0655  1.3419 -1.9622
   15DOPE   C35 1895   1.149   2.131  16.448 -0.4275 -0.2017 -0.0627
   15DOPE   H5X 1896   1.097   2.217  16.496 -2.0536 -1.3604  0.3025
   15DOPE   H5Y 1897   1.113   2.039  16.497 -1.0169  0.6955  1.2333
   15DOPE   C36 1898   1.112   2.121  16.296 -0.0932 -0.0517 -0.0246
   15DOPE   H6X 1899   1.166   2.034  16.251  0.1770 -1.4539  2.7757
   15DOPE   H6Y 1900   1.157   2.207  16.243 -1.7344  0.0803 -1.2887
   15DOPE   C37 1901   0.963   2.120  16.274 -0.1114  0.0631 -0.6617
   15DOPE   H7X 1902   0.928   2.030  16.330 -0.8272  0.3409 -0.6546
   15DOPE   H7Y 1903   0.911   2.211  16.308 -2.3562 -1.7875  1.2147
   15DOPE   C38 1904   0.930   2.094  16.124  0.2276  0.5411  0.2684
   15DOPE   H8X 1905   0.955   2.184  16.063 -1.9513  0.8241 -0.2934
   15DOPE   H8Y 1906   0.820   2.088  16.122  0.2207  0.6731  0.2411
   15DOPE   C39 1907   0.996   1.967  16.070 -0.1306  0.0269 -0.2021
   15DOPE   H9X 1908   0.983   1.876  16.131  0.1431 -0.0546 -0.2644
   15DOPE  C310 1909   1.061   1.954  15.952 -1.1883 -1.1227 -0.7694
   15DOPE  H10X 1910   1.112   1.859  15.932 -0.6635 -1.4683  1.7763
   15DOPE  C311 1911   1.091   2.061  15.844  0.0099  0.7623 -0.3907
   15DOPE  H11X 1912   1.038   2.031  15.751  1.8105  0.8135 -1.4743
   15DOPE  H11Y 1913   1.047   2.157  15.878 -0.5472  0.5672 -0.5503
   15DOPE  C312 1914   1.236   2.098  15.809  0.1481  0.1099  0.3524
   15DOPE  H12X 1915   1.301   2.054  15.887 -0.0338 -2.4073 -0.8033
   15DOPE  H12Y 1916   1.238   2.209  15.817  0.4090  0.4092 -2.5602
   15DOPE  C313 1917   1.269   2.055  15.664  0.5688 -0.0547  0.4391
   15DOPE  H13X 1918   1.231   1.954  15.638  2.6167  0.0120 -3.5180
   15DOPE  H13Y 1919   1.211   2.117  15.592 -1.5729 -1.6764  0.6724
   15DOPE  C314 1920   1.418   2.051  15.608 -0.3174 -0.0474 -0.1621
   15DOPE  H14X 1921   1.480   1.999  15.684  0.6542  1.5315  0.1723
   15DOPE  H14Y 1922   1.460   2.154  15.613  0.5208 -0.3704 -0.2497
   15DOPE  C315 1923   1.439   1.994  15.464  0.1383 -0.2759 -0.5092
   15DOPE  H15X 1924   1.376   2.037  15.384  0.8899  0.8508 -0.5209
   15DOPE  H15Y 1925   1.404   1.891  15.485 -3.4033  1.0420  0.7952
   15DOPE  C316 1926   1.584   1.993  15.420 -0.4164  0.2166 -0.7712
   15DOPE  H16X 1927   1.651   1.951  15.498  2.8348  1.1491 -2.8438
   15DOPE  H16Y 1928   1.620   2.098  15.413  0.5849  0.0111  0.8445
   15DOPE  C317 1929   1.617   1.917  15.289  0.0079  0.3161 -0.0908
   15DOPE  H17X 1930   1.572   1.815  15.286  2.2129 -0.7533  0.6518
   15DOPE  H17Y 1931   1.570   1.965  15.201 -0.9511 -0.0531  0.2045
   15DOPE  C318 1932   1.763   1.903  15.269  0.2255  0.2336 -0.0563
   15DOPE  H18X 1933   1.783   1.830  15.187  0.5610  0.9620 -0.6288
   15DOPE  H18Y 1934   1.817   2.000  15.262  2.2917 -0.7377  1.6043
   15DOPE  H18Z 1935   1.808   1.857  15.359 -0.0215 -0.2860 -0.1962
   16DOPE     N 1936   0.887   3.268  16.724  0.5490 -0.4758  0.1424
   16DOPE   HN1 1937   0.953   3.227  16.654  1.3611 -0.0977  0.6813
   16DOPE   HN2 1938   0.835   3.339  16.670  1.3041  0.0697  0.1219
   16DOPE   HN3 1939   0.932   3.327  16.796 -3.4274  1.8151  1.0060
   16DOPE   C12 1940   0.813   3.153  16.781  0.0374  0.1618  0.5842
   16DOPE  H12A 1941   0.746   3.105  16.706  0.3020 -0.7614  0.9191
   16DOPE  H12B 1942   0.754   3.184  16.870 -0.7108  0.3378  0.0400
   16DOPE   C11 1943   0.910   3.044  16.819  0.0301 -0.4748 -0.3251
   16DOPE  H11A 1944   0.979   3.010  16.738 -1.2009  0.3621 -1.7878
   16DOPE  H11B 1945   0.849   2.955  16.844  0.6692 -0.7143  0.4141
   16DOPE     P 1946   1.151   3.081  16.944  0.2978 -0.1939  0.4631
   16DOPE   O13 1947   1.201   2.978  17.041  0.3571  0.4098  0.1389
   16DOPE   O14 1948   1.195   3.220  16.968  0.3162 -0.5685 -0.1628
   16DOPE   O11 1949   1.200   3.040  16.801 -0.2066 -0.2890  0.4613
   16DOPE   O12 1950   0.995   3.082  16.930  0.5418 -0.1292  0.4905
   16DOPE    C1 1951   1.246   2.904  16.787  0.6255 -0.2099  1.0814
   16DOPE    HA 1952   1.192   2.830  16.849  1.1755 -0.1915  1.5888
   16DOPE    HB 1953   1.353   2.891  16.811  0.2571 -2.7923  1.5869
   16DOPE    C2 1954   1.245   2.864  16.627 -0.0436  0.1006  0.2726
   16DOPE    HS 1955   1.322   2.785  16.615 -1.0244 -0.7813 -0.3925
   16DOPE   O21 1956   1.282   2.972  16.533  0.0854  0.4640  0.3280
   16DOPE   C21 1957   1.394   3.021  16.550 -0.0184 -0.2779 -0.5937
   16DOPE   O22 1958   1.483   2.985  16.625 -0.1222  0.0777 -0.9044
   16DOPE   C22 1959   1.412   3.134  16.441 -0.1401  0.4793  0.3136
   16DOPE   H2R 1960   1.451   3.220  16.500  0.3719 -0.2495  1.0621
   16DOPE   H2S 1961   1.314   3.156  16.394 -0.4020  0.0336  0.6415
   16DOPE    C3 1962   1.113   2.804  16.579  0.7336  0.5357 -0.2287
   16DOPE    HX 1963   1.044   2.888  16.558 -1.0254 -0.6821  0.4713
   16DOPE    HY 1964   1.057   2.750  16.659  0.3963 -2.2095 -2.1669
   16DOPE   O31 1965   1.129   2.717  16.466  0.0809 -0.1602  0.4632
   16DOPE   C31 1966   1.157   2.593  16.489 -0.2732 -0.2101  0.1868
   16DOPE   O32 1967   1.189   2.550  16.601  0.1836  0.6095  0.5757
   16DOPE   C32 1968   1.156   2.516  16.362  0.0191  0.5898  0.3420
   16DOPE   H2X 1969   1.260   2.501  16.327 -0.0433  1.9104 -0.4796
   16DOPE   H2Y 1970   1.120   2.413  16.384  3.2834 -0.7183  0.1965
   16DOPE   C23 1971   1.516   3.088  16.331  0.1346 -0.1656  0.0665
   16DOPE   H3R 1972   1.481   2.998  16.276  3.2513 -0.8365 -1.0201
   16DOPE   H3S 1973   1.612   3.064  16.382 -0.5134  0.6483  1.7665
   16DOPE   C24 1974   1.556   3.195  16.220  0.7362 -0.0821  0.5748
   16DOPE   H4R 1975   1.626   3.271  16.260  2.4223 -0.6817 -1.0783
   16DOPE   H4S 1976   1.459   3.240  16.189  0.6340 -0.4020  0.4198
   16DOPE   C25 1977   1.640   3.132  16.106  0.5242 -0.5374 -0.1861
   16DOPE   H5R 1978   1.591   3.037  16.078 -1.0024  0.4858 -1.1165
   16DOPE   H5S 1979   1.735   3.107  16.157  0.0047 -1.3172  0.4201
   16DOPE   C26 1980   1.657   3.219  15.979 -0.2560 -0.4697  0.0115
   16DOPE   H6R 1981   1.676   3.326  16.003 -0.0178 -0.0855 -1.7980
   16DOPE   H6S 1982   1.561   3.200  15.928 -0.6140 -0.7393  0.7640
   16DOPE   C27 1983   1.771   3.172  15.890  0.2795 -0.9026  0.2980
   16DOPE   H7R 1984   1.863   3.199  15.947  0.1581 -0.9469  0.5153
   16DOPE   H7S 1985   1.766   3.242  15.803  0.2240  0.6145  1.4736
   16DOPE   C28 1986   1.755   3.026  15.864 -0.4791 -0.2150  0.2129
   16DOPE   H8R 1987   1.653   3.001  15.829  0.4357 -1.4393 -1.8189
   16DOPE   H8S 1988   1.764   2.962  15.955 -1.4436  1.9295  1.8924
   16DOPE   C29 1989   1.859   2.997  15.756  0.3701 -0.6365 -0.0809
   16DOPE   H9R 1990   1.961   2.986  15.796 -0.1195 -2.1721  0.8519
   16DOPE  C210 1991   1.833   2.990  15.623 -0.8833  0.0837  0.1809
   16DOPE  H10R 1992   1.916   2.982  15.551 -2.1153  1.9569 -1.5587
   16DOPE  C211 1993   1.691   3.005  15.559 -0.6752 -0.0243 -0.1685
   16DOPE  H11R 1994   1.702   3.082  15.480 -0.7031 -1.7297 -1.9120
   16DOPE  H11S 1995   1.608   3.026  15.630  0.8882 -2.3084  2.5248
   16DOPE  C212 1996   1.657   2.875  15.478  0.4882 -0.7095 -0.3696
   16DOPE  H12R 1997   1.577   2.893  15.403 -0.2274  1.1906  0.7736
   16DOPE  H12S 1998   1.623   2.795  15.548  0.1867 -0.8713 -0.6978
   16DOPE  C213 1999   1.768   2.801  15.395 -0.2059  0.2211  0.0070
   16DOPE  H13R 2000   1.830   2.739  15.463  1.8636  0.4299 -1.5764
   16DOPE  H13S 2001   1.824   2.884  15.347 -0.7415 -0.1100 -1.2095
   16DOPE  C214 2002   1.713   2.717  15.281 -0.6841  0.5470 -0.2114
   16DOPE  H14R 2003   1.648   2.632  15.310 -0.5955  0.5867  0.1024
   16DOPE  H14S 2004   1.806   2.667  15.247 -1.8180 -0.9181 -1.2879
   16DOPE  C215 2005   1.660   2.788  15.160  0.3490  0.3393  0.7179
   16DOPE  H15R 2006   1.744   2.849  15.119  1.5995 -0.3625  2.1715
   16DOPE  H15S 2007   1.572   2.852  15.183 -2.1134 -2.2271 -0.9017
   16DOPE  C216 2008   1.597   2.686  15.058 -0.1826  0.2646 -0.1007
   16DOPE  H16R 2009   1.515   2.629  15.106 -0.1742  0.4543  0.1394
   16DOPE  H16S 2010   1.673   2.608  15.036  1.2412  1.3851  0.6555
   16DOPE  C217 2011   1.539   2.751  14.928 -0.3239 -0.1549 -0.2061
   16DOPE  H17R 2012   1.537   2.673  14.849 -0.4915  0.4960 -0.8506
   16DOPE  H17S 2013   1.601   2.838  14.897 -2.0559  0.7976 -1.1059
   16DOPE  C218 2014   1.389   2.794  14.941  0.6905 -0.3871 -0.4863
   16DOPE  H18R 2015   1.325   2.720  14.994 -2.5960  1.6889 -1.2357
   16DOPE  H18S 2016   1.345   2.808  14.839  1.9303  0.0960 -0.9656
   16DOPE  H18T 2017   1.375   2.891  14.993 -2.5156 -0.3948 -1.0850
   16DOPE   C33 2018   1.084   2.589  16.246  0.3443 -0.2333 -0.0642
   16DOPE   H3X 2019   1.139   2.682  16.222  2.2407 -1.1895  0.4347
   16DOPE   H3Y 2020   0.982   2.617  16.281  0.8179 -0.1584  1.3270
   16DOPE   C34 2021   1.063   2.515  16.121 -0.3078 -0.5378  0.3171
   16DOPE   H4X 2022   1.162   2.482  16.083  0.1108  1.6213 -0.5935
   16DOPE   H4Y 2023   0.999   2.431  16.157  0.5447 -2.0550 -1.5140
   16DOPE   C35 2024   0.996   2.597  16.007 -0.4590 -0.2423 -0.0961
   16DOPE   H5X 2025   1.062   2.679  15.971 -4.2560  2.7455 -0.9259
   16DOPE   H5Y 2026   0.908   2.652  16.048  0.8293  0.1684  2.3065
   16DOPE   C36 2027   0.961   2.502  15.896 -0.0709  0.2665  1.0366
   16DOPE   H6X 2028   0.887   2.426  15.929  0.0858 -1.3851 -2.0212
   16DOPE   H6Y 2029   1.056   2.447  15.881 -1.3755 -2.0104  0.6205
   16DOPE   C37 2030   0.915   2.556  15.763 -0.1458  0.4362  0.5353
   16DOPE   H7X 2031   0.808   2.584  15.770 -0.4371 -0.2010 -1.0980
   16DOPE   H7Y 2032   0.961   2.651  15.727  2.0574 -0.7581  0.0618
   16DOPE   C38 2033   0.935   2.459  15.643  0.2637  0.2331  0.5318
   16DOPE   H8X 2034   1.031   2.402  15.643  0.9104  1.2840  0.7260
   16DOPE   H8Y 2035   0.932   2.520  15.550 -0.4721  0.0846  0.4570
   16DOPE   C39 2036   0.822   2.359  15.639 -0.2158 -0.0831  0.6065
   16DOPE   H9X 2037   0.736   2.374  15.706 -2.0587  1.5424 -1.9554
   16DOPE  C310 2038   0.819   2.248  15.560 -0.4281  0.1828  0.0952
   16DOPE  H10X 2039   0.735   2.179  15.577 -0.7012  0.6169  0.5308
   16DOPE  C311 2040   0.926   2.198  15.465  0.2677 -0.2068 -0.3706
   16DOPE  H11X 2041   1.009   2.268  15.444  0.4509 -1.0144 -2.5706
   16DOPE  H11Y 2042   0.947   2.091  15.486 -1.4255 -0.2961  1.1920
   16DOPE  C312 2043   0.868   2.192  15.330  0.2388  0.4457  0.4153
   16DOPE  H12X 2044   0.820   2.287  15.299 -1.2154 -0.1110  0.8637
   16DOPE  H12Y 2045   0.788   2.115  15.328  1.4109 -0.8848  1.8397
   16DOPE  C313 2046   0.977   2.155  15.230  0.2070  0.4735 -0.0617
   16DOPE  H13X 2047   1.052   2.236  15.241  0.1246  0.2392  2.8725
   16DOPE  H13Y 2048   1.025   2.058  15.252  1.1755  1.5468  3.1921
   16DOPE  C314 2049   0.933   2.171  15.087 -0.1525 -0.1916  0.3212
   16DOPE  H14X 2050   1.014   2.162  15.011  1.2132 -1.5965  1.8759
   16DOPE  H14Y 2051   0.889   2.271  15.069 -0.8590 -0.2778  1.4790
   16DOPE  C315 2052   0.828   2.065  15.042  0.2821 -0.7218 -0.2278
   16DOPE  H15X 2053   0.740   2.064  15.109  0.1141 -1.2510 -0.4493
   16DOPE  H15Y 2054   0.865   1.962  15.063  1.3769 -0.5153 -1.0152
   16DOPE  C316 2055   0.805   2.086  14.889 -0.2701  0.6334  0.2563
   16DOPE  H16X 2056   0.904   2.081  14.839  0.0424  1.2391  0.7954
   16DOPE  H16Y 2057   0.763   2.189  14.885 -0.5936  0.5080  0.4296
   16DOPE  C317 2058   0.715   1.978  14.821 -0.0722 -0.5721 -0.5994
   16DOPE  H17X 2059   0.744   1.877  14.856 -0.4586 -1.1290 -1.8125
   16DOPE  H17Y 2060   0.611   1.994  14.855 -0.9519 -1.1583 -2.7867
   16DOPE  C318 2061   0.707   1.994  14.665  0.5917 -0.2947  0.3619
   16DOPE  H18X 2062   0.806   1.989  14.614 -0.2460 -0.1286 -1.3549
   16DOPE  H18Y 2063   0.629   1.920  14.636 -0.8132  0.8370  1.1066
   16DOPE  H18Z 2064   0.674   2.095  14.632 -2.2777 -1.0049  0.8277
   17DOPE     N 2065   3.618   6.394  16.656  0.0129 -0.5444 -0.4415
   17DOPE   HN1 2066   3.641   6.459  16.734  2.1238 -1.5259 -0.1704
   17DOPE   HN2 2067   3.526   6.429  16.622  0.0780 -0.1828 -0.2493
   17DOPE   HN3 2068   3.598   6.309  16.713 -4.4783  2.2341  2.7251
   17DOPE   C12 2069   3.718   6.399  16.547 -0.5211  0.1262  0.4145
   17DOPE  H12A 2070   3.692   6.319  16.475  0.7474  1.1060 -1.1984
   17DOPE  H12B 2071   3.820   6.384  16.587 -0.8469 -1.5821  0.6887
   17DOPE   C11 2072   3.712   6.540  16.484  0.3983  0.5210  0.2115
   17DOPE  H11A 2073   3.608   6.551  16.446 -0.7672 -2.9619  1.8874
   17DOPE  H11B 2074   3.777   6.538  16.394 -0.6127  1.8074 -0.5873
   17DOPE     P 2075   3.888   6.698  16.598  0.0169  0.0586 -0.1751
   17DOPE   O13 2076   3.983   6.587  16.600 -0.2025  1.0859 -0.1484
   17DOPE   O14 2077   3.893   6.790  16.718 -0.2757 -0.0485 -0.3602
   17DOPE   O11 2078   3.923   6.780  16.471  0.0278 -0.0070 -0.3551
   17DOPE   O12 2079   3.748   6.643  16.578  0.0045  0.1449 -0.0541
   17DOPE    C1 2080   3.835   6.876  16.414 -0.2319 -0.0075 -0.2375
   17DOPE    HA 2081   3.900   6.963  16.394 -0.2510  0.3522  1.1767
   17DOPE    HB 2082   3.758   6.915  16.484 -0.3170  1.1107 -0.9232
   17DOPE    C2 2083   3.769   6.830  16.287 -0.3636 -0.0387  0.3123
   17DOPE    HS 2084   3.709   6.739  16.309 -1.5930  0.6922  0.1190
   17DOPE   O21 2085   3.880   6.809  16.199  0.3337  0.4127 -0.2058
   17DOPE   C21 2086   3.868   6.704  16.122  0.0836  0.4774  0.1208
   17DOPE   O22 2087   3.775   6.627  16.120  0.6521  0.3492  0.7921
   17DOPE   C22 2088   3.992   6.677  16.031 -0.0170  0.5600 -0.2007
   17DOPE   H2R 2089   4.050   6.602  16.088  0.3128 -1.2095 -2.7276
   17DOPE   H2S 2090   4.060   6.764  16.020  1.5627 -0.5599  0.3643
   17DOPE    C3 2091   3.682   6.946  16.236  0.1211  0.6749 -0.7075
   17DOPE    HX 2092   3.741   7.035  16.205  1.6934 -0.0062  0.1943
   17DOPE    HY 2093   3.618   6.986  16.318  2.0436  1.5676  0.4168
   17DOPE   O31 2094   3.600   6.909  16.126  0.3095  0.0959 -0.2936
   17DOPE   C31 2095   3.504   6.827  16.145  0.3450  0.6511  0.1958
   17DOPE   O32 2096   3.455   6.792  16.251  0.0898  0.5620 -0.0067
   17DOPE   C32 2097   3.449   6.780  16.003 -0.2342  0.7849  0.3024
   17DOPE   H2X 2098   3.528   6.714  15.961 -1.3291  0.5092 -1.4169
   17DOPE   H2Y 2099   3.366   6.706  16.011 -1.5872  1.8570 -2.4999
   17DOPE   C23 2100   3.958   6.611  15.895  0.5328 -0.9218 -0.9270
   17DOPE   H3R 2101   3.917   6.511  15.921 -0.0545 -0.4749 -0.0776
   17DOPE   H3S 2102   4.056   6.591  15.846  1.5780  0.2855  0.5826
   17DOPE   C24 2103   3.857   6.677  15.817 -0.5643  0.0483  0.4576
   17DOPE   H4R 2104   3.896   6.781  15.809 -1.3985  0.3431  0.0322
   17DOPE   H4S 2105   3.754   6.683  15.859  0.0390 -0.0029  1.9992
   17DOPE   C25 2106   3.850   6.632  15.668 -0.3742  0.1744 -0.7048
   17DOPE   H5R 2107   3.958   6.616  15.650  0.0146  2.6139 -1.0152
   17DOPE   H5S 2108   3.823   6.722  15.608 -2.3967 -0.0826 -0.2726
   17DOPE   C26 2109   3.742   6.524  15.650  0.5055 -0.2880  0.4674
   17DOPE   H6R 2110   3.659   6.575  15.705  0.9005  0.9657 -0.0669
   17DOPE   H6S 2111   3.763   6.429  15.703  2.5345 -0.9176 -1.3372
   17DOPE   C27 2112   3.711   6.496  15.505  0.0415 -0.3989  0.9902
   17DOPE   H7R 2113   3.798   6.440  15.466 -0.6292  0.8897 -2.8520
   17DOPE   H7S 2114   3.692   6.594  15.457  2.1225  0.0734  1.0493
   17DOPE   C28 2115   3.581   6.415  15.483  0.4401  0.6446  0.0986
   17DOPE   H8R 2116   3.584   6.315  15.531 -0.9511  0.5078 -0.0403
   17DOPE   H8S 2117   3.572   6.386  15.376  1.3668 -0.4890  0.3126
   17DOPE   C29 2118   3.453   6.480  15.542 -0.0469  0.6260 -0.2469
   17DOPE   H9R 2119   3.464   6.483  15.652  1.6199 -1.8755 -0.2570
   17DOPE  C210 2120   3.345   6.526  15.484  0.7152  0.1686  0.3198
   17DOPE  H10R 2121   3.262   6.555  15.551  0.3830 -0.5397  0.2209
   17DOPE  C211 2122   3.311   6.526  15.338  0.4847 -0.2430  0.3796
   17DOPE  H11R 2123   3.403   6.497  15.283  0.7607 -0.3359  0.8737
   17DOPE  H11S 2124   3.285   6.628  15.303  1.0361 -0.0902  0.3944
   17DOPE  C212 2125   3.186   6.441  15.311 -0.1175  0.1369  0.2222
   17DOPE  H12R 2126   3.097   6.464  15.372  0.2309 -2.1547  1.7453
   17DOPE  H12S 2127   3.211   6.335  15.335 -0.0420 -0.3216 -1.7521
   17DOPE  C213 2128   3.144   6.434  15.164  0.1522  0.4398  0.1148
   17DOPE  H13R 2129   3.239   6.418  15.108 -0.4270  0.6239 -0.9384
   17DOPE  H13S 2130   3.109   6.534  15.132 -1.2130  0.7767  2.4528
   17DOPE  C214 2131   3.053   6.320  15.123  0.0724  0.1808 -1.0221
   17DOPE  H14R 2132   3.025   6.320  15.015  0.8491 -3.5828 -1.3398
   17DOPE  H14S 2133   2.965   6.315  15.191  1.2049  1.1805  0.5753
   17DOPE  C215 2134   3.112   6.177  15.139  0.1290  0.7272 -0.1766
   17DOPE  H15R 2135   3.172   6.181  15.232  0.4920  2.0942 -0.4547
   17DOPE  H15S 2136   3.185   6.151  15.059  0.5834 -3.5389  1.3944
   17DOPE  C216 2137   3.000   6.066  15.130 -0.0466 -0.1199  0.6541
   17DOPE  H16R 2138   2.943   6.058  15.035 -0.4357  2.6332  0.5790
   17DOPE  H16S 2139   2.927   6.083  15.212  0.4542 -0.7548  1.2430
   17DOPE  C217 2140   3.063   5.923  15.166  0.0561 -0.1706 -1.3324
   17DOPE  H17R 2141   3.100   5.927  15.270 -0.0395 -0.5819 -1.2808
   17DOPE  H17S 2142   3.143   5.896  15.094  0.9429 -0.1884 -0.3577
   17DOPE  C218 2143   2.952   5.811  15.169 -0.4537 -0.6236  0.1570
   17DOPE  H18R 2144   3.004   5.714  15.181  1.7547  0.3863 -0.6495
   17DOPE  H18S 2145   2.891   5.810  15.076 -1.5715 -0.3524  0.8727
   17DOPE  H18T 2146   2.882   5.825  15.254  0.6872 -2.4961  1.4894
   17DOPE   C33 2147   3.412   6.886  15.899 -0.2412 -0.3902 -0.2501
   17DOPE   H3X 2148   3.339   6.848  15.824 -1.1872  0.5017  0.1826
   17DOPE   H3Y 2149   3.508   6.915  15.853 -1.3337  0.6913 -1.9325
   17DOPE   C34 2150   3.343   7.016  15.959  0.2619 -0.9490  0.2738
   17DOPE   H4X 2151   3.411   7.061  16.034  1.6795 -0.4822 -1.2317
   17DOPE   H4Y 2152   3.323   7.082  15.873 -2.5669 -1.7231  0.2627
   17DOPE   C35 2153   3.209   6.987  16.025 -0.2932 -0.9028 -0.3335
   17DOPE   H5X 2154   3.214   6.917  16.110 -0.8487 -0.5349  0.0138
   17DOPE   H5Y 2155   3.137   6.942  15.953  0.2034 -0.9802 -0.7900
   17DOPE   C36 2156   3.146   7.114  16.083  0.3107  0.3366 -0.2117
   17DOPE   H6X 2157   3.216   7.182  16.136 -0.8285  0.4943  1.1353
   17DOPE   H6Y 2158   3.075   7.066  16.154  1.5139  1.8569  2.1454
   17DOPE   C37 2159   3.051   7.192  15.984  0.3288  0.6560 -0.0361
   17DOPE   H7X 2160   3.024   7.290  16.029 -0.2091 -0.3226  1.9088
   17DOPE   H7Y 2161   3.120   7.187  15.897  0.2607 -1.9116 -0.0242
   17DOPE   C38 2162   2.923   7.115  15.960  0.4958  0.1825  0.1211
   17DOPE   H8X 2163   2.854   7.112  16.047 -0.2929  1.4204 -0.4366
   17DOPE   H8Y 2164   2.934   7.005  15.966 -1.1957 -0.0283 -0.0241
   17DOPE   C39 2165   2.859   7.151  15.832  0.8701  0.4468  0.7763
   17DOPE   H9X 2166   2.881   7.251  15.790 -0.4234  0.8034  0.9013
   17DOPE  C310 2167   2.774   7.064  15.768  0.0253  0.8837 -0.2615
   17DOPE  H10X 2168   2.718   7.101  15.680 -0.7324  0.1156 -0.1127
   17DOPE  C311 2169   2.739   6.923  15.817 -0.5850 -0.6297 -0.5390
   17DOPE  H11X 2170   2.751   6.904  15.926 -0.5142  3.1706  0.2807
   17DOPE  H11Y 2171   2.635   6.893  15.796 -0.8620 -0.7053  0.8452
   17DOPE  C312 2172   2.837   6.825  15.743  0.0470  0.0372 -0.4525
   17DOPE  H12X 2173   2.809   6.720  15.766 -0.0032 -0.6606 -3.3906
   17DOPE  H12Y 2174   2.941   6.835  15.781 -0.3366  0.1831  0.5964
   17DOPE  C313 2175   2.831   6.830  15.593 -0.2783  0.2076  0.3920
   17DOPE  H13X 2176   2.726   6.827  15.560  0.1642 -0.9607 -0.9717
   17DOPE  H13Y 2177   2.887   6.910  15.538 -0.0891 -0.0415  0.2219
   17DOPE  C314 2178   2.889   6.700  15.532  0.2225 -0.6133 -0.1840
   17DOPE  H14X 2179   2.843   6.618  15.592 -1.4898  0.3107 -0.1869
   17DOPE  H14Y 2180   2.994   6.685  15.567  0.4171 -0.0497 -0.5105
   17DOPE  C315 2181   2.858   6.692  15.385 -0.3280 -0.4939 -0.5331
   17DOPE  H15X 2182   2.949   6.661  15.329 -0.3191 -1.3888 -0.0386
   17DOPE  H15Y 2183   2.841   6.793  15.342 -0.9027 -0.9140 -1.3073
   17DOPE  C316 2184   2.739   6.601  15.348  0.1873  0.0867  0.4378
   17DOPE  H16X 2185   2.719   6.617  15.239 -0.4371  1.6824  0.7566
   17DOPE  H16Y 2186   2.642   6.632  15.393  0.0282  2.2636 -1.2045
   17DOPE  C317 2187   2.778   6.455  15.376  0.7193  0.6704 -0.2962
   17DOPE  H17X 2188   2.888   6.438  15.367  0.9298  0.0818  2.5337
   17DOPE  H17Y 2189   2.764   6.440  15.485 -3.1739  0.8550 -0.6592
   17DOPE  C318 2190   2.693   6.345  15.303 -0.3506 -0.4365 -0.8482
   17DOPE  H18X 2191   2.728   6.240  15.309 -1.3519 -0.7334  0.1656
   17DOPE  H18Y 2192   2.589   6.347  15.342  0.7109  0.5318  2.2352
   17DOPE  H18Z 2193   2.696   6.380  15.197 -1.4543  3.6020  0.2882
   18DOPE     N 2194   0.622   2.672  17.425  0.2251 -0.1513 -0.0864
   18DOPE   HN1 2195   0.609   2.573  17.396 -1.5238 -0.1289  0.4935
   18DOPE   HN2 2196   0.723   2.675  17.450  0.2062  1.3806 -0.0944
   18DOPE   HN3 2197   0.572   2.689  17.514 -3.8123  0.1599 -2.1931
   18DOPE   C12 2198   0.563   2.760  17.315  0.7321 -0.2142  0.3640
   18DOPE  H12A 2199   0.643   2.775  17.240 -0.3664  1.6336 -0.5030
   18DOPE  H12B 2200   0.542   2.859  17.359  2.4417  1.5324 -2.4291
   18DOPE   C11 2201   0.439   2.698  17.251 -0.1134  0.3417  0.0479
   18DOPE  H11A 2202   0.372   2.774  17.205 -3.6132 -2.4933  0.0286
   18DOPE  H11B 2203   0.376   2.640  17.321  1.8847 -0.6963  1.0808
   18DOPE     P 2204   0.411   2.497  17.080  0.3814 -0.2103  0.1040
   18DOPE   O13 2205   0.348   2.414  17.184  0.3756 -0.0019  0.2643
   18DOPE   O14 2206   0.485   2.426  16.975  0.6895  0.0500  0.0164
   18DOPE   O11 2207   0.300   2.573  17.000 -0.1991  0.2789 -0.1380
   18DOPE   O12 2208   0.494   2.620  17.146  0.0045  0.2526 -0.5632
   18DOPE    C1 2209   0.336   2.673  16.900 -0.0326  0.1174 -0.6481
   18DOPE    HA 2210   0.329   2.621  16.802  1.3434 -1.0258 -0.1795
   18DOPE    HB 2211   0.441   2.706  16.915  0.0126 -0.4167  0.2853
   18DOPE    C2 2212   0.246   2.798  16.920 -0.4934  0.2039 -0.0409
   18DOPE    HS 2213   0.255   2.806  17.030 -0.5737 -1.9438  0.1664
   18DOPE   O21 2214   0.115   2.752  16.878 -0.3369  0.0603  0.3455
   18DOPE   C21 2215   0.028   2.848  16.875  0.2620  0.5333  0.1704
   18DOPE   O22 2216   0.035   2.952  16.933 -0.5650 -0.1522  0.8970
   18DOPE   C22 2217  -0.107   2.805  16.817  0.5662 -0.2192  0.5391
   18DOPE   H2R 2218  -0.179   2.889  16.824  1.1308  0.4556 -1.2736
   18DOPE   H2S 2219  -0.137   2.721  16.884 -0.6354 -1.6098 -1.6342
   18DOPE    C3 2220   0.307   2.926  16.851 -0.1680  0.6988 -0.2193
   18DOPE    HX 2221   0.393   2.953  16.917 -0.2400 -0.0128  0.1703
   18DOPE    HY 2222   0.240   3.014  16.859 -0.2377  0.5670  0.8126
   18DOPE   O31 2223   0.339   2.894  16.715 -0.3163  0.3775 -0.1980
   18DOPE   C31 2224   0.454   2.950  16.667  0.0953  0.9550  0.5875
   18DOPE   O32 2225   0.520   3.034  16.724  0.0956  0.5179 -0.3168
   18DOPE   C32 2226   0.485   2.892  16.535  0.4014  0.2905 -0.1803
   18DOPE   H2X 2227   0.483   2.972  16.458 -1.9574  0.5548  0.1104
   18DOPE   H2Y 2228   0.590   2.854  16.540  0.0210 -0.6285  2.2154
   18DOPE   C23 2229  -0.107   2.761  16.668  0.2636 -0.1929 -0.1871
   18DOPE   H3R 2230  -0.044   2.669  16.665  0.4686 -0.0730  0.3601
   18DOPE   H3S 2231  -0.068   2.838  16.598 -2.3243  1.3115 -0.0876
   18DOPE   C24 2232  -0.235   2.721  16.605  0.0967  0.3954 -0.6156
   18DOPE   H4R 2233  -0.297   2.807  16.572  0.3664  1.6613  1.9602
   18DOPE   H4S 2234  -0.299   2.667  16.678  1.6428  1.8076  1.9297
   18DOPE   C25 2235  -0.221   2.627  16.489  0.0456  0.5819 -0.4168
   18DOPE   H5R 2236  -0.325   2.599  16.460  0.3120 -0.3187 -0.5311
   18DOPE   H5S 2237  -0.177   2.538  16.540 -0.2191  0.7017  0.0304
   18DOPE   C26 2238  -0.134   2.670  16.376 -0.1741  0.4063 -0.2902
   18DOPE   H6R 2239  -0.123   2.576  16.319  3.0312  1.2218 -1.2200
   18DOPE   H6S 2240  -0.037   2.702  16.422  1.6970 -1.3280 -2.7733
   18DOPE   C27 2241  -0.190   2.765  16.277 -0.5276  0.0089 -0.7678
   18DOPE   H7R 2242  -0.202   2.864  16.326 -0.5370 -1.1594  1.7524
   18DOPE   H7S 2243  -0.288   2.719  16.250 -0.4304 -0.8493  0.2468
   18DOPE   C28 2244  -0.109   2.769  16.144 -0.1788 -0.2682 -0.3617
   18DOPE   H8R 2245  -0.178   2.816  16.070 -1.1515  0.2450  0.8378
   18DOPE   H8S 2246  -0.097   2.664  16.109 -0.2801  0.1045 -1.5799
   18DOPE   C29 2247   0.020   2.844  16.161 -0.4296  0.1602  0.2995
   18DOPE   H9R 2248   0.072   2.808  16.251 -0.5910 -0.8877 -0.0190
   18DOPE  C210 2249   0.077   2.940  16.087  0.4833 -0.3666 -0.1995
   18DOPE  H10R 2250   0.169   2.992  16.116  0.1712 -0.1688  0.4625
   18DOPE  C211 2251   0.015   2.992  15.958 -0.3451 -0.1752  0.0222
   18DOPE  H11R 2252  -0.010   3.099  15.973  0.8600 -0.0490  1.3588
   18DOPE  H11S 2253  -0.075   2.933  15.933 -1.2460  0.9480  0.4826
   18DOPE  C212 2254   0.120   2.960  15.851 -0.7626  0.0388  0.1772
   18DOPE  H12R 2255   0.141   2.852  15.844 -0.5631  0.1934 -3.1632
   18DOPE  H12S 2256   0.214   3.015  15.873 -0.4960 -0.2065 -0.3273
   18DOPE  C213 2257   0.074   3.004  15.707  0.1877  0.2802  0.0220
   18DOPE  H13R 2258   0.050   3.113  15.708 -2.5823 -0.2453  1.8666
   18DOPE  H13S 2259  -0.026   2.956  15.695  0.7198 -0.9347  0.3968
   18DOPE  C214 2260   0.170   2.966  15.588  0.7690 -1.1185  0.7104
   18DOPE  H14R 2261   0.114   2.971  15.493 -1.0765 -0.9835  1.7592
   18DOPE  H14S 2262   0.224   2.871  15.610  3.4885  0.4387  1.2404
   18DOPE  C215 2263   0.281   3.072  15.579 -0.4975 -0.1045  0.3004
   18DOPE  H15R 2264   0.330   3.074  15.678 -0.7402  0.2365  0.4141
   18DOPE  H15S 2265   0.232   3.169  15.556  0.5730 -0.0256 -1.9387
   18DOPE  C216 2266   0.387   3.067  15.468  0.0662  0.0403  0.0241
   18DOPE  H16R 2267   0.345   3.088  15.367  1.6184  1.2226 -0.4126
   18DOPE  H16S 2268   0.437   2.968  15.478  0.9846  0.2533 -1.9622
   18DOPE  C217 2269   0.504   3.165  15.486 -0.2747  0.2985 -0.3435
   18DOPE  H17R 2270   0.567   3.159  15.395 -0.9789 -1.0518 -0.7636
   18DOPE  H17S 2271   0.554   3.125  15.577 -2.0796  0.2180  0.6556
   18DOPE  C218 2272   0.464   3.312  15.508  0.0206  0.0554  0.7692
   18DOPE  H18R 2273   0.407   3.343  15.419 -0.2240 -1.0110  0.5382
   18DOPE  H18S 2274   0.551   3.380  15.516  1.6422 -1.9422  0.9066
   18DOPE  H18T 2275   0.393   3.333  15.591 -1.2917 -0.1222 -0.2774
   18DOPE   C33 2276   0.392   2.774  16.499  0.0662 -0.2220  0.1105
   18DOPE   H3X 2277   0.286   2.808  16.494 -0.1664 -0.2688  3.0454
   18DOPE   H3Y 2278   0.397   2.686  16.566  0.0589  0.9672  1.7238
   18DOPE   C34 2279   0.439   2.730  16.362 -0.3174  0.0859 -0.3040
   18DOPE   H4X 2280   0.550   2.735  16.358 -0.1997 -1.6024 -0.1093
   18DOPE   H4Y 2281   0.424   2.620  16.356  0.4268 -0.1466  1.4363
   18DOPE   C35 2282   0.380   2.794  16.240  0.0371  0.6348  0.2810
   18DOPE   H5X 2283   0.385   2.904  16.253  2.4821  0.6748 -0.3408
   18DOPE   H5Y 2284   0.277   2.758  16.220  0.8209 -2.3659  1.1439
   18DOPE   C36 2285   0.445   2.743  16.118  0.1849 -0.0237 -0.8270
   18DOPE   H6X 2286   0.420   2.635  16.108  1.6160 -0.6388  1.5176
   18DOPE   H6Y 2287   0.556   2.751  16.126  0.0822  2.8220 -1.4564
   18DOPE   C37 2288   0.389   2.811  15.997 -0.2514 -0.3309 -0.5819
   18DOPE   H7X 2289   0.281   2.787  15.992 -0.2780 -0.4270  0.2709
   18DOPE   H7Y 2290   0.392   2.922  16.006  2.6201 -0.3119 -0.7312
   18DOPE   C38 2291   0.454   2.787  15.864  1.1596  0.4099  0.4396
   18DOPE   H8X 2292   0.559   2.822  15.862  0.8592  1.4054 -2.3193
   18DOPE   H8Y 2293   0.396   2.848  15.791 -1.0591 -1.8956  0.1127
   18DOPE   C39 2294   0.440   2.639  15.834  0.8460  0.1120 -0.2457
   18DOPE   H9X 2295   0.403   2.566  15.908 -0.1360  1.1833  0.3491
   18DOPE  C310 2296   0.470   2.583  15.716 -0.0158 -0.1970 -0.2518
   18DOPE  H10X 2297   0.454   2.476  15.696  1.3000 -0.8057  1.7019
   18DOPE  C311 2298   0.520   2.662  15.598  0.0631 -0.1966  0.3178
   18DOPE  H11X 2299   0.514   2.770  15.620  3.1062  0.3061 -0.8490
   18DOPE  H11Y 2300   0.627   2.635  15.592  0.1540  0.4005 -1.2267
   18DOPE  C312 2301   0.446   2.650  15.462 -0.1836 -0.1418  0.7999
   18DOPE  H12X 2302   0.350   2.704  15.479  0.3003 -0.0096  3.5305
   18DOPE  H12Y 2303   0.417   2.545  15.443  0.2671  0.0543 -1.1063
   18DOPE  C313 2304   0.519   2.701  15.338 -0.8104 -0.9118 -0.2447
   18DOPE  H13X 2305   0.596   2.778  15.362 -0.7026 -1.2550  0.5360
   18DOPE  H13Y 2306   0.576   2.620  15.287 -1.5565 -0.0337 -2.5848
   18DOPE  C314 2307   0.431   2.766  15.227 -0.4352 -0.0728 -0.0514
   18DOPE  H14X 2308   0.379   2.857  15.263  0.8465  0.5093  0.3916
   18DOPE  H14Y 2309   0.358   2.688  15.194 -0.1313 -0.8438  1.0516
   18DOPE  C315 2310   0.506   2.815  15.096  0.7166  0.3603 -0.6853
   18DOPE  H15X 2311   0.586   2.740  15.078  1.4167  0.7304  0.7385
   18DOPE  H15Y 2312   0.549   2.912  15.127  0.2886  0.3487 -0.0298
   18DOPE  C316 2313   0.412   2.837  14.973 -1.1865  0.6021  0.3316
   18DOPE  H16X 2314   0.316   2.882  15.005 -1.0810  1.0459  0.0437
   18DOPE  H16Y 2315   0.387   2.739  14.927 -3.2684  1.8316 -1.3796
   18DOPE  C317 2316   0.475   2.932  14.864  0.0296 -0.1253 -0.8334
   18DOPE  H17X 2317   0.486   3.034  14.909 -3.3127  0.2891 -0.6847
   18DOPE  H17Y 2318   0.574   2.889  14.838 -0.0626 -1.2258  0.5435
   18DOPE  C318 2319   0.386   2.942  14.734 -0.6040  0.1316  0.9743
   18DOPE  H18X 2320   0.450   2.961  14.645 -0.6960  0.0463  0.8887
   18DOPE  H18Y 2321   0.323   2.850  14.730  3.7375 -3.1035 -0.4191
   18DOPE  H18Z 2322   0.314   3.025  14.746 -1.0639 -0.1516  0.2755
   19DOPE     N 2323   1.135   4.127  17.140 -0.4740 -0.3688 -0.0630
   19DOPE   HN1 2324   1.160   4.219  17.180  1.1414 -0.5021 -0.7035
   19DOPE   HN2 2325   1.033   4.104  17.143 -0.7249  0.5947 -0.8648
   19DOPE   HN3 2326   1.176   4.056  17.204  1.0832 -0.5710 -1.2315
   19DOPE   C12 2327   1.202   4.111  17.002  0.3429  0.9052 -0.3939
   19DOPE  H12A 2328   1.312   4.125  17.010  0.2005  2.5864 -1.0860
   19DOPE  H12B 2329   1.168   4.190  16.932  1.0549  0.6127 -1.0861
   19DOPE   C11 2330   1.163   3.973  16.940  0.3778  0.4584 -0.5576
   19DOPE  H11A 2331   1.215   3.893  16.997 -0.3604  1.2835  1.3534
   19DOPE  H11B 2332   1.210   3.965  16.839  1.1252 -0.7421 -0.1386
   19DOPE     P 2333   0.941   3.957  16.801 -0.2554  0.4948 -0.2171
   19DOPE   O13 2334   0.945   4.094  16.746  0.1451  0.3050  0.2952
   19DOPE   O14 2335   0.810   3.904  16.826  1.0614 -0.1500  0.2038
   19DOPE   O11 2336   1.010   3.862  16.695  0.1638  0.7426  0.2579
   19DOPE   O12 2337   1.019   3.952  16.934 -0.1214 -0.4781 -0.6768
   19DOPE    C1 2338   1.048   3.736  16.746 -0.1147  0.9063 -0.0205
   19DOPE    HA 2339   0.956   3.680  16.774  1.7818 -2.1790  0.5085
   19DOPE    HB 2340   1.118   3.731  16.832 -0.7844 -0.3581  0.4752
   19DOPE    C2 2341   1.115   3.636  16.644  0.3147 -0.2604 -1.0390
   19DOPE    HS 2342   1.085   3.540  16.690  1.0281  0.4511  1.0227
   19DOPE   O21 2343   1.256   3.666  16.637  0.5775  0.2865  0.0591
   19DOPE   C21 2344   1.339   3.566  16.630 -0.4315  0.4450 -0.2487
   19DOPE   O22 2345   1.311   3.446  16.632  0.3809 -0.1624  0.2521
   19DOPE   C22 2346   1.486   3.611  16.609 -1.0676 -0.0730 -0.4833
   19DOPE   H2R 2347   1.547   3.558  16.685 -1.3061 -0.2016 -0.3794
   19DOPE   H2S 2348   1.500   3.719  16.633 -1.8581 -0.3708  1.5520
   19DOPE    C3 2349   1.040   3.647  16.504 -0.0028 -0.1577  0.0595
   19DOPE    HX 2350   1.049   3.751  16.467 -0.7198  0.3267  1.1708
   19DOPE    HY 2351   0.930   3.635  16.515 -0.0751  0.1147 -0.3784
   19DOPE   O31 2352   1.096   3.550  16.416  0.2439  0.0769 -0.0684
   19DOPE   C31 2353   1.028   3.447  16.392 -0.3034 -0.2871  0.3249
   19DOPE   O32 2354   0.927   3.411  16.453  0.2842  0.2272 -0.2074
   19DOPE   C32 2355   1.094   3.380  16.276 -0.0794 -1.0732 -0.1845
   19DOPE   H2X 2356   1.143   3.286  16.310  2.2045 -0.1256 -0.6192
   19DOPE   H2Y 2357   1.012   3.353  16.207  0.3002 -0.4935 -0.8774
   19DOPE   C23 2358   1.543   3.599  16.467  0.3433  0.4835 -0.3381
   19DOPE   H3R 2359   1.462   3.619  16.394 -0.6480 -0.6940  0.3987
   19DOPE   H3S 2360   1.575   3.492  16.463 -2.1200 -0.4090  1.4166
   19DOPE   C24 2361   1.653   3.699  16.441 -0.3314  0.5183 -0.7892
   19DOPE   H4R 2362   1.742   3.661  16.494 -0.9905 -1.0839 -0.7776
   19DOPE   H4S 2363   1.632   3.798  16.487  0.6607 -0.8864  3.0528
   19DOPE   C25 2364   1.677   3.718  16.294  0.6313  0.0749 -0.2204
   19DOPE   H5R 2365   1.583   3.749  16.245 -0.0911 -2.1289 -0.3515
   19DOPE   H5S 2366   1.703   3.620  16.247 -0.9003  0.2783 -1.5752
   19DOPE   C26 2367   1.781   3.823  16.279 -0.8320  0.4201  0.4819
   19DOPE   H6R 2368   1.874   3.794  16.333 -1.1307 -1.0723  0.2220
   19DOPE   H6S 2369   1.742   3.914  16.331 -0.1739  0.3696  1.0763
   19DOPE   C27 2370   1.802   3.867  16.137 -0.7427 -0.7768 -0.3349
   19DOPE   H7R 2371   1.860   3.962  16.139 -1.0677 -0.5712  2.2898
   19DOPE   H7S 2372   1.707   3.895  16.087 -0.2156 -1.4972 -1.8009
   19DOPE   C28 2373   1.869   3.757  16.064  0.4516 -0.0721  0.0698
   19DOPE   H8R 2374   1.813   3.663  16.080  0.8354 -0.2714  0.2490
   19DOPE   H8S 2375   1.969   3.748  16.110 -0.0732 -2.2722  0.8939
   19DOPE   C29 2376   1.882   3.786  15.913 -0.0287  0.1422  0.2658
   19DOPE   H9R 2377   1.879   3.892  15.885 -0.1190  0.6104  1.9258
   19DOPE  C210 2378   1.915   3.689  15.820 -0.0887 -0.9328 -0.1748
   19DOPE  H10R 2379   1.936   3.716  15.715  1.3986 -0.3152  0.2575
   19DOPE  C211 2380   1.948   3.552  15.850 -0.7328 -0.3325  0.3202
   19DOPE  H11R 2381   1.894   3.513  15.939  0.2151 -2.7323 -0.0597
   19DOPE  H11S 2382   2.054   3.559  15.881 -0.3964 -0.5506 -0.7296
   19DOPE  C212 2383   1.937   3.455  15.736 -0.5716  0.5798  0.5888
   19DOPE  H12R 2384   1.836   3.454  15.687  0.3439 -1.4638 -1.4858
   19DOPE  H12S 2385   1.957   3.353  15.775  1.3899 -0.2766 -2.3150
   19DOPE  C213 2386   2.038   3.458  15.616  0.4190  0.2887 -0.1941
   19DOPE  H13R 2387   2.137   3.429  15.659  0.2265 -0.9157 -0.5326
   19DOPE  H13S 2388   2.050   3.560  15.575  0.4222  0.3993  0.0827
   19DOPE  C214 2389   1.980   3.373  15.507 -0.0632  0.6682 -0.6901
   19DOPE  H14R 2390   1.875   3.395  15.476 -0.0220  0.4321 -0.9994
   19DOPE  H14S 2391   1.967   3.276  15.558  0.0403  0.0804 -1.7546
   19DOPE  C215 2392   2.060   3.355  15.374  0.3154 -0.3320  0.2115
   19DOPE  H15R 2393   2.147   3.295  15.407 -0.6632 -1.0042  1.7183
   19DOPE  H15S 2394   2.099   3.445  15.321  0.4077 -1.1663 -1.1709
   19DOPE  C216 2395   1.975   3.304  15.254 -0.3522 -0.2278 -0.5236
   19DOPE  H16R 2396   1.880   3.359  15.233  0.0667  0.3359 -0.9559
   19DOPE  H16S 2397   1.943   3.201  15.282  1.5845 -0.5390  0.7148
   19DOPE  C217 2398   2.056   3.294  15.119  0.6152  0.0634  0.3520
   19DOPE  H17R 2399   2.089   3.399  15.101  0.6980  0.5674  3.0726
   19DOPE  H17S 2400   1.982   3.265  15.041 -1.8298  1.9733  1.8037
   19DOPE  C218 2401   2.180   3.205  15.124 -0.4216 -0.1875 -0.4466
   19DOPE  H18R 2402   2.246   3.223  15.212 -0.1274 -1.5735 -0.3666
   19DOPE  H18S 2403   2.244   3.225  15.035 -0.2977  0.4866 -0.2164
   19DOPE  H18T 2404   2.153   3.098  15.126  0.2488 -0.3497  1.5317
   19DOPE   C33 2405   1.196   3.466  16.202  0.2740 -0.6412  0.1798
   19DOPE   H3X 2406   1.296   3.475  16.250  1.2170  0.4824 -1.8635
   19DOPE   H3Y 2407   1.155   3.568  16.186  0.8375 -0.6949 -1.9662
   19DOPE   C34 2408   1.230   3.407  16.060 -0.1245  0.3189 -0.1530
   19DOPE   H4X 2409   1.264   3.301  16.066 -0.6308  0.1381 -0.4395
   19DOPE   H4Y 2410   1.136   3.412  16.001 -1.4515  3.6121  1.9332
   19DOPE   C35 2411   1.335   3.487  15.989 -0.3906 -0.2585  0.0846
   19DOPE   H5X 2412   1.438   3.499  16.028 -0.2713 -1.0002  0.0127
   19DOPE   H5Y 2413   1.296   3.590  16.004 -0.4143 -0.3476  0.6596
   19DOPE   C36 2414   1.341   3.462  15.846 -0.4842  0.5212 -0.3908
   19DOPE   H6X 2415   1.246   3.448  15.790 -0.1759 -1.3742 -0.5190
   19DOPE   H6Y 2416   1.375   3.358  15.826  0.9399  1.0326 -0.7273
   19DOPE   C37 2417   1.433   3.555  15.769 -0.0005 -0.1922 -0.3862
   19DOPE   H7X 2418   1.422   3.664  15.788 -1.9707 -0.2884 -0.7684
   19DOPE   H7Y 2419   1.539   3.531  15.789 -0.1376  0.3996  1.1483
   19DOPE   C38 2420   1.421   3.537  15.612  0.0887 -0.1761  0.2310
   19DOPE   H8X 2421   1.320   3.564  15.575  0.0898 -0.0673  0.3079
   19DOPE   H8Y 2422   1.442   3.433  15.579  0.1894 -0.7162  1.9004
   19DOPE   C39 2423   1.527   3.625  15.543 -0.6955 -0.1236 -0.0448
   19DOPE   H9X 2424   1.522   3.728  15.582  0.8364  0.7827 -2.0741
   19DOPE  C310 2425   1.611   3.602  15.437  0.0081 -0.0238 -0.3000
   19DOPE  H10X 2426   1.700   3.665  15.420 -0.1053  0.2795  0.2332
   19DOPE  C311 2427   1.619   3.473  15.359 -0.4499 -0.5359  0.3123
   19DOPE  H11X 2428   1.713   3.482  15.300 -0.7135  0.3230  0.0070
   19DOPE  H11Y 2429   1.639   3.379  15.416  0.7235  0.2995  1.3257
   19DOPE  C312 2430   1.500   3.443  15.267  0.3787  1.0868  0.0376
   19DOPE  H12X 2431   1.494   3.531  15.199 -1.1033  1.0788  0.1325
   19DOPE  H12Y 2432   1.406   3.430  15.325  0.4661  0.9853  0.1546
   19DOPE  C313 2433   1.525   3.322  15.183 -0.5130 -0.3655  0.6569
   19DOPE  H13X 2434   1.618   3.336  15.124 -0.8556  0.1240  0.2230
   19DOPE  H13Y 2435   1.534   3.230  15.244  1.4942  0.1758  1.2559
   19DOPE  C314 2436   1.412   3.304  15.081 -0.3283 -0.8527 -0.3864
   19DOPE  H14X 2437   1.421   3.396  15.018  0.2701 -0.8406 -0.2892
   19DOPE  H14Y 2438   1.306   3.316  15.112  0.4658  0.2960  2.1254
   19DOPE  C315 2439   1.432   3.182  14.989  0.4016  0.2154  0.2690
   19DOPE  H15X 2440   1.423   3.091  15.053 -3.3663 -0.0924 -0.4511
   19DOPE  H15Y 2441   1.536   3.170  14.952  0.3035 -1.0646  0.3484
   19DOPE  C316 2442   1.317   3.167  14.888 -0.0529 -0.5017 -0.4244
   19DOPE  H16X 2443   1.269   3.264  14.866  1.9034  1.3461  2.6820
   19DOPE  H16Y 2444   1.232   3.108  14.929 -2.0973  1.6839 -1.3135
   19DOPE  C317 2445   1.367   3.103  14.759  0.1059 -0.0388  0.1959
   19DOPE  H17X 2446   1.445   3.173  14.721  0.0519  1.0626  2.0059
   19DOPE  H17Y 2447   1.433   3.023  14.798  1.5949 -1.2176 -4.1434
   19DOPE  C318 2448   1.257   3.076  14.660 -0.3881 -0.0670  0.3872
   19DOPE  H18X 2449   1.210   3.176  14.647 -0.7156  0.0100  1.9828
   19DOPE  H18Y 2450   1.296   3.039  14.563  2.1063 -0.8386  1.6001
   19DOPE  H18Z 2451   1.176   3.007  14.694 -2.6512  0.9236 -2.5798
   20DOPE     N 2452   7.085   7.335  17.300  1.0874 -0.4978 -0.0333
   20DOPE   HN1 2453   7.136   7.329  17.391 -0.3706  0.6592  0.9145
   20DOPE   HN2 2454   7.133   7.269  17.236 -1.4136 -0.7479 -1.7783
   20DOPE   HN3 2455   7.083   7.421  17.243  0.0268  0.0374  0.7661
   20DOPE   C12 2456   6.947   7.270  17.312 -0.1139  0.4736  0.0953
   20DOPE  H12A 2457   6.876   7.352  17.336 -0.7542  0.0104 -0.1864
   20DOPE  H12B 2458   6.957   7.198  17.396 -0.5148 -0.0242 -0.2789
   20DOPE   C11 2459   6.904   7.185  17.196 -0.1063  0.1718  0.0104
   20DOPE  H11A 2460   6.902   7.253  17.108 -1.2410  0.4845  0.2702
   20DOPE  H11B 2461   6.799   7.155  17.214  0.1583 -1.7897 -1.3788
   20DOPE     P 2462   7.113   7.056  17.089 -0.2989  0.1158  0.0639
   20DOPE   O13 2463   7.165   6.920  17.090 -0.2903  0.4922 -0.4186
   20DOPE   O14 2464   7.207   7.153  17.149  0.2272  0.2420  0.1713
   20DOPE   O11 2465   7.081   7.093  16.938 -0.0170  0.2144 -0.0176
   20DOPE   O12 2466   6.975   7.068  17.171 -0.3914  0.1954  0.3207
   20DOPE    C1 2467   7.193   7.135  16.857  0.4087 -0.6951  0.2200
   20DOPE    HA 2468   7.202   7.068  16.769 -2.3682 -0.5991 -0.2350
   20DOPE    HB 2469   7.294   7.133  16.902  1.0917  2.4918 -0.9002
   20DOPE    C2 2470   7.165   7.279  16.799 -0.2853  0.5838  0.0736
   20DOPE    HS 2471   7.140   7.350  16.881 -0.5619  2.0157 -1.2061
   20DOPE   O21 2472   7.047   7.272  16.717  0.1570 -0.2297  0.1673
   20DOPE   C21 2473   6.997   7.392  16.691 -1.1402  0.2125 -0.0102
   20DOPE   O22 2474   7.037   7.498  16.736 -0.5683  0.4523  0.2210
   20DOPE   C22 2475   6.878   7.377  16.591 -0.1015  0.4613  0.1914
   20DOPE   H2R 2476   6.800   7.309  16.631  0.3153 -1.1627 -1.5917
   20DOPE   H2S 2477   6.921   7.326  16.502  1.1655  1.4514  0.2027
   20DOPE    C3 2478   7.288   7.335  16.729 -0.8631 -0.3746 -0.2140
   20DOPE    HX 2479   7.360   7.369  16.807 -1.4351 -0.2492  0.2735
   20DOPE    HY 2480   7.250   7.424  16.673  0.0203  0.6110  0.7099
   20DOPE   O31 2481   7.343   7.248  16.633  0.0823 -0.2319  0.2689
   20DOPE   C31 2482   7.454   7.289  16.573 -0.1005  0.2510 -0.5841
   20DOPE   O32 2483   7.520   7.390  16.595  0.4488  0.5922  0.7024
   20DOPE   C32 2484   7.471   7.190  16.458  0.4044 -0.5145  0.6547
   20DOPE   H2X 2485   7.561   7.126  16.472  0.4292 -0.4918  0.5984
   20DOPE   H2Y 2486   7.383   7.122  16.462  1.2390 -1.6981 -0.2629
   20DOPE   C23 2487   6.812   7.515  16.550  0.1445  0.2594  0.7109
   20DOPE   H3R 2488   6.865   7.564  16.465 -0.3895 -2.0325 -1.0301
   20DOPE   H3S 2489   6.830   7.582  16.637  2.6332 -0.1938  0.6275
   20DOPE   C24 2490   6.660   7.493  16.530 -0.0359  0.6180  0.1855
   20DOPE   H4R 2491   6.599   7.585  16.543  0.8151  1.2990 -0.5679
   20DOPE   H4S 2492   6.637   7.432  16.620  2.1375  2.0897  1.8070
   20DOPE   C25 2493   6.635   7.415  16.403 -0.3540 -0.9062  0.2520
   20DOPE   H5R 2494   6.536   7.365  16.405 -1.4638  1.2200  0.4199
   20DOPE   H5S 2495   6.715   7.338  16.393  0.5707  0.0758 -0.1499
   20DOPE   C26 2496   6.624   7.495  16.277  0.0060  0.3846  0.1156
   20DOPE   H6R 2497   6.707   7.567  16.262  0.7044 -0.6004 -0.9499
   20DOPE   H6S 2498   6.531   7.554  16.292  0.3697  1.3158 -1.0577
   20DOPE   C27 2499   6.607   7.410  16.150  0.2620  0.0321 -0.3239
   20DOPE   H7R 2500   6.526   7.337  16.169  0.6336 -1.3030 -3.2726
   20DOPE   H7S 2501   6.705   7.359  16.140  0.8247  1.3139 -1.7087
   20DOPE   C28 2502   6.570   7.493  16.026  0.1703  0.3735 -0.4658
   20DOPE   H8R 2503   6.475   7.548  16.044  0.6166  1.2055 -0.6074
   20DOPE   H8S 2504   6.538   7.423  15.947 -2.1966  0.5300  0.2639
   20DOPE   C29 2505   6.667   7.593  15.973 -0.4996 -0.2370 -0.2447
   20DOPE   H9R 2506   6.731   7.632  16.053 -0.3376 -1.5667  0.3105
   20DOPE  C210 2507   6.662   7.635  15.845 -0.5487 -0.4472  0.0831
   20DOPE  H10R 2508   6.740   7.708  15.817 -0.6115 -0.5326 -0.3218
   20DOPE  C211 2509   6.586   7.582  15.733  0.0235 -0.6312  0.0557
   20DOPE  H11R 2510   6.524   7.657  15.681 -0.0746  0.7858  2.0885
   20DOPE  H11S 2511   6.503   7.517  15.768  1.6237 -3.4174 -1.0295
   20DOPE  C212 2512   6.661   7.496  15.630  0.2107  0.0088  0.2917
   20DOPE  H12R 2513   6.727   7.427  15.687  0.5688  0.2486  0.1720
   20DOPE  H12S 2514   6.722   7.565  15.568  1.1092 -1.2521 -0.2766
   20DOPE  C213 2515   6.571   7.406  15.538 -1.0226  0.2684 -0.4028
   20DOPE  H13R 2516   6.550   7.463  15.445  0.6476 -0.0504 -1.0119
   20DOPE  H13S 2517   6.481   7.367  15.590  1.2128 -2.7688  1.5002
   20DOPE  C214 2518   6.642   7.282  15.485 -0.4250  0.0260 -0.0087
   20DOPE  H14R 2519   6.574   7.225  15.418  1.1162  0.8530 -2.3718
   20DOPE  H14S 2520   6.666   7.228  15.580 -3.4006 -0.3181  0.6515
   20DOPE  C215 2521   6.780   7.315  15.424 -0.6375 -0.1733  0.2038
   20DOPE  H15R 2522   6.844   7.383  15.483  1.5111 -1.6475 -0.2894
   20DOPE  H15S 2523   6.771   7.353  15.320  1.6464 -0.5765 -0.1982
   20DOPE  C216 2524   6.865   7.188  15.412 -0.0119 -0.4212 -0.1077
   20DOPE  H16R 2525   6.808   7.094  15.395 -1.9743  0.6960 -0.0925
   20DOPE  H16S 2526   6.915   7.169  15.509  0.9911  2.0546 -0.0792
   20DOPE  C217 2527   6.975   7.202  15.309  0.0387 -0.5867 -0.6566
   20DOPE  H17R 2528   7.060   7.260  15.351  0.6522 -0.5426 -1.9346
   20DOPE  H17S 2529   6.941   7.251  15.216  0.9302  0.2497 -0.5501
   20DOPE  C218 2530   7.034   7.064  15.267 -0.5629  0.2618 -1.0380
   20DOPE  H18R 2531   6.953   6.992  15.241 -0.0674 -0.4745 -0.5759
   20DOPE  H18S 2532   7.101   7.025  15.346 -1.1410  1.1383 -0.0919
   20DOPE  H18T 2533   7.097   7.076  15.176 -0.6951  0.2873 -1.1265
   20DOPE   C33 2534   7.459   7.247  16.309 -0.4783  0.2823  0.6579
   20DOPE   H3X 2535   7.384   7.329  16.302 -0.8976 -0.0620  1.0764
   20DOPE   H3Y 2536   7.426   7.162  16.246  0.8951 -0.0288  0.3172
   20DOPE   C34 2537   7.596   7.275  16.252 -0.3123  0.6195 -0.1337
   20DOPE   H4X 2538   7.637   7.352  16.321  0.2578  0.9839 -0.8611
   20DOPE   H4Y 2539   7.655   7.181  16.240 -2.1736 -0.3729 -2.1436
   20DOPE   C35 2540   7.598   7.330  16.107 -0.1805 -0.3991  0.6189
   20DOPE   H5X 2541   7.700   7.360  16.075 -1.8012  2.7939 -2.1767
   20DOPE   H5Y 2542   7.538   7.423  16.105  0.0622 -0.1834 -2.5272
   20DOPE   C36 2543   7.533   7.223  16.011 -0.9752 -0.2499 -0.3512
   20DOPE   H6X 2544   7.433   7.188  16.045 -1.4562  1.1284 -0.3037
   20DOPE   H6Y 2545   7.586   7.126  16.003 -2.2232 -0.7786 -4.7505
   20DOPE   C37 2546   7.524   7.270  15.859 -0.7558 -0.9368  0.1085
   20DOPE   H7X 2547   7.471   7.367  15.852  1.1165  0.1957  0.8992
   20DOPE   H7Y 2548   7.630   7.289  15.831 -0.9551 -0.8556 -0.6302
   20DOPE   C38 2549   7.462   7.168  15.757 -0.2335 -0.1587  0.4929
   20DOPE   H8X 2550   7.523   7.076  15.755  2.5937  1.5974  0.5969
   20DOPE   H8Y 2551   7.467   7.214  15.656  1.5463 -2.5571 -0.6034
   20DOPE   C39 2552   7.319   7.129  15.789  0.6923  0.9233  0.3500
   20DOPE   H9X 2553   7.261   7.221  15.808 -0.2954  0.3722  0.0871
   20DOPE  C310 2554   7.257   7.009  15.775  0.6466 -0.3870  0.4197
   20DOPE  H10X 2555   7.152   7.007  15.808  0.7752 -1.3816  0.8022
   20DOPE  C311 2556   7.317   6.886  15.729  0.4085  0.6215 -0.0438
   20DOPE  H11X 2557   7.428   6.886  15.741  0.6587  1.1982 -1.9996
   20DOPE  H11Y 2558   7.288   6.801  15.794 -0.5477  0.1726 -1.0377
   20DOPE  C312 2559   7.281   6.857  15.585 -0.1086  1.3163  0.4896
   20DOPE  H12X 2560   7.333   6.934  15.524 -2.1238  0.9239 -1.9043
   20DOPE  H12Y 2561   7.174   6.873  15.557  0.5098 -0.0677 -3.2220
   20DOPE  C313 2562   7.314   6.708  15.547  0.1833  0.0577 -0.1651
   20DOPE  H13X 2563   7.255   6.640  15.612  1.3840  0.3517  1.2865
   20DOPE  H13Y 2564   7.279   6.677  15.446 -1.9969 -1.2861  0.9126
   20DOPE  C314 2565   7.460   6.665  15.565  0.5029  0.0683  0.2851
   20DOPE  H14X 2566   7.467   6.555  15.546  0.9352  0.1150  0.1735
   20DOPE  H14Y 2567   7.497   6.677  15.669  0.4868 -0.7172  0.3891
   20DOPE  C315 2568   7.553   6.743  15.471 -0.0772  0.5290 -0.2424
   20DOPE  H15X 2569   7.536   6.849  15.501  1.6322  0.2063  2.1720
   20DOPE  H15Y 2570   7.521   6.722  15.367 -1.9489 -2.2664  0.7761
   20DOPE  C316 2571   7.704   6.708  15.463 -0.2247 -0.4141 -0.1120
   20DOPE  H16X 2572   7.755   6.735  15.558  1.3014 -2.2588 -0.3438
   20DOPE  H16Y 2573   7.749   6.760  15.376 -0.6266 -2.4938 -1.6454
   20DOPE  C317 2574   7.737   6.556  15.458  0.5139  0.2801 -0.3002
   20DOPE  H17X 2575   7.669   6.509  15.532  0.2122 -1.1693 -1.4600
   20DOPE  H17Y 2576   7.702   6.508  15.364  2.2559  0.1172 -0.9108
   20DOPE  C318 2577   7.883   6.524  15.487 -0.5143  0.0359 -0.0943
   20DOPE  H18X 2578   7.888   6.414  15.489 -0.4262  0.0422  1.3932
   20DOPE  H18Y 2579   7.949   6.575  15.413 -1.4335 -0.9556 -1.6497
   20DOPE  H18Z 2580   7.901   6.561  15.591 -1.8246  2.0916 -0.5196
   21DOPE     N 2581   4.901   0.221  16.740 -0.5510 -0.3142  0.5887
   21DOPE   HN1 2582   4.903   0.314  16.785  0.6166 -0.3229  0.5720
   21DOPE   HN2 2583   4.961   0.155  16.793 -0.3413 -1.0136 -0.4669
   21DOPE   HN3 2584   4.942   0.233  16.645 -0.3756  1.6322  0.8813
   21DOPE   C12 2585   4.763   0.167  16.711 -0.6454  0.1610 -0.0950
   21DOPE  H12A 2586   4.705   0.139  16.802  1.3631  0.5502  1.3548
   21DOPE  H12B 2587   4.775   0.073  16.652  2.0492  1.5796 -2.0362
   21DOPE   C11 2588   4.693   0.267  16.620 -0.3337 -0.0992 -0.2893
   21DOPE  H11A 2589   4.597   0.220  16.590 -0.8408  1.3608 -1.0186
   21DOPE  H11B 2590   4.752   0.281  16.527 -0.0933 -0.4459 -0.1922
   21DOPE     P 2591   4.645   0.514  16.620  0.0259 -0.0482  0.2925
   21DOPE   O13 2592   4.773   0.572  16.578 -0.4247  0.0620  0.0134
   21DOPE   O14 2593   4.576   0.597  16.720 -0.1751  0.3642 -0.0276
   21DOPE   O11 2594   4.549   0.481  16.496 -0.5202  0.0216 -0.5329
   21DOPE   O12 2595   4.663   0.377  16.699 -0.1170  0.2857  0.3729
   21DOPE    C1 2596   4.411   0.445  16.511  0.2882  0.0871  0.2819
   21DOPE    HA 2597   4.376   0.418  16.613 -1.4450 -0.7911 -0.4906
   21DOPE    HB 2598   4.405   0.348  16.458 -1.5725 -0.9808  2.2736
   21DOPE    C2 2599   4.317   0.550  16.450  0.0725 -0.0623  1.0992
   21DOPE    HS 2600   4.213   0.543  16.488 -0.8546  2.9941 -0.5638
   21DOPE   O21 2601   4.313   0.536  16.303 -0.2508  0.1105 -0.2374
   21DOPE   C21 2602   4.249   0.434  16.255  0.4725 -0.0258  0.0053
   21DOPE   O22 2603   4.174   0.359  16.318  0.2953  0.7829  0.2991
   21DOPE   C22 2604   4.290   0.419  16.113  0.7174 -0.2671 -0.1013
   21DOPE   H2R 2605   4.399   0.399  16.115  0.5495 -1.4286  3.2415
   21DOPE   H2S 2606   4.265   0.518  16.067  0.4275  1.5499  3.5643
   21DOPE    C3 2607   4.359   0.693  16.487 -0.3069 -0.3522 -0.1961
   21DOPE    HX 2608   4.466   0.697  16.457 -0.6200  0.2262 -1.3097
   21DOPE    HY 2609   4.363   0.717  16.595 -1.2205 -0.7065 -0.0693
   21DOPE   O31 2610   4.285   0.784  16.404  0.5129  0.3543 -0.3153
   21DOPE   C31 2611   4.164   0.817  16.445  0.5394 -0.2893 -0.2546
   21DOPE   O32 2612   4.120   0.812  16.557  0.7836 -0.0061 -0.2624
   21DOPE   C32 2613   4.089   0.882  16.339  0.1997  0.0502 -0.3328
   21DOPE   H2X 2614   3.992   0.914  16.384  1.2597  2.2168  0.5526
   21DOPE   H2Y 2615   4.146   0.970  16.304  0.3785  0.4724  0.9668
   21DOPE   C23 2616   4.196   0.322  16.036 -0.0854 -0.0896 -0.5060
   21DOPE   H3R 2617   4.093   0.358  16.057  0.7554  2.6079 -0.6099
   21DOPE   H3S 2618   4.206   0.218  16.073  0.6172  0.6407  1.5242
   21DOPE   C24 2619   4.206   0.312  15.879  0.0922 -0.2446 -0.2767
   21DOPE   H4R 2620   4.165   0.406  15.836 -2.9992 -1.2380  0.2122
   21DOPE   H4S 2621   4.136   0.229  15.853  1.1023 -1.3045  0.2836
   21DOPE   C25 2622   4.348   0.284  15.833 -0.0536 -0.0923 -0.0086
   21DOPE   H5R 2623   4.404   0.378  15.850  1.1621 -0.7674 -0.1667
   21DOPE   H5S 2624   4.342   0.277  15.722  0.4135  0.2990 -0.0629
   21DOPE   C26 2625   4.430   0.164  15.886  0.2482  0.0998 -0.2137
   21DOPE   H6R 2626   4.403   0.070  15.834  0.6412 -0.5235  0.6915
   21DOPE   H6S 2627   4.417   0.149  15.995  0.3880  0.6490 -0.1195
   21DOPE   C27 2628   4.583   0.192  15.862 -0.2736  0.1599 -0.4521
   21DOPE   H7R 2629   4.623   0.256  15.944  0.6664 -0.9952  0.0203
   21DOPE   H7S 2630   4.596   0.249  15.768 -1.0842  0.2459 -0.5214
   21DOPE   C28 2631   4.661   0.065  15.839 -0.1918 -0.1208 -0.3306
   21DOPE   H8R 2632   4.667   0.006  15.934  0.7966 -0.2581 -0.4709
   21DOPE   H8S 2633   4.767   0.095  15.820  0.3439 -1.9008 -0.3513
   21DOPE   C29 2634   4.607  -0.029  15.733  0.4920  0.5991  0.3686
   21DOPE   H9R 2635   4.533  -0.102  15.770  0.7650 -0.1159 -0.4667
   21DOPE  C210 2636   4.643  -0.048  15.601 -0.2156  0.5186 -0.4346
   21DOPE  H10R 2637   4.576  -0.098  15.529  0.3035  0.5602 -0.9522
   21DOPE  C211 2638   4.757   0.023  15.524  0.1546 -0.0964 -0.6778
   21DOPE  H11R 2639   4.813  -0.052  15.465  0.5173 -0.4888  0.1466
   21DOPE  H11S 2640   4.828   0.068  15.597 -1.4434 -0.8431  1.4330
   21DOPE  C212 2641   4.728   0.137  15.431  0.5808  0.4077 -0.3577
   21DOPE  H12R 2642   4.821   0.177  15.384 -0.0899  1.0495 -1.1777
   21DOPE  H12S 2643   4.687   0.223  15.487  0.0683  0.2986 -0.5578
   21DOPE  C213 2644   4.618   0.099  15.328  0.2864  0.7038  0.2551
   21DOPE  H13R 2645   4.525   0.067  15.379  0.9156 -1.1570  0.3108
   21DOPE  H13S 2646   4.643   0.002  15.280 -3.1458  0.0588 -0.4492
   21DOPE  C214 2647   4.609   0.202  15.216  0.0430  0.5528 -0.2813
   21DOPE  H14R 2648   4.705   0.209  15.161  0.3524  1.9199  0.3898
   21DOPE  H14S 2649   4.567   0.299  15.252 -0.3330  0.5046 -0.5802
   21DOPE  C215 2650   4.519   0.142  15.107  0.2216 -0.5140  0.2912
   21DOPE  H15R 2651   4.410   0.163  15.121  0.2416 -0.4000  0.2811
   21DOPE  H15S 2652   4.539   0.033  15.104  0.5264 -0.4383 -0.8964
   21DOPE  C216 2653   4.568   0.189  14.962  0.1973 -0.5025 -0.7825
   21DOPE  H16R 2654   4.632   0.107  14.924  0.6990 -1.1971  1.3916
   21DOPE  H16S 2655   4.630   0.281  14.971 -0.6083 -0.1169  1.4758
   21DOPE  C217 2656   4.448   0.200  14.870 -0.2600  0.0071 -0.3647
   21DOPE  H17R 2657   4.369   0.258  14.922  0.5491 -0.0225  0.9396
   21DOPE  H17S 2658   4.409   0.098  14.853 -1.1584 -0.4551  3.5812
   21DOPE  C218 2659   4.494   0.269  14.740 -0.6651  0.4204 -0.7625
   21DOPE  H18R 2660   4.502   0.380  14.751  0.0737  0.3609 -0.6733
   21DOPE  H18S 2661   4.425   0.240  14.657 -1.2312 -1.5008  0.3189
   21DOPE  H18T 2662   4.599   0.239  14.722 -0.1321  1.8477 -0.2140
   21DOPE   C33 2663   4.034   0.782  16.233 -0.0004 -0.0483  0.1544
   21DOPE   H3X 2664   3.987   0.689  16.272 -0.0814 -0.6195 -1.2575
   21DOPE   H3Y 2665   4.124   0.737  16.184  0.7724  0.6410  0.9116
   21DOPE   C34 2666   3.942   0.849  16.135 -0.7342  0.0290 -0.5204
   21DOPE   H4X 2667   3.835   0.852  16.167 -0.1005 -2.7537  2.3470
   21DOPE   H4Y 2668   3.980   0.953  16.124  2.4888 -0.9078  0.8067
   21DOPE   C35 2669   3.938   0.791  15.990  0.2925  0.3991  0.4055
   21DOPE   H5X 2670   3.871   0.848  15.923  0.2787 -2.2816 -2.0803
   21DOPE   H5Y 2671   3.885   0.693  15.991  0.4580  0.2360 -1.9810
   21DOPE   C36 2672   4.075   0.774  15.929 -0.7147  0.0948 -0.6791
   21DOPE   H6X 2673   4.132   0.704  15.993 -3.2228  0.1124  1.7689
   21DOPE   H6Y 2674   4.120   0.875  15.934 -0.7874  0.1160 -0.4568
   21DOPE   C37 2675   4.076   0.716  15.785  0.3299  0.0935  0.3957
   21DOPE   H7X 2676   4.011   0.625  15.785 -1.1758  1.0590 -2.5355
   21DOPE   H7Y 2677   4.028   0.786  15.714 -0.8955 -0.4934  0.6213
   21DOPE   C38 2678   4.220   0.695  15.744 -0.2733  0.7765  0.3451
   21DOPE   H8X 2679   4.208   0.624  15.659 -1.0161 -0.4584  1.4300
   21DOPE   H8Y 2680   4.265   0.627  15.819 -3.0585 -1.1328  0.4589
   21DOPE   C39 2681   4.312   0.811  15.706  0.1983  0.4287 -0.6926
   21DOPE   H9X 2682   4.394   0.825  15.778 -1.4091 -0.6746  1.4755
   21DOPE  C310 2683   4.310   0.881  15.593  0.5780 -0.1325 -0.0840
   21DOPE  H10X 2684   4.382   0.964  15.582  0.2740 -0.0425 -1.6750
   21DOPE  C311 2685   4.204   0.883  15.489 -0.2571 -0.6727 -0.6513
   21DOPE  H11X 2686   4.116   0.818  15.504 -2.2738  2.1333  0.6785
   21DOPE  H11Y 2687   4.161   0.986  15.491  1.1065 -0.0862  0.2483
   21DOPE  C312 2688   4.251   0.875  15.341  0.1523 -0.1019 -0.5245
   21DOPE  H12X 2689   4.333   0.947  15.325  0.3213 -0.7072 -2.7913
   21DOPE  H12Y 2690   4.171   0.901  15.267  0.3470 -2.3878 -1.6364
   21DOPE  C313 2691   4.296   0.731  15.299 -0.2725 -0.4538 -0.5109
   21DOPE  H13X 2692   4.405   0.721  15.285 -0.2082  0.4338 -0.6914
   21DOPE  H13Y 2693   4.260   0.664  15.379 -0.0300 -0.1419 -0.1357
   21DOPE  C314 2694   4.232   0.686  15.169 -0.6724 -0.9437  0.3419
   21DOPE  H14X 2695   4.289   0.737  15.088 -2.8469  1.1443  0.0379
   21DOPE  H14Y 2696   4.130   0.730  15.166 -0.2651  0.0410  0.4246
   21DOPE  C315 2697   4.240   0.538  15.158  0.4191 -0.2366  0.9931
   21DOPE  H15X 2698   4.201   0.498  15.254 -2.2671  0.1012  0.1118
   21DOPE  H15Y 2699   4.346   0.508  15.144  0.6234  1.4171 -1.8013
   21DOPE  C316 2700   4.162   0.490  15.038  0.4693  0.0244  0.4061
   21DOPE  H16X 2701   4.059   0.530  15.035 -0.3025 -1.8933 -1.5185
   21DOPE  H16Y 2702   4.154   0.379  15.033  0.5625  0.0645 -1.8526
   21DOPE  C317 2703   4.231   0.529  14.901  0.0150  0.0368 -0.5547
   21DOPE  H17X 2704   4.218   0.638  14.886  0.2221  0.0539 -0.6110
   21DOPE  H17Y 2705   4.339   0.509  14.914  0.0700 -0.2069 -1.3731
   21DOPE  C318 2706   4.182   0.454  14.778  0.5316  0.5394 -0.0453
   21DOPE  H18X 2707   4.258   0.467  14.698 -0.2193 -0.2750 -0.9195
   21DOPE  H18Y 2708   4.176   0.344  14.792  1.8970  0.5603  0.9638
   21DOPE  H18Z 2709   4.084   0.491  14.741  0.0833 -1.0199 -0.4838
   22DOPE     N 2710   0.347   4.616  17.119  0.2955  0.3599  0.0055
   22DOPE   HN1 2711   0.333   4.533  17.058 -3.4109 -0.5583  1.8061
   22DOPE   HN2 2712   0.278   4.612  17.197 -1.9409 -0.9855 -1.9061
   22DOPE   HN3 2713   0.342   4.706  17.068  0.6713 -1.6082 -3.8979
   22DOPE   C12 2714   0.484   4.599  17.186 -0.5301 -0.1149 -0.0458
   22DOPE  H12A 2715   0.504   4.490  17.193  1.6932  0.1547 -1.3874
   22DOPE  H12B 2716   0.492   4.647  17.286  0.6612  0.3595 -0.3483
   22DOPE   C11 2717   0.598   4.649  17.083  0.0843 -0.3295  0.4071
   22DOPE  H11A 2718   0.700   4.648  17.127 -0.6312  0.3054  2.1890
   22DOPE  H11B 2719   0.593   4.758  17.063  1.2123 -0.3569 -0.1329
   22DOPE     P 2720   0.685   4.582  16.847 -0.1986  0.4175 -0.1349
   22DOPE   O13 2721   0.714   4.442  16.803 -0.2296 -0.0166 -0.1065
   22DOPE   O14 2722   0.802   4.659  16.896 -0.3078 -0.8547  0.2024
   22DOPE   O11 2723   0.622   4.653  16.730 -0.5624 -0.2792 -0.2625
   22DOPE   O12 2724   0.570   4.563  16.964  0.1465  0.0351 -0.4615
   22DOPE    C1 2725   0.582   4.573  16.613 -0.3956 -0.9689  0.2361
   22DOPE    HA 2726   0.523   4.637  16.543 -0.4677 -1.7228 -0.4142
   22DOPE    HB 2727   0.521   4.485  16.642 -2.3323 -0.8351 -2.9124
   22DOPE    C2 2728   0.710   4.524  16.523 -0.2551  0.0478  0.1044
   22DOPE    HS 2729   0.770   4.456  16.587  1.4647  1.2679 -0.1511
   22DOPE   O21 2730   0.777   4.639  16.473 -0.2086 -0.2096 -0.3503
   22DOPE   C21 2731   0.907   4.631  16.454 -0.0407 -0.1326  0.0460
   22DOPE   O22 2732   0.973   4.525  16.450  0.4141  0.3468  0.4380
   22DOPE   C22 2733   0.957   4.773  16.438  1.4028 -0.0977 -0.0656
   22DOPE   H2R 2734   1.067   4.788  16.426  1.0137  1.8589 -1.8104
   22DOPE   H2S 2735   0.932   4.822  16.535 -1.3439  0.6189 -1.0515
   22DOPE    C3 2736   0.657   4.429  16.411 -0.5855  0.0057  0.2971
   22DOPE    HX 2737   0.576   4.485  16.360  1.0622  3.1564  0.8765
   22DOPE    HY 2738   0.612   4.339  16.458  0.7096 -1.4039 -1.0031
   22DOPE   O31 2739   0.752   4.388  16.316  0.1791 -1.0851 -0.4969
   22DOPE   C31 2740   0.826   4.287  16.347 -0.0794  0.4436 -0.6431
   22DOPE   O32 2741   0.823   4.225  16.453 -0.6717 -0.5295 -0.9313
   22DOPE   C32 2742   0.903   4.244  16.228  0.3973  0.1852  0.4916
   22DOPE   H2X 2743   0.948   4.328  16.171 -0.3389  0.3791  0.1820
   22DOPE   H2Y 2744   0.985   4.182  16.268  1.0347  1.3305  1.0112
   22DOPE   C23 2745   0.888   4.836  16.312 -0.1549 -0.3303 -0.0216
   22DOPE   H3R 2746   0.924   4.941  16.312  4.8346 -1.7597  2.1483
   22DOPE   H3S 2747   0.777   4.835  16.315 -0.1668 -1.7011  3.7190
   22DOPE   C24 2748   0.940   4.770  16.185 -0.3328 -0.2906  1.1972
   22DOPE   H4R 2749   0.928   4.660  16.176  0.3891 -0.2280 -1.3047
   22DOPE   H4S 2750   1.050   4.789  16.183 -0.4329  0.4379  1.9967
   22DOPE   C25 2751   0.885   4.842  16.048  0.2973  0.4552 -0.1439
   22DOPE   H5R 2752   0.938   4.940  16.043 -0.1176  0.6330 -1.2889
   22DOPE   H5S 2753   0.776   4.850  16.068  0.4786  0.7035  0.8267
   22DOPE   C26 2754   0.915   4.760  15.923  0.5105 -0.2205 -0.1358
   22DOPE   H6R 2755   1.024   4.736  15.916  0.7627  0.5467  0.9017
   22DOPE   H6S 2756   0.902   4.823  15.832 -1.4679  0.6247  0.6738
   22DOPE   C27 2757   0.834   4.627  15.908 -0.4394 -0.1235  0.1487
   22DOPE   H7R 2758   0.818   4.574  16.004 -1.0706 -1.4169 -0.6411
   22DOPE   H7S 2759   0.896   4.550  15.856 -1.5133 -1.2980  0.5437
   22DOPE   C28 2760   0.692   4.640  15.854 -0.6480  0.3764 -0.1675
   22DOPE   H8R 2761   0.704   4.698  15.760 -2.1463  0.6541 -0.2256
   22DOPE   H8S 2762   0.627   4.701  15.921  0.2003 -0.7532  1.7261
   22DOPE   C29 2763   0.634   4.505  15.822  0.2994 -0.2938 -0.0970
   22DOPE   H9R 2764   0.602   4.451  15.912  0.7444 -0.5700 -0.1058
   22DOPE  C210 2765   0.639   4.439  15.701  0.3146  0.3223  0.3712
   22DOPE  H10R 2766   0.597   4.337  15.693  0.4006  0.3094  0.0829
   22DOPE  C211 2767   0.711   4.479  15.572  0.2007  0.0667 -0.0773
   22DOPE  H11R 2768   0.737   4.389  15.513  1.7929 -0.4983  1.3721
   22DOPE  H11S 2769   0.812   4.521  15.594  0.2348  0.4886 -0.9970
   22DOPE  C212 2770   0.623   4.580  15.502 -0.3114  0.1290 -0.3514
   22DOPE  H12R 2771   0.598   4.672  15.560  2.5977  1.6634 -1.3412
   22DOPE  H12S 2772   0.522   4.533  15.501  0.1683 -0.9420 -0.3180
   22DOPE  C213 2773   0.646   4.617  15.357 -0.0330 -0.5398  0.1028
   22DOPE  H13R 2774   0.560   4.678  15.320  0.3461  1.3249  2.1126
   22DOPE  H13S 2775   0.643   4.524  15.296  1.1039 -0.4203 -0.1545
   22DOPE  C214 2776   0.779   4.687  15.334 -0.4972 -0.1109 -0.6418
   22DOPE  H14R 2777   0.846   4.649  15.413 -0.1718  2.3310  0.3635
   22DOPE  H14S 2778   0.757   4.794  15.353 -2.9176 -0.4624 -1.0841
   22DOPE  C215 2779   0.843   4.672  15.193  0.1646  0.2627 -0.3506
   22DOPE  H15R 2780   0.895   4.574  15.189  0.9561  0.6912 -0.9476
   22DOPE  H15S 2781   0.909   4.759  15.172 -0.2166  1.2973  2.3087
   22DOPE  C216 2782   0.733   4.660  15.077 -0.1446  0.4266 -0.1305
   22DOPE  H16R 2783   0.660   4.740  15.102 -0.0205  0.6175 -0.3786
   22DOPE  H16S 2784   0.695   4.556  15.085  2.3924 -0.4913  1.1366
   22DOPE  C217 2785   0.782   4.680  14.935 -0.8625 -0.6437 -0.9875
   22DOPE  H17R 2786   0.827   4.781  14.935  2.1515 -1.8817 -1.6697
   22DOPE  H17S 2787   0.703   4.659  14.860  0.1427 -1.8366 -1.7408
   22DOPE  C218 2788   0.891   4.573  14.898  0.1593  0.5694  0.0713
   22DOPE  H18R 2789   0.906   4.567  14.788  1.1612  0.3125  0.2137
   22DOPE  H18S 2790   0.865   4.470  14.931 -3.3266  1.2780 -0.0332
   22DOPE  H18T 2791   0.995   4.596  14.929  0.1165  0.4945  0.2713
   22DOPE   C33 2792   0.820   4.150  16.146  0.1196 -1.0126  0.1504
   22DOPE   H3X 2793   0.783   4.071  16.215 -2.3399 -0.8142 -0.8704
   22DOPE   H3Y 2794   0.891   4.101  16.075  1.4629  0.0045  0.7321
   22DOPE   C34 2795   0.713   4.207  16.056  0.7685 -0.0099 -0.0611
   22DOPE   H4X 2796   0.638   4.253  16.123  0.4183 -0.4109 -0.1696
   22DOPE   H4Y 2797   0.745   4.285  15.983  0.0731 -0.9958 -1.4676
   22DOPE   C35 2798   0.641   4.100  15.973  0.6305  0.3409  0.2682
   22DOPE   H5X 2799   0.551   4.151  15.933  0.3971 -0.8016 -0.7094
   22DOPE   H5Y 2800   0.606   4.012  16.030 -2.4409  1.5521  0.4209
   22DOPE   C36 2801   0.728   4.062  15.859 -0.1746  0.2674  0.3768
   22DOPE   H6X 2802   0.783   3.966  15.865  0.8747  0.3777 -3.9510
   22DOPE   H6Y 2803   0.799   4.144  15.835 -0.3383  0.1320 -0.6477
   22DOPE   C37 2804   0.632   4.046  15.735 -0.3730  0.1981 -0.0836
   22DOPE   H7X 2805   0.560   3.961  15.734 -2.9569  2.2199 -2.6103
   22DOPE   H7Y 2806   0.565   4.135  15.729 -1.7141 -0.7627  0.0587
   22DOPE   C38 2807   0.718   4.030  15.609 -0.3893 -0.3022 -0.0925
   22DOPE   H8X 2808   0.781   3.939  15.616 -1.6649 -1.4107 -1.9154
   22DOPE   H8Y 2809   0.792   4.112  15.599  0.5492 -1.3268 -2.5779
   22DOPE   C39 2810   0.632   4.021  15.487  0.6752  0.4586 -0.4893
   22DOPE   H9X 2811   0.531   3.981  15.502  1.1776 -0.0131  2.2210
   22DOPE  C310 2812   0.668   4.036  15.362 -0.2466 -0.4251 -0.3812
   22DOPE  H10X 2813   0.593   4.029  15.282 -0.1086 -0.1843 -0.5326
   22DOPE  C311 2814   0.815   4.051  15.309  0.2504  0.0527  0.1614
   22DOPE  H11X 2815   0.841   4.148  15.263 -0.8000 -0.4644 -1.6107
   22DOPE  H11Y 2816   0.878   4.055  15.401 -0.5501  1.0687  0.6948
   22DOPE  C312 2817   0.857   3.937  15.213  0.4571 -0.0646  0.1978
   22DOPE  H12X 2818   0.855   3.836  15.259  0.2173  0.8169  2.2485
   22DOPE  H12Y 2819   0.965   3.942  15.188  0.6498 -1.3733  0.6960
   22DOPE  C313 2820   0.769   3.924  15.087  0.6710  0.3126 -1.1103
   22DOPE  H13X 2821   0.672   3.879  15.115  1.3314 -1.9232 -2.1811
   22DOPE  H13Y 2822   0.757   4.030  15.057  2.0038  0.7584 -0.1677
   22DOPE  C314 2823   0.831   3.836  14.976  0.8256 -0.0505  0.3595
   22DOPE  H14X 2824   0.894   3.755  15.018  0.3995 -1.6382 -1.8529
   22DOPE  H14Y 2825   0.909   3.901  14.930  0.8831  0.5189  1.2401
   22DOPE  C315 2826   0.715   3.785  14.888  0.2039  1.0819  0.2916
   22DOPE  H15X 2827   0.665   3.875  14.848 -0.5433  0.9893  0.9945
   22DOPE  H15Y 2828   0.635   3.739  14.950 -2.4653  1.9905 -2.2457
   22DOPE  C316 2829   0.755   3.686  14.776 -0.1306 -0.0378  0.1727
   22DOPE  H16X 2830   0.669   3.663  14.710  0.5570  1.8486 -1.4571
   22DOPE  H16Y 2831   0.800   3.598  14.828 -1.4148 -0.4915  0.5647
   22DOPE  C317 2832   0.857   3.754  14.683 -0.1244 -0.3045 -0.4440
   22DOPE  H17X 2833   0.823   3.857  14.661 -1.7373 -1.1980 -2.5063
   22DOPE  H17Y 2834   0.958   3.758  14.729  0.2913  0.9950 -1.4048
   22DOPE  C318 2835   0.851   3.690  14.542 -0.0659  0.4954  0.6602
   22DOPE  H18X 2836   0.750   3.710  14.499  0.3675  1.0525 -0.1315
   22DOPE  H18Y 2837   0.927   3.736  14.475 -0.0903  0.0903  0.3549
   22DOPE  H18Z 2838   0.870   3.581  14.549  0.4396  0.5218 -0.1445
   23DOPE     N 2839   5.636   0.219  16.811  0.0289  0.2087 -0.0692
   23DOPE   HN1 2840   5.732   0.181  16.795  0.1222  1.5084 -3.3149
   23DOPE   HN2 2841   5.650   0.321  16.830 -2.6754  1.0547 -2.0095
   23DOPE   HN3 2842   5.594   0.169  16.892 -0.9669  1.9236  0.5431
   23DOPE   C12 2843   5.549   0.201  16.688 -0.4652 -1.1602  0.2760
   23DOPE  H12A 2844   5.539   0.093  16.662 -0.0372 -1.0089 -0.5269
   23DOPE  H12B 2845   5.603   0.253  16.607 -0.9325 -0.8906  0.1289
   23DOPE   C11 2846   5.416   0.271  16.699  0.5421  0.5584  0.3075
   23DOPE  H11A 2847   5.367   0.272  16.599 -1.2842 -0.4469  1.1314
   23DOPE  H11B 2848   5.438   0.377  16.722 -0.0232  0.5048  1.1175
   23DOPE     P 2849   5.255   0.077  16.772  0.0346 -0.0161  0.1558
   23DOPE   O13 2850   5.128   0.088  16.847 -0.3698  0.5844  0.6500
   23DOPE   O14 2851   5.353  -0.029  16.813 -0.3407 -0.7336 -0.4030
   23DOPE   O11 2852   5.228   0.072  16.618  0.1448  0.4768  0.2739
   23DOPE   O12 2853   5.330   0.215  16.795  0.5137  0.0758 -0.3985
   23DOPE    C1 2854   5.147  -0.034  16.565 -0.2141 -0.2057 -1.0353
   23DOPE    HA 2855   5.090   0.007  16.479  1.9328  0.1536 -2.3794
   23DOPE    HB 2856   5.075  -0.082  16.635 -1.3085 -1.9994 -3.2677
   23DOPE    C2 2857   5.235  -0.140  16.500  0.2554 -0.1360  0.7287
   23DOPE    HS 2858   5.319  -0.153  16.570 -0.0046  1.6024  1.4168
   23DOPE   O21 2859   5.276  -0.073  16.373  0.3634 -0.2045 -0.0531
   23DOPE   C21 2860   5.402  -0.103  16.339  0.1285 -0.2007  0.6180
   23DOPE   O22 2861   5.477  -0.177  16.401  0.3080  0.5829 -0.3011
   23DOPE   C22 2862   5.427  -0.045  16.194 -0.0902 -0.2899 -0.7221
   23DOPE   H2R 2863   5.393   0.060  16.177  2.5110  0.5220 -1.3786
   23DOPE   H2S 2864   5.366  -0.110  16.128  0.8984 -2.3129  0.2554
   23DOPE    C3 2865   5.163  -0.268  16.476 -0.9850 -0.2191 -0.0965
   23DOPE    HX 2866   5.055  -0.243  16.468 -0.6045  1.7827  0.4376
   23DOPE    HY 2867   5.193  -0.320  16.569 -0.4120 -0.7011 -0.5397
   23DOPE   O31 2868   5.218  -0.343  16.360 -0.7682  0.2460  0.1365
   23DOPE   C31 2869   5.185  -0.476  16.354  0.3405  0.3392 -0.5017
   23DOPE   O32 2870   5.148  -0.537  16.451 -0.0034 -0.0641  0.2277
   23DOPE   C32 2871   5.209  -0.528  16.216 -0.1651 -0.5888  0.2141
   23DOPE   H2X 2872   5.319  -0.535  16.201  0.2552  2.4343  1.1703
   23DOPE   H2Y 2873   5.167  -0.630  16.215 -0.5467 -0.4346  0.1573
   23DOPE   C23 2874   5.576  -0.065  16.152  0.1993 -0.3280  0.3922
   23DOPE   H3R 2875   5.617  -0.157  16.197  0.9990 -0.2385 -0.1321
   23DOPE   H3S 2876   5.633   0.015  16.205 -0.1850  0.7464 -0.7436
   23DOPE   C24 2877   5.616  -0.039  16.007  0.7273  0.0029 -0.4409
   23DOPE   H4R 2878   5.726  -0.027  15.995  1.0827 -2.1361  0.2015
   23DOPE   H4S 2879   5.570   0.058  15.981  0.7510  0.0592 -0.2735
   23DOPE   C25 2880   5.573  -0.148  15.915  0.1080  0.0564  0.4125
   23DOPE   H5R 2881   5.462  -0.155  15.909 -0.1071 -1.7874  4.0288
   23DOPE   H5S 2882   5.599  -0.246  15.959 -1.1727 -0.4463  0.1144
   23DOPE   C26 2883   5.640  -0.127  15.776  0.0961 -0.5085  0.5808
   23DOPE   H6R 2884   5.701  -0.219  15.763  0.8656 -0.0336  0.7642
   23DOPE   H6S 2885   5.704  -0.036  15.779 -1.7316  0.8150  1.6794
   23DOPE   C27 2886   5.546  -0.119  15.654  0.4883 -0.4092 -0.1715
   23DOPE   H7R 2887   5.468  -0.044  15.679  1.8687  0.8064  0.6055
   23DOPE   H7S 2888   5.507  -0.223  15.643  0.3576 -0.3148 -0.6460
   23DOPE   C28 2889   5.627  -0.082  15.530 -0.8889  0.5882 -0.4399
   23DOPE   H8R 2890   5.685   0.010  15.554  2.8321 -1.8269  0.7958
   23DOPE   H8S 2891   5.553  -0.047  15.456 -1.1995  1.8578  0.4238
   23DOPE   C29 2892   5.723  -0.181  15.466  0.1952 -0.4211 -0.5875
   23DOPE   H9R 2893   5.774  -0.255  15.529  0.5389 -1.4450 -2.0310
   23DOPE  C210 2894   5.752  -0.173  15.336  0.6780  0.9454 -0.7679
   23DOPE  H10R 2895   5.813  -0.255  15.295 -0.3241 -0.7308  0.9012
   23DOPE  C211 2896   5.704  -0.069  15.236 -0.5273  0.3757 -0.5275
   23DOPE  H11R 2897   5.791  -0.024  15.183 -0.0340 -0.6877 -0.6609
   23DOPE  H11S 2898   5.640   0.017  15.264  0.0898  0.9673 -0.8900
   23DOPE  C212 2899   5.620  -0.148  15.134  0.4097  0.0359 -0.6290
   23DOPE  H12R 2900   5.552  -0.220  15.185 -1.5989  1.5854 -0.9947
   23DOPE  H12S 2901   5.690  -0.212  15.076 -0.6399  0.5340 -2.4990
   23DOPE  C213 2902   5.546  -0.053  15.037  0.2010  0.1167  0.4681
   23DOPE  H13R 2903   5.616   0.031  15.021  1.2735 -0.9473 -0.7196
   23DOPE  H13S 2904   5.453  -0.021  15.088 -0.2438 -0.0659 -0.2094
   23DOPE  C214 2905   5.521  -0.111  14.899 -0.0753  0.1669  0.7291
   23DOPE  H14R 2906   5.459  -0.202  14.913 -1.5190  0.3604 -3.1589
   23DOPE  H14S 2907   5.611  -0.155  14.850 -0.5178 -0.1535  0.2001
   23DOPE  C215 2908   5.446  -0.018  14.803 -0.1329  0.2635 -0.1313
   23DOPE  H15R 2909   5.347   0.005  14.849 -0.4019 -0.1362 -0.5066
   23DOPE  H15S 2910   5.419  -0.066  14.707  0.1830  0.9185 -0.5588
   23DOPE  C216 2911   5.535   0.110  14.768  0.0363  0.6697  1.1891
   23DOPE  H16R 2912   5.629   0.069  14.727  1.8209  1.2035  4.3678
   23DOPE  H16S 2913   5.562   0.167  14.860  0.9056  1.1785  0.6258
   23DOPE  C217 2914   5.461   0.194  14.665 -0.2671  0.5072 -1.2827
   23DOPE  H17R 2915   5.430   0.138  14.574  0.9301 -1.6774 -0.4199
   23DOPE  H17S 2916   5.536   0.267  14.627 -1.0604  2.0997  0.1129
   23DOPE  C218 2917   5.338   0.264  14.718 -0.1468  0.1020  0.3020
   23DOPE  H18R 2918   5.368   0.306  14.817 -0.9976 -0.5533  0.8469
   23DOPE  H18S 2919   5.251   0.200  14.740  2.4838 -2.7182  3.6419
   23DOPE  H18T 2920   5.317   0.345  14.645  0.1472 -0.4932 -0.4558
   23DOPE   C33 2921   5.146  -0.452  16.101  0.6186  0.0395 -0.3396
   23DOPE   H3X 2922   5.148  -0.518  16.012  0.9165 -0.2739 -0.1036
   23DOPE   H3Y 2923   5.204  -0.361  16.078  0.6722  0.0684 -0.0953
   23DOPE   C34 2924   4.994  -0.420  16.125  0.2175 -0.7362  0.5461
   23DOPE   H4X 2925   4.965  -0.458  16.225 -1.2606  0.1406  0.4799
   23DOPE   H4Y 2926   4.976  -0.311  16.136  1.9157 -0.5359  1.8843
   23DOPE   C35 2927   4.909  -0.476  16.014 -0.6691 -0.2396  0.0412
   23DOPE   H5X 2928   4.923  -0.423  15.918  1.0450 -1.7862 -0.6380
   23DOPE   H5Y 2929   4.807  -0.447  16.046  0.5205  1.8386  2.3476
   23DOPE   C36 2930   4.922  -0.624  15.994  0.5086  0.3511  0.0756
   23DOPE   H6X 2931   4.925  -0.682  16.089  2.2951 -2.0906 -1.3437
   23DOPE   H6Y 2932   5.018  -0.656  15.948  0.5056 -1.5409  1.2331
   23DOPE   C37 2933   4.816  -0.683  15.899  0.7477  0.5241  0.2525
   23DOPE   H7X 2934   4.808  -0.792  15.915  0.9792 -0.0494 -2.9806
   23DOPE   H7Y 2935   4.720  -0.647  15.943  1.2686  1.3188  0.7839
   23DOPE   C38 2936   4.826  -0.642  15.749  0.0561  0.7932  0.6521
   23DOPE   H8X 2937   4.928  -0.678  15.724  0.4671 -0.6034  3.8358
   23DOPE   H8Y 2938   4.822  -0.531  15.747  2.6674  1.0157  2.6038
   23DOPE   C39 2939   4.717  -0.714  15.679 -0.6682 -0.2888  0.0776
   23DOPE   H9X 2940   4.710  -0.821  15.703 -0.2707 -0.1047  1.0548
   23DOPE  C310 2941   4.635  -0.657  15.587 -0.0583  0.4949 -0.2378
   23DOPE  H10X 2942   4.549  -0.719  15.555 -0.0350  1.2864 -1.9319
   23DOPE  C311 2943   4.622  -0.517  15.531 -0.8780  0.3885 -0.2589
   23DOPE  H11X 2944   4.529  -0.525  15.472 -1.0846 -1.0539  0.2034
   23DOPE  H11Y 2945   4.603  -0.454  15.621  1.0766 -1.0913  1.3089
   23DOPE  C312 2946   4.724  -0.461  15.441 -0.3148  0.3209  0.9444
   23DOPE  H12X 2947   4.821  -0.472  15.494 -0.5741  1.2926  1.6474
   23DOPE  H12Y 2948   4.703  -0.352  15.434  1.3693  0.5497 -1.5686
   23DOPE  C313 2949   4.731  -0.525  15.302  0.2245  0.0468  0.2671
   23DOPE  H13X 2950   4.758  -0.632  15.314 -0.9062 -0.2424  0.3537
   23DOPE  H13Y 2951   4.631  -0.541  15.255 -0.2743  1.0012  0.9714
   23DOPE  C314 2952   4.829  -0.457  15.199  0.3485 -0.2237  0.2068
   23DOPE  H14X 2953   4.933  -0.464  15.238  0.1750  0.0325  0.7186
   23DOPE  H14Y 2954   4.794  -0.352  15.197 -1.4085 -0.7198 -3.2301
   23DOPE  C315 2955   4.826  -0.512  15.059 -0.2294  0.1619 -0.2269
   23DOPE  H15X 2956   4.878  -0.437  14.997 -1.9685  2.6612  1.1397
   23DOPE  H15Y 2957   4.724  -0.515  15.015 -0.6889  0.8410  0.7436
   23DOPE  C316 2958   4.892  -0.652  15.054 -0.8635 -0.2973  1.0239
   23DOPE  H16X 2959   4.812  -0.723  15.086 -0.2686 -0.3635  2.4573
   23DOPE  H16Y 2960   4.969  -0.644  15.134  1.0611 -2.2949 -0.4916
   23DOPE  C317 2961   4.943  -0.697  14.914 -0.0780 -0.6018  0.4458
   23DOPE  H17X 2962   4.861  -0.694  14.839  1.0515 -3.8023 -1.0954
   23DOPE  H17Y 2963   5.020  -0.626  14.878 -0.1649 -0.6608  0.1378
   23DOPE  C318 2964   5.002  -0.836  14.909 -0.1786 -0.1649  0.2906
   23DOPE  H18X 2965   5.038  -0.847  14.804 -0.7393  1.8946 -0.1814
   23DOPE  H18Y 2966   5.084  -0.851  14.982 -0.6999  1.5831  1.3100
   23DOPE  H18Z 2967   4.928  -0.917  14.927  3.0709 -3.7669 -1.2042
   24DOPE     N 2968   0.090   6.966  16.948  0.9872 -0.0272 -0.1132
   24DOPE   HN1 2969   0.025   7.041  16.916 -1.8431 -2.1507  0.2362
   24DOPE   HN2 2970   0.071   6.964  17.050 -1.5906 -0.5537 -0.5208
   24DOPE   HN3 2971   0.186   6.988  16.916  0.2599 -1.0615 -3.4385
   24DOPE   C12 2972   0.058   6.846  16.867 -0.0402 -0.4904  0.4624
   24DOPE  H12A 2973  -0.053   6.849  16.858 -0.2335  3.4147  2.2283
   24DOPE  H12B 2974   0.096   6.757  16.922  0.1131 -0.3912  0.5164
   24DOPE   C11 2975   0.122   6.853  16.727 -0.1019 -0.0148  0.2962
   24DOPE  H11A 2976   0.050   6.913  16.667  2.7259  0.2009 -3.1775
   24DOPE  H11B 2977   0.138   6.753  16.683  0.0885 -0.2074  0.7926
   24DOPE     P 2978   0.385   6.873  16.722  0.0718 -0.2616  0.4608
   24DOPE   O13 2979   0.433   6.829  16.857 -0.2019  0.0271  0.1914
   24DOPE   O14 2980   0.474   6.969  16.656 -0.8072  0.3926  0.1171
   24DOPE   O11 2981   0.359   6.743  16.626 -0.3043  0.1945  0.0551
   24DOPE   O12 2982   0.240   6.935  16.736  0.1298  0.0752  0.1027
   24DOPE    C1 2983   0.403   6.741  16.487  0.1465  0.1410 -0.4375
   24DOPE    HA 2984   0.375   6.640  16.450  0.7885 -0.2903  0.2179
   24DOPE    HB 2985   0.514   6.754  16.484  0.2264  0.1277  1.3484
   24DOPE    C2 2986   0.338   6.835  16.394 -0.0814  0.0243  0.0769
   24DOPE    HS 2987   0.343   6.935  16.440  1.5871 -0.3502  0.7560
   24DOPE   O21 2988   0.198   6.799  16.392 -0.5801 -0.1303 -0.2307
   24DOPE   C21 2989   0.099   6.880  16.399  0.7498  0.1236 -0.8237
   24DOPE   O22 2990   0.106   7.002  16.404  0.5039 -0.3655  0.1110
   24DOPE   C22 2991  -0.036   6.810  16.405 -0.0934 -0.1241  0.5990
   24DOPE   H2R 2992  -0.083   6.831  16.503  1.1155 -0.4510  1.2804
   24DOPE   H2S 2993  -0.019   6.700  16.398 -2.0256 -0.5504  1.8128
   24DOPE    C3 2994   0.399   6.823  16.248  0.4601  0.3367 -0.3302
   24DOPE    HX 2995   0.377   6.719  16.218  1.6878 -0.4088  1.1783
   24DOPE    HY 2996   0.509   6.840  16.248  0.2778  1.6427 -1.0819
   24DOPE   O31 2997   0.327   6.916  16.163 -0.0888  0.3835  0.0529
   24DOPE   C31 2998   0.359   7.041  16.177 -0.6508 -0.5708  0.0495
   24DOPE   O32 2999   0.444   7.090  16.244  0.2687  0.1156 -0.0037
   24DOPE   C32 3000   0.271   7.113  16.073 -0.0913 -0.1763  0.1445
   24DOPE   H2X 3001   0.244   7.045  15.990  1.6531 -1.5536  0.6285
   24DOPE   H2Y 3002   0.180   7.154  16.122 -0.7445 -0.5211 -0.7619
   24DOPE   C23 3003  -0.133   6.865  16.301 -0.0692  0.0036 -0.6442
   24DOPE   H3R 3004  -0.114   6.972  16.280  2.5594 -0.7287 -2.4673
   24DOPE   H3S 3005  -0.239   6.856  16.333  0.1226 -0.4503 -0.1025
   24DOPE   C24 3006  -0.139   6.792  16.166  0.7320  0.0554 -0.4309
   24DOPE   H4R 3007  -0.220   6.835  16.103 -0.8698 -2.4017 -0.2034
   24DOPE   H4S 3008  -0.174   6.689  16.186  0.5117  0.3578  0.8630
   24DOPE   C25 3009  -0.002   6.788  16.106 -0.2218 -0.1729 -0.1550
   24DOPE   H5R 3010   0.088   6.777  16.171 -0.0375 -0.0957 -0.3972
   24DOPE   H5S 3011   0.020   6.886  16.057  1.5223 -0.8163 -0.7196
   24DOPE   C26 3012   0.005   6.675  16.005 -0.0444  0.6029 -0.2636
   24DOPE   H6R 3013  -0.049   6.680  15.908  0.4258  0.8735 -0.5176
   24DOPE   H6S 3014  -0.032   6.581  16.051 -1.7149  1.0106 -0.7008
   24DOPE   C27 3015   0.159   6.644  15.994  0.0534  0.1738  0.3554
   24DOPE   H7R 3016   0.192   6.589  16.085  2.4946  2.2889  0.8679
   24DOPE   H7S 3017   0.215   6.739  15.985 -1.2180  0.8980 -0.0981
   24DOPE   C28 3018   0.210   6.554  15.878  0.2992  0.0992  0.6744
   24DOPE   H8R 3019   0.312   6.520  15.906 -0.0243  0.7676  2.8534
   24DOPE   H8S 3020   0.217   6.623  15.791 -0.7423  1.7102  1.8084
   24DOPE   C29 3021   0.133   6.430  15.838 -0.3367 -0.7160 -0.8483
   24DOPE   H9R 3022   0.030   6.437  15.800  0.5391  0.1965 -3.2029
   24DOPE  C210 3023   0.177   6.304  15.860 -0.2573  0.1274 -0.0688
   24DOPE  H10R 3024   0.101   6.225  15.846  0.4868 -0.5218 -0.5694
   24DOPE  C211 3025   0.308   6.256  15.914 -0.9693  0.7493 -0.4580
   24DOPE  H11R 3026   0.382   6.333  15.943  0.1178 -1.2877  2.7465
   24DOPE  H11S 3027   0.361   6.203  15.832 -2.0719 -1.7329  0.3328
   24DOPE  C212 3028   0.304   6.163  16.041 -0.2964  0.1626  0.3991
   24DOPE  H12R 3029   0.295   6.217  16.138 -2.7949 -0.7350  0.7467
   24DOPE  H12S 3030   0.401   6.117  16.070  0.1045  0.5137 -0.3605
   24DOPE  C213 3031   0.197   6.060  16.043  0.0521  0.6923  0.7732
   24DOPE  H13R 3032   0.202   6.003  15.948 -1.3894  1.2845  0.3273
   24DOPE  H13S 3033   0.095   6.101  16.035 -0.3699 -0.4236  0.1832
   24DOPE  C214 3034   0.218   5.958  16.148  0.1753 -0.1963 -0.1004
   24DOPE  H14R 3035   0.202   5.999  16.250  0.3674  2.0525 -0.9070
   24DOPE  H14S 3036   0.326   5.932  16.156  0.1288 -0.1843  0.6568
   24DOPE  C215 3037   0.143   5.821  16.129  0.3463  0.3000 -0.3524
   24DOPE  H15R 3038   0.183   5.764  16.043  1.2524 -0.0748  0.2942
   24DOPE  H15S 3039   0.036   5.843  16.106  0.1229 -1.7830 -1.4703
   24DOPE  C216 3040   0.160   5.735  16.263 -0.5239  0.4326 -0.6038
   24DOPE  H16R 3041   0.115   5.792  16.346  0.6232  0.0652  0.3038
   24DOPE  H16S 3042   0.266   5.719  16.293 -1.5735 -1.6435  2.4383
   24DOPE  C217 3043   0.105   5.590  16.238  0.3259  0.5842 -0.5246
   24DOPE  H17R 3044  -0.001   5.593  16.206  0.6384  2.1644 -1.5151
   24DOPE  H17S 3045   0.115   5.529  16.331 -1.3356  1.4581  0.2791
   24DOPE  C218 3046   0.171   5.518  16.119 -0.2391  0.1447  0.4957
   24DOPE  H18R 3047   0.146   5.573  16.026 -0.6706 -0.7009  0.1056
   24DOPE  H18S 3048   0.143   5.411  16.104  2.0294 -0.2906 -1.2031
   24DOPE  H18T 3049   0.281   5.532  16.123 -0.5493  2.9653  1.7158
   24DOPE   C33 3050   0.338   7.240  16.009  0.2779  0.2836 -0.8033
   24DOPE   H3X 3051   0.368   7.324  16.075 -1.8328  0.9573 -0.6115
   24DOPE   H3Y 3052   0.252   7.290  15.959  1.1015  0.6373 -1.8997
   24DOPE   C34 3053   0.430   7.203  15.888  0.7304 -0.6975 -0.4617
   24DOPE   H4X 3054   0.529   7.170  15.926 -0.0975 -0.6615  1.9589
   24DOPE   H4Y 3055   0.380   7.131  15.820 -3.4122 -0.7004  2.2192
   24DOPE   C35 3056   0.446   7.339  15.819  0.0529  0.2753 -0.2155
   24DOPE   H5X 3057   0.480   7.417  15.891  1.4887 -0.4266 -0.1022
   24DOPE   H5Y 3058   0.344   7.374  15.792 -0.0782  1.2160  1.3125
   24DOPE   C36 3059   0.554   7.335  15.715 -0.0596 -0.1014 -0.0833
   24DOPE   H6X 3060   0.648   7.337  15.774  0.7100  1.9741 -1.2639
   24DOPE   H6Y 3061   0.556   7.425  15.650  1.6893  0.9899  1.4142
   24DOPE   C37 3062   0.555   7.206  15.637 -0.4331  0.0781  0.1969
   24DOPE   H7X 3063   0.589   7.119  15.697  1.3047  0.0287 -0.7921
   24DOPE   H7Y 3064   0.465   7.173  15.581 -0.5108  0.3574  0.1543
   24DOPE   C38 3065   0.672   7.216  15.532  0.2554 -0.7534  0.3950
   24DOPE   H8X 3066   0.671   7.318  15.490 -0.0017 -0.5876  0.8065
   24DOPE   H8Y 3067   0.641   7.144  15.453  1.4963 -1.4405  0.4864
   24DOPE   C39 3068   0.811   7.179  15.575 -0.1218  0.1309  0.0006
   24DOPE   H9X 3069   0.859   7.267  15.622 -1.1696  1.7626 -1.8214
   24DOPE  C310 3070   0.885   7.068  15.539  0.6274 -0.7555  0.2653
   24DOPE  H10X 3071   0.993   7.060  15.558  1.2394 -1.0798 -2.8735
   24DOPE  C311 3072   0.842   6.953  15.455 -0.7162 -0.2962 -0.4466
   24DOPE  H11X 3073   0.853   6.857  15.510 -1.4367  1.1561  2.4464
   24DOPE  H11Y 3074   0.732   6.965  15.452 -1.0000 -2.5078 -0.5604
   24DOPE  C312 3075   0.908   6.959  15.318  0.1722 -0.1547 -0.1659
   24DOPE  H12X 3076   1.017   6.975  15.328  0.4095 -1.3074 -0.7220
   24DOPE  H12Y 3077   0.862   7.041  15.260 -1.0791 -1.4086 -1.0191
   24DOPE  C313 3078   0.883   6.836  15.230 -0.5709  0.3937 -0.3782
   24DOPE  H13X 3079   0.952   6.754  15.259  0.1485  0.6907 -1.2211
   24DOPE  H13Y 3080   0.780   6.794  15.225 -0.3334 -1.0163  3.1235
   24DOPE  C314 3081   0.925   6.869  15.081  0.2911 -0.0825 -0.2282
   24DOPE  H14X 3082   0.914   6.773  15.026 -1.2568 -0.3871  0.5335
   24DOPE  H14Y 3083   1.030   6.905  15.076 -0.1735  1.2971 -0.3786
   24DOPE  C315 3084   0.835   6.966  15.003  0.5459  0.0547 -0.4864
   24DOPE  H15X 3085   0.851   7.070  15.039  1.8672  0.1030 -1.1634
   24DOPE  H15Y 3086   0.728   6.945  15.024  0.2850  2.1174  0.5670
   24DOPE  C316 3087   0.855   6.963  14.850 -0.0279  0.4859  0.3380
   24DOPE  H16X 3088   0.947   7.022  14.828 -1.5738  3.1300  0.5065
   24DOPE  H16Y 3089   0.768   7.021  14.812  0.4472  0.7484 -0.3752
   24DOPE  C317 3090   0.861   6.830  14.774 -0.0280 -0.3440  0.7587
   24DOPE  H17X 3091   0.935   6.761  14.819 -1.0215 -0.5126  2.1824
   24DOPE  H17Y 3092   0.759   6.786  14.776 -0.9809  1.3861 -2.5074
   24DOPE  C318 3093   0.911   6.853  14.631  0.6535 -0.5549  0.3065
   24DOPE  H18X 3094   1.021   6.859  14.637  0.5745 -0.5196  2.2964
   24DOPE  H18Y 3095   0.881   6.758  14.581  0.8405 -0.5853  0.2528
   24DOPE  H18Z 3096   0.858   6.940  14.586  0.6640 -0.6911  0.0297
   25DOPE     N 3097   0.171   5.626  16.767  0.5446 -0.6366 -0.1727
   25DOPE   HN1 3098   0.161   5.729  16.762 -0.5742 -0.7004  0.4300
   25DOPE   HN2 3099   0.088   5.594  16.820 -0.4546  1.6945 -0.2240
   25DOPE   HN3 3100   0.259   5.611  16.821  0.4859  0.3034  0.2042
   25DOPE   C12 3101   0.199   5.567  16.633 -0.6114 -0.5442  0.2818
   25DOPE  H12A 3102   0.302   5.594  16.603 -0.5226 -2.4720 -1.3792
   25DOPE  H12B 3103   0.133   5.620  16.561  0.0056  3.1158  2.1807
   25DOPE   C11 3104   0.174   5.413  16.631 -0.0601  0.3179 -0.5348
   25DOPE  H11A 3105   0.208   5.362  16.539 -0.5912 -1.1559  0.0608
   25DOPE  H11B 3106   0.064   5.405  16.633 -0.0670  0.5081  0.8594
   25DOPE     P 3107   0.387   5.366  16.783  0.0229  0.0176  0.2471
   25DOPE   O13 3108   0.423   5.248  16.857 -0.9606  0.3640  0.5911
   25DOPE   O14 3109   0.422   5.498  16.839  0.7952 -0.5653  0.4411
   25DOPE   O11 3110   0.446   5.365  16.637 -0.2133  0.6506 -0.2377
   25DOPE   O12 3111   0.235   5.361  16.749  0.0541 -0.5390 -0.2644
   25DOPE    C1 3112   0.455   5.250  16.553  0.4802  0.4520 -0.2238
   25DOPE    HA 3113   0.404   5.267  16.456  0.5889 -1.4286 -0.6394
   25DOPE    HB 3114   0.402   5.167  16.606 -0.3771  1.4297  0.4931
   25DOPE    C2 3115   0.604   5.196  16.527  0.9686 -0.5678 -0.0289
   25DOPE    HS 3116   0.646   5.163  16.624 -3.3661  2.4908  3.3055
   25DOPE   O21 3117   0.665   5.314  16.477 -0.1228  0.1698 -0.1124
   25DOPE   C21 3118   0.797   5.299  16.457  0.3444 -0.2899 -0.0653
   25DOPE   O22 3119   0.861   5.192  16.466 -0.4558 -0.8289 -0.6017
   25DOPE   C22 3120   0.852   5.431  16.394  0.6826  0.1335 -0.1952
   25DOPE   H2R 3121   0.849   5.503  16.478 -1.3223 -0.8217  0.6058
   25DOPE   H2S 3122   0.790   5.469  16.310  2.5151  0.1656 -1.6037
   25DOPE    C3 3123   0.591   5.085  16.422  0.2293  0.5679 -0.0885
   25DOPE    HX 3124   0.518   5.010  16.460 -1.5199  2.0739 -0.3526
   25DOPE    HY 3125   0.688   5.030  16.411  1.6258  2.9692 -0.4384
   25DOPE   O31 3126   0.553   5.132  16.290 -0.2364 -0.8062 -0.1634
   25DOPE   C31 3127   0.444   5.085  16.232  0.1115  0.7822  0.3536
   25DOPE   O32 3128   0.373   5.000  16.285 -0.1095  0.7400 -0.1161
   25DOPE   C32 3129   0.422   5.147  16.102  0.5361 -0.3650  0.1733
   25DOPE   H2X 3130   0.383   5.069  16.035  1.8923 -0.8890 -0.0403
   25DOPE   H2Y 3131   0.345   5.225  16.125 -0.6963 -1.6575  0.5514
   25DOPE   C23 3132   0.999   5.400  16.336 -0.3870 -0.1297  0.2965
   25DOPE   H3R 3133   1.060   5.342  16.408 -0.4847  0.0300  0.5103
   25DOPE   H3S 3134   1.056   5.490  16.305  0.1263 -0.8105 -0.7884
   25DOPE   C24 3135   0.991   5.319  16.209 -0.7669  0.2737  0.6739
   25DOPE   H4R 3136   0.937   5.223  16.220 -1.7956  0.8456  0.7504
   25DOPE   H4S 3137   1.096   5.288  16.190 -0.3709  0.0439  2.8713
   25DOPE   C25 3138   0.934   5.399  16.092  0.0902  0.2692  0.1477
   25DOPE   H5R 3139   1.005   5.484  16.082 -0.8207  1.3604  2.3312
   25DOPE   H5S 3140   0.825   5.413  16.111 -0.1770 -1.3961 -0.0120
   25DOPE   C26 3141   0.941   5.309  15.966  0.2253 -0.2332  0.1607
   25DOPE   H6R 3142   0.871   5.223  15.975 -0.2463  0.0408 -0.7615
   25DOPE   H6S 3143   1.046   5.275  15.955  0.8420  1.8003 -0.6668
   25DOPE   C27 3144   0.910   5.390  15.849  0.5208  0.1833  0.3986
   25DOPE   H7R 3145   0.958   5.490  15.851 -2.5695  1.7874  3.3913
   25DOPE   H7S 3146   0.800   5.400  15.852  0.4521  0.6716 -1.7972
   25DOPE   C28 3147   0.920   5.307  15.718 -0.3806 -0.3270 -0.1564
   25DOPE   H8R 3148   0.868   5.212  15.742  1.6285 -1.8018 -1.2572
   25DOPE   H8S 3149   1.027   5.289  15.691 -0.5634 -1.1733 -0.3347
   25DOPE   C29 3150   0.861   5.383  15.604  0.1378  0.2689 -0.2773
   25DOPE   H9R 3151   0.895   5.486  15.587 -0.5593  0.1129 -3.2277
   25DOPE  C210 3152   0.787   5.335  15.502  0.1770  0.5899  0.7298
   25DOPE  H10R 3153   0.742   5.406  15.432  0.9791  0.8202  0.4417
   25DOPE  C211 3154   0.737   5.189  15.480  0.3978  0.0722  0.0500
   25DOPE  H11R 3155   0.790   5.115  15.544  0.1982  1.1239  1.4758
   25DOPE  H11S 3156   0.749   5.152  15.376 -0.0666 -1.0167  0.3688
   25DOPE  C212 3157   0.595   5.178  15.528 -0.0232 -0.2943 -0.0730
   25DOPE  H12R 3158   0.543   5.261  15.476  0.8485 -0.3211 -1.0004
   25DOPE  H12S 3159   0.595   5.210  15.634  0.3038  2.3559 -0.8079
   25DOPE  C213 3160   0.517   5.044  15.512 -0.2729  0.6179 -0.1948
   25DOPE  H13R 3161   0.569   4.978  15.585 -0.9137  1.9088  1.5025
   25DOPE  H13S 3162   0.534   5.012  15.407 -0.0372  2.2341 -0.6892
   25DOPE  C214 3163   0.367   5.051  15.544  0.5874 -0.3514  0.2690
   25DOPE  H14R 3164   0.330   5.130  15.475 -1.0101 -1.1375  0.2016
   25DOPE  H14S 3165   0.346   5.082  15.648  0.2479  1.3629 -0.2768
   25DOPE  C215 3166   0.300   4.930  15.496 -0.1713 -0.1858  0.3316
   25DOPE  H15R 3167   0.334   4.904  15.394 -1.4963 -1.9251  0.2736
   25DOPE  H15S 3168   0.194   4.962  15.488 -0.3651 -0.6062  1.0722
   25DOPE  C216 3169   0.321   4.806  15.588  0.4028  0.2751  0.2339
   25DOPE  H16R 3170   0.431   4.791  15.594  0.6620  1.4648 -0.9980
   25DOPE  H16S 3171   0.267   4.722  15.540  1.1053 -1.1874  1.9031
   25DOPE  C217 3172   0.271   4.815  15.728  0.4121  0.7243 -0.5505
   25DOPE  H17R 3173   0.166   4.851  15.719  0.1197  0.0733  0.1918
   25DOPE  H17S 3174   0.329   4.891  15.785  1.2525  0.6841 -1.3222
   25DOPE  C218 3175   0.276   4.686  15.810  0.1142  0.2805  0.0659
   25DOPE  H18R 3176   0.227   4.602  15.756  0.2784 -0.9247  1.6874
   25DOPE  H18S 3177   0.219   4.700  15.905 -1.0299  3.0862 -0.9542
   25DOPE  H18T 3178   0.377   4.652  15.845 -0.4905 -1.6267  0.0883
   25DOPE   C33 3179   0.544   5.209  16.038  0.3159  0.0406  0.1911
   25DOPE   H3X 3180   0.621   5.129  16.040 -0.6580 -0.9162  0.0810
   25DOPE   H3Y 3181   0.588   5.283  16.108  2.9406 -2.5881  1.5330
   25DOPE   C34 3182   0.517   5.271  15.904  0.7793 -0.5746  0.5343
   25DOPE   H4X 3183   0.613   5.286  15.849  1.6155 -4.1549  0.7504
   25DOPE   H4Y 3184   0.457   5.205  15.838  0.1167  0.8882 -0.3878
   25DOPE   C35 3185   0.450   5.401  15.922 -0.0568  0.4058  0.4143
   25DOPE   H5X 3186   0.525   5.472  15.961  0.7084  0.0851 -0.4331
   25DOPE   H5Y 3187   0.360   5.397  15.987 -0.9781  0.9052 -0.7741
   25DOPE   C36 3188   0.409   5.460  15.784 -0.6945  0.4031  0.6688
   25DOPE   H6X 3189   0.344   5.385  15.733 -1.2062  1.6091 -0.5178
   25DOPE   H6Y 3190   0.499   5.468  15.720 -1.6131 -0.7047 -0.8475
   25DOPE   C37 3191   0.343   5.595  15.790  0.6844  0.3445 -1.2760
   25DOPE   H7X 3192   0.240   5.574  15.825  0.3700  2.8905 -0.4469
   25DOPE   H7Y 3193   0.392   5.662  15.864 -1.5441 -0.4046  1.0157
   25DOPE   C38 3194   0.328   5.651  15.650  0.4280  0.1494 -0.8919
   25DOPE   H8X 3195   0.264   5.741  15.659 -2.0326 -1.4553 -1.3446
   25DOPE   H8Y 3196   0.285   5.572  15.585  3.3143 -2.9272  0.5906
   25DOPE   C39 3197   0.465   5.692  15.600 -0.4528 -0.1407 -0.0326
   25DOPE   H9X 3198   0.524   5.752  15.671 -1.1482 -0.3516  0.7277
   25DOPE  C310 3199   0.524   5.662  15.481 -0.2378 -0.1363  0.3806
   25DOPE  H10X 3200   0.631   5.688  15.477 -0.5191  1.2535  1.2037
   25DOPE  C311 3201   0.459   5.583  15.367 -0.2805  0.2100  0.1114
   25DOPE  H11X 3202   0.512   5.486  15.356  0.1155  0.2474  1.5632
   25DOPE  H11Y 3203   0.352   5.567  15.392 -0.8966  2.7140 -0.6229
   25DOPE  C312 3204   0.467   5.657  15.235 -0.5556 -0.1143 -0.1637
   25DOPE  H12X 3205   0.568   5.631  15.197 -0.3938  0.1731  0.0653
   25DOPE  H12Y 3206   0.468   5.768  15.233 -0.4166 -0.1241 -0.9798
   25DOPE  C313 3207   0.371   5.611  15.127  0.5644  0.5737 -0.6590
   25DOPE  H13X 3208   0.411   5.650  15.030  0.3822 -0.3166 -1.0996
   25DOPE  H13Y 3209   0.361   5.501  15.125  0.4630  0.5756 -0.3318
   25DOPE  C314 3210   0.237   5.684  15.148  0.1422 -0.3041  0.0354
   25DOPE  H14X 3211   0.248   5.793  15.169 -0.4005 -0.0696 -0.8921
   25DOPE  H14Y 3212   0.192   5.630  15.234 -0.6446 -0.4572 -0.4702
   25DOPE  C315 3213   0.134   5.675  15.035 -0.1514 -0.3879  0.5475
   25DOPE  H15X 3214   0.165   5.734  14.947 -1.1837 -3.0757 -1.7618
   25DOPE  H15Y 3215   0.045   5.727  15.077  0.8398  0.0831  2.1877
   25DOPE  C316 3216   0.099   5.539  14.986  0.5082  0.4880  0.1624
   25DOPE  H16X 3217   0.068   5.480  15.075 -0.4795 -2.1984 -1.8388
   25DOPE  H16Y 3218   0.192   5.496  14.945  0.3782 -1.2922  1.6422
   25DOPE  C317 3219  -0.012   5.522  14.877  0.2816  0.7293  0.0932
   25DOPE  H17X 3220  -0.010   5.588  14.788  0.0839  0.7276  0.0884
   25DOPE  H17Y 3221   0.010   5.418  14.844  1.5837  0.9141  0.3090
   25DOPE  C318 3222  -0.157   5.526  14.931  1.1184 -0.0669 -0.2931
   25DOPE  H18X 3223  -0.176   5.449  15.009  0.1003  2.7655  2.4530
   25DOPE  H18Y 3224  -0.162   5.617  14.994  0.0469 -0.5163  0.2951
   25DOPE  H18Z 3225  -0.231   5.533  14.849  1.5172  1.2577 -0.5538
   26DOPE     N 3226   2.949   6.630  16.945  0.6587 -0.8367 -0.3440
   26DOPE   HN1 3227   2.984   6.726  16.963  2.1445 -1.8067  2.7186
   26DOPE   HN2 3228   2.854   6.625  16.986  1.0359  1.2250  0.9446
   26DOPE   HN3 3229   3.015   6.571  16.999 -0.3329 -1.5377  0.1322
   26DOPE   C12 3230   2.961   6.581  16.803 -0.1443  0.3713 -0.5844
   26DOPE  H12A 3231   2.929   6.476  16.786 -0.1523  0.2184  0.3546
   26DOPE  H12B 3232   3.068   6.576  16.773  0.0205  0.1932  0.0303
   26DOPE   C11 3233   2.874   6.672  16.704 -0.3420  0.1204  0.5152
   26DOPE  H11A 3234   2.877   6.608  16.613 -3.3307 -1.4640  1.3830
   26DOPE  H11B 3235   2.927   6.767  16.683 -0.9771  0.0019 -1.9762
   26DOPE     P 3236   2.668   6.823  16.781  0.1329 -0.2000  0.2566
   26DOPE   O13 3237   2.761   6.921  16.835 -0.3738 -0.1907  0.0840
   26DOPE   O14 3238   2.554   6.788  16.867 -0.6196  0.2990  0.1353
   26DOPE   O11 3239   2.622   6.870  16.644 -0.2690 -0.2110 -0.2277
   26DOPE   O12 3240   2.742   6.686  16.755 -0.2153  0.0812 -0.4216
   26DOPE    C1 3241   2.572   6.785  16.539 -0.6511  0.3971  0.4186
   26DOPE    HA 3242   2.617   6.684  16.536 -1.3254  0.1107 -1.3651
   26DOPE    HB 3243   2.598   6.829  16.440  0.0116  0.0743  0.4422
   26DOPE    C2 3244   2.423   6.762  16.546  0.6809 -0.3752 -0.2636
   26DOPE    HS 3245   2.393   6.717  16.642 -0.3790  0.8212 -0.0027
   26DOPE   O21 3246   2.386   6.678  16.433 -0.2846 -0.2021  0.9916
   26DOPE   C21 3247   2.263   6.639  16.418 -0.1885 -0.1659  0.5961
   26DOPE   O22 3248   2.180   6.649  16.506 -0.1210  0.5948 -0.2455
   26DOPE   C22 3249   2.237   6.570  16.287  0.3198 -1.3749 -0.6859
   26DOPE   H2R 3250   2.337   6.571  16.238  0.8491 -0.8475  0.3833
   26DOPE   H2S 3251   2.163   6.629  16.229 -0.6394  0.1551  1.9533
   26DOPE    C3 3252   2.361   6.906  16.539 -0.2306  0.1969  0.5623
   26DOPE    HX 3253   2.393   6.959  16.631  1.9767 -0.0308 -0.0366
   26DOPE    HY 3254   2.250   6.899  16.550 -0.3353 -0.8496 -0.9157
   26DOPE   O31 3255   2.401   6.977  16.420  0.0222  0.3094  0.3171
   26DOPE   C31 3256   2.324   6.978  16.314 -0.3755  0.5681 -0.1031
   26DOPE   O32 3257   2.217   6.917  16.293  0.2348  0.4570 -0.0934
   26DOPE   C32 3258   2.388   7.058  16.207  0.4434 -0.3074  0.6723
   26DOPE   H2X 3259   2.322   7.096  16.127  1.5198  1.7669  0.6990
   26DOPE   H2Y 3260   2.428   7.155  16.244  1.8596 -0.5726 -0.0716
   26DOPE   C23 3261   2.195   6.421  16.314  0.3861 -0.4468  0.0064
   26DOPE   H3R 3262   2.089   6.409  16.345 -0.0620 -0.7856 -1.6014
   26DOPE   H3S 3263   2.243   6.393  16.411 -0.1796 -1.4204  0.0141
   26DOPE   C24 3264   2.226   6.322  16.195 -0.6237 -0.1567 -0.1326
   26DOPE   H4R 3265   2.247   6.221  16.236  0.2995 -0.1912 -0.6745
   26DOPE   H4S 3266   2.313   6.355  16.135 -0.4630 -0.3524 -0.0046
   26DOPE   C25 3267   2.120   6.283  16.088  0.3417 -0.2038  0.4406
   26DOPE   H5R 3268   2.165   6.208  16.019  0.1767  0.9821 -1.0278
   26DOPE   H5S 3269   2.104   6.369  16.019  0.9399 -0.9621 -0.6907
   26DOPE   C26 3270   1.989   6.235  16.138  0.0871 -0.0448 -0.4363
   26DOPE   H6R 3271   1.945   6.312  16.206  0.6294 -1.8237  2.0916
   26DOPE   H6S 3272   2.010   6.150  16.207  0.6308 -1.4291 -2.2355
   26DOPE   C27 3273   1.874   6.190  16.042 -0.2388 -0.0202 -0.0984
   26DOPE   H7R 3274   1.800   6.136  16.104 -1.1113  0.4811 -0.6866
   26DOPE   H7S 3275   1.923   6.120  15.971 -1.0844 -2.2113  1.3798
   26DOPE   C28 3276   1.814   6.308  15.968  0.4236  0.2632  0.2941
   26DOPE   H8R 3277   1.881   6.370  15.905 -2.0458  2.0567 -0.7462
   26DOPE   H8S 3278   1.767   6.382  16.036  0.3199  0.9254 -0.4765
   26DOPE   C29 3279   1.695   6.254  15.894 -0.1077  0.1283  0.0210
   26DOPE   H9R 3280   1.608   6.233  15.958  0.5402 -0.4039  0.7422
   26DOPE  C210 3281   1.678   6.238  15.759 -0.3411  0.1457  0.1769
   26DOPE  H10R 3282   1.583   6.203  15.716 -0.3356  0.4589 -0.0877
   26DOPE  C211 3283   1.791   6.273  15.665  0.5391 -0.5167  0.4579
   26DOPE  H11R 3284   1.890   6.247  15.708  0.1015  1.3586  2.8667
   26DOPE  H11S 3285   1.781   6.382  15.642  0.0649 -0.3625  1.3487
   26DOPE  C212 3286   1.775   6.192  15.539 -0.2578 -0.0682 -0.5740
   26DOPE  H12R 3287   1.674   6.209  15.496 -1.2999  1.2053  2.1462
   26DOPE  H12S 3288   1.780   6.084  15.566  0.0024 -0.6288 -2.7246
   26DOPE  C213 3289   1.893   6.212  15.435 -0.0276 -0.2614 -0.0350
   26DOPE  H13R 3290   1.987   6.192  15.491  0.2410  0.0055 -0.3828
   26DOPE  H13S 3291   1.882   6.316  15.397  1.3210  0.4771  1.4966
   26DOPE  C214 3292   1.885   6.123  15.310  0.2767  0.2546 -0.6462
   26DOPE  H14R 3293   1.791   6.136  15.253 -1.3339 -2.0325  1.2865
   26DOPE  H14S 3294   1.888   6.016  15.340  3.6478  0.3826 -0.1187
   26DOPE  C215 3295   2.004   6.140  15.222 -0.4215 -0.2144 -0.5548
   26DOPE  H15R 3296   2.095   6.087  15.256 -0.1625  0.6105  0.0720
   26DOPE  H15S 3297   2.033   6.247  15.225  2.3950 -0.9228  0.9352
   26DOPE  C216 3298   1.972   6.106  15.075  0.1738 -0.4277  0.0866
   26DOPE  H16R 3299   1.876   6.157  15.050  1.6450  2.1865 -0.5298
   26DOPE  H16S 3300   1.943   5.998  15.078  0.6161 -0.5224  1.9467
   26DOPE  C217 3301   2.084   6.136  14.980  0.3383  0.1114  0.0497
   26DOPE  H17R 3302   2.178   6.090  15.020  0.2704 -0.6723 -0.6807
   26DOPE  H17S 3303   2.098   6.246  14.983 -1.0208  0.3056  2.5723
   26DOPE  C218 3304   2.041   6.099  14.835  0.4160 -0.6682 -0.4229
   26DOPE  H18R 3305   1.950   6.154  14.802 -0.6642 -0.6230  2.3288
   26DOPE  H18S 3306   2.014   5.991  14.836 -0.0192 -0.5694 -1.1798
   26DOPE  H18T 3307   2.131   6.110  14.772  0.9413  0.4227  0.4706
   26DOPE   C33 3308   2.512   6.991  16.149 -0.2350  0.1898  0.9142
   26DOPE   H3X 3309   2.588   6.999  16.230 -0.0069  0.2238  0.6983
   26DOPE   H3Y 3310   2.544   7.045  16.057 -1.6013 -1.1434 -0.3997
   26DOPE   C34 3311   2.493   6.845  16.103  0.0369  0.4756  0.2991
   26DOPE   H4X 3312   2.592   6.810  16.067 -0.2395  0.7151 -0.7388
   26DOPE   H4Y 3313   2.472   6.782  16.191  1.2968 -0.2218  0.1252
   26DOPE   C35 3314   2.386   6.797  16.001  0.0780  0.1975 -0.5912
   26DOPE   H5X 3315   2.379   6.866  15.914 -3.7461 -0.5744 -1.0922
   26DOPE   H5Y 3316   2.293   6.800  16.061  1.4996 -1.0415  1.7907
   26DOPE   C36 3317   2.423   6.653  15.959 -0.6264  0.1772  0.4646
   26DOPE   H6X 3318   2.436   6.590  16.049 -2.0686 -4.8012 -2.4435
   26DOPE   H6Y 3319   2.522   6.644  15.908  0.4600  0.8983  2.3616
   26DOPE   C37 3320   2.313   6.588  15.870 -0.5610  0.0446 -0.0986
   26DOPE   H7X 3321   2.218   6.601  15.926 -0.5768  2.1062 -0.5147
   26DOPE   H7Y 3322   2.304   6.649  15.777  3.1390  0.1810 -0.5086
   26DOPE   C38 3323   2.341   6.442  15.837 -0.5371  0.1254  0.0881
   26DOPE   H8X 3324   2.245   6.392  15.816 -1.0446  0.7652  0.8121
   26DOPE   H8Y 3325   2.369   6.384  15.928 -1.4337  1.8848  1.5473
   26DOPE   C39 3326   2.437   6.438  15.721  0.2617 -0.0505 -0.2566
   26DOPE   H9X 3327   2.531   6.493  15.735 -0.2861  0.7272  0.4461
   26DOPE  C310 3328   2.408   6.386  15.602 -0.5730  0.5170  0.0891
   26DOPE  H10X 3329   2.485   6.401  15.525  0.0159 -2.1255  0.0680
   26DOPE  C311 3330   2.282   6.305  15.566  0.5781  0.1867  0.2452
   26DOPE  H11X 3331   2.201   6.321  15.641 -0.4961 -2.9178 -0.1306
   26DOPE  H11Y 3332   2.248   6.341  15.467  0.1216  1.9566  0.9932
   26DOPE  C312 3333   2.325   6.154  15.570  0.5204 -0.0412 -0.1880
   26DOPE  H12X 3334   2.418   6.144  15.509 -0.7051  2.0580 -2.6046
   26DOPE  H12Y 3335   2.240   6.101  15.522 -0.9533  1.2526  0.8736
   26DOPE  C313 3336   2.366   6.099  15.709  0.1159 -0.0604 -0.0792
   26DOPE  H13X 3337   2.442   6.020  15.693  1.8982  1.2207  1.5308
   26DOPE  H13Y 3338   2.412   6.174  15.776 -0.7417 -0.9339  1.5422
   26DOPE  C314 3339   2.243   6.040  15.778  0.2143  1.3806 -0.1771
   26DOPE  H14X 3340   2.180   5.984  15.705 -0.9131  1.2721  0.8347
   26DOPE  H14Y 3341   2.171   6.115  15.816  0.2029  1.3560 -0.1504
   26DOPE  C315 3342   2.284   5.948  15.893  0.0851 -0.8248  0.0994
   26DOPE  H15X 3343   2.330   6.013  15.970 -0.4453 -0.6053  0.2382
   26DOPE  H15Y 3344   2.363   5.877  15.861  0.2401 -0.9823  0.8160
   26DOPE  C316 3345   2.170   5.870  15.953  0.2855  0.0482 -0.1174
   26DOPE  H16X 3346   2.123   5.807  15.875 -0.7132  0.2852  0.2887
   26DOPE  H16Y 3347   2.097   5.944  15.992 -1.2388 -1.2031 -0.5387
   26DOPE  C317 3348   2.230   5.772  16.053  0.3382 -0.4616 -0.5901
   26DOPE  H17X 3349   2.341   5.778  16.045  0.2826  0.8642 -0.6830
   26DOPE  H17Y 3350   2.212   5.810  16.156  3.5851  0.8054 -0.3586
   26DOPE  C318 3351   2.180   5.634  16.031  0.7214 -0.0674 -0.3825
   26DOPE  H18X 3352   2.230   5.579  15.948 -0.5410 -0.7321 -0.7333
   26DOPE  H18Y 3353   2.191   5.572  16.122  0.7846 -1.3827 -1.2544
   26DOPE  H18Z 3354   2.071   5.628  16.009  0.2281  1.2915  1.4506
   27DOPE     N 3355   6.492   0.083  16.859 -0.2445 -0.1598  0.3908
   27DOPE   HN1 3356   6.454   0.111  16.952  2.4814 -0.0441  1.5627
   27DOPE   HN2 3357   6.442   0.136  16.785 -0.1516 -1.6216 -0.7485
   27DOPE   HN3 3358   6.475  -0.019  16.851  2.9518 -0.6628 -1.4202
   27DOPE   C12 3359   6.638   0.101  16.836  0.7212 -0.5031  0.2544
   27DOPE  H12A 3360   6.662   0.209  16.843 -0.0575 -0.2814 -0.3821
   27DOPE  H12B 3361   6.657   0.074  16.730  1.0731 -1.2104  0.4885
   27DOPE   C11 3362   6.709   0.008  16.929  0.1288 -0.2203 -0.3065
   27DOPE  H11A 3363   6.810  -0.016  16.890  1.5578  1.2825  2.2500
   27DOPE  H11B 3364   6.659  -0.091  16.926  0.6908 -0.4847 -2.4399
   27DOPE     P 3365   6.830   0.165  17.111 -0.1801  0.0906 -0.0435
   27DOPE   O13 3366   6.935   0.086  17.183  0.2847  0.2474 -0.4567
   27DOPE   O14 3367   6.758   0.267  17.186 -0.1663 -0.2707 -0.4378
   27DOPE   O11 3368   6.901   0.235  16.990 -0.0982  0.1012  0.3453
   27DOPE   O12 3369   6.720   0.066  17.056 -0.3063  0.6683 -0.4505
   27DOPE    C1 3370   7.043   0.242  16.969 -0.1477 -0.0271 -0.4415
   27DOPE    HA 3371   7.104   0.158  17.008  1.1348  1.0261 -0.0913
   27DOPE    HB 3372   7.092   0.321  17.030  0.8707 -0.0050 -1.2703
   27DOPE    C2 3373   7.083   0.271  16.816  0.0904 -0.4352 -0.2124
   27DOPE    HS 3374   7.189   0.301  16.800 -0.3716  1.7244  0.4915
   27DOPE   O21 3375   6.997   0.374  16.764  0.3528  0.0498 -0.4256
   27DOPE   C21 3376   7.023   0.499  16.799 -0.3708  0.0865  0.1865
   27DOPE   O22 3377   7.117   0.533  16.873 -0.3253  0.1504 -0.3615
   27DOPE   C22 3378   6.927   0.588  16.732  0.1047 -0.5999  0.0902
   27DOPE   H2R 3379   6.855   0.617  16.811  1.1815  1.2682  0.4526
   27DOPE   H2S 3380   6.870   0.525  16.660 -2.7956  0.9919  0.8582
   27DOPE    C3 3381   7.066   0.142  16.734  0.2000  0.1343  0.3421
   27DOPE    HX 3382   6.958   0.133  16.712  0.4461 -1.8010 -0.3049
   27DOPE    HY 3383   7.092   0.052  16.794  1.4968  0.0559 -0.2844
   27DOPE   O31 3384   7.141   0.148  16.607  0.3406  0.3612  0.4993
   27DOPE   C31 3385   7.247   0.075  16.603 -0.3758  0.9443  0.3631
   27DOPE   O32 3386   7.299   0.021  16.693 -0.4563 -0.0062 -0.1341
   27DOPE   C32 3387   7.294   0.057  16.457 -0.8303 -0.6526  0.5448
   27DOPE   H2X 3388   7.239  -0.025  16.406  1.0383 -0.4321 -2.0042
   27DOPE   H2Y 3389   7.272   0.147  16.396  2.2298 -2.3922 -3.5253
   27DOPE   C23 3390   6.985   0.707  16.644 -0.5590  0.9326 -0.3210
   27DOPE   H3R 3391   7.054   0.762  16.712  3.8412 -1.7815 -2.1598
   27DOPE   H3S 3392   6.894   0.763  16.614  0.6076  2.1989 -1.6462
   27DOPE   C24 3393   7.059   0.658  16.521  0.2849  0.0552  1.0754
   27DOPE   H4R 3394   7.050   0.733  16.440 -0.2868 -1.7825 -0.6388
   27DOPE   H4S 3395   7.021   0.565  16.471  2.5577 -0.0219 -0.6688
   27DOPE   C25 3396   7.208   0.642  16.546  0.2271  0.2066  0.4602
   27DOPE   H5R 3397   7.219   0.555  16.614  1.1318  0.3818  0.5398
   27DOPE   H5S 3398   7.245   0.733  16.599  0.0476  0.6385 -0.1341
   27DOPE   C26 3399   7.287   0.620  16.419  0.6705  0.5942  0.2607
   27DOPE   H6R 3400   7.281   0.718  16.367  1.2145  0.0440 -0.8766
   27DOPE   H6S 3401   7.230   0.544  16.361  2.1691 -0.5599  0.2289
   27DOPE   C27 3402   7.431   0.581  16.432 -0.1124 -0.0783 -0.0500
   27DOPE   H7R 3403   7.448   0.484  16.482  2.1092  0.0050 -0.5343
   27DOPE   H7S 3404   7.480   0.652  16.502 -0.6518 -0.5046  0.7676
   27DOPE   C28 3405   7.501   0.563  16.296 -0.9404  0.1174  0.1331
   27DOPE   H8R 3406   7.499   0.657  16.238  1.1955  0.1631  0.0571
   27DOPE   H8S 3407   7.441   0.490  16.238 -0.1210 -1.7886  1.5425
   27DOPE   C29 3408   7.644   0.503  16.306  0.2932  0.1008 -0.0144
   27DOPE   H9R 3409   7.699   0.516  16.400  0.8372  1.4311 -0.4858
   27DOPE  C210 3410   7.712   0.459  16.201 -0.2684 -0.4730 -0.1487
   27DOPE  H10R 3411   7.818   0.438  16.218  0.1064  2.5798  2.2099
   27DOPE  C211 3412   7.663   0.469  16.063 -0.0319  0.3168 -0.1177
   27DOPE  H11R 3413   7.606   0.564  16.053 -0.3544  0.2044  0.5925
   27DOPE  H11S 3414   7.594   0.385  16.042 -0.6163  0.9206 -0.6830
   27DOPE  C212 3415   7.781   0.470  15.961  0.7214 -0.6160 -0.0985
   27DOPE  H12R 3416   7.856   0.395  15.995  2.0218  0.5211 -0.3723
   27DOPE  H12S 3417   7.832   0.569  15.958 -1.4404  0.7002  2.4027
   27DOPE  C213 3418   7.738   0.429  15.820  0.0972 -0.0322  0.6107
   27DOPE  H13R 3419   7.644   0.484  15.795 -0.1032 -1.0535 -1.0365
   27DOPE  H13S 3420   7.716   0.320  15.813 -0.4105  0.0695  0.5192
   27DOPE  C214 3421   7.844   0.458  15.718 -0.6442 -0.5685  0.3075
   27DOPE  H14R 3422   7.946   0.432  15.752 -0.7624 -1.0942  0.2684
   27DOPE  H14S 3423   7.848   0.568  15.706  1.0701 -0.7516 -1.4584
   27DOPE  C215 3424   7.818   0.399  15.574  0.1824  0.2078 -0.5053
   27DOPE  H15R 3425   7.709   0.401  15.550  0.6162 -1.7228 -2.9462
   27DOPE  H15S 3426   7.845   0.292  15.583  2.4645  0.8772  1.9441
   27DOPE  C216 3427   7.905   0.456  15.459 -0.1295  0.1459 -0.1280
   27DOPE  H16R 3428   8.009   0.421  15.480 -0.2044  0.1166  0.2010
   27DOPE  H16S 3429   7.902   0.567  15.471  2.4221  0.4087 -1.2789
   27DOPE  C217 3430   7.866   0.408  15.322  0.1851 -0.5575  0.4188
   27DOPE  H17R 3431   7.757   0.403  15.299  0.2403 -0.0709  0.0230
   27DOPE  H17S 3432   7.904   0.304  15.321 -0.1255 -0.6774  0.8818
   27DOPE  C218 3433   7.945   0.485  15.208 -0.6454 -0.3383 -0.7160
   27DOPE  H18R 3434   7.920   0.432  15.114  3.9071 -1.4978 -1.4918
   27DOPE  H18S 3435   8.055   0.484  15.225 -0.7465 -0.7463 -0.0306
   27DOPE  H18T 3436   7.918   0.592  15.201  0.3415 -0.1262 -1.4026
   27DOPE   C33 3437   7.449   0.026  16.445  0.6592 -0.0151  0.1457
   27DOPE   H3X 3438   7.476  -0.081  16.458 -1.6355 -0.4559  2.1627
   27DOPE   H3Y 3439   7.504   0.068  16.532  0.0061 -0.9074  1.0122
   27DOPE   C34 3440   7.506   0.090  16.313 -0.2545 -0.2873 -0.3266
   27DOPE   H4X 3441   7.489   0.199  16.303  0.5434 -0.0726  0.4809
   27DOPE   H4Y 3442   7.616   0.074  16.325 -0.4079 -1.3828 -0.2127
   27DOPE   C35 3443   7.458   0.022  16.182  0.1474 -0.1933 -0.3783
   27DOPE   H5X 3444   7.352   0.053  16.168  0.8688  3.1254  0.5366
   27DOPE   H5Y 3445   7.452  -0.088  16.198  0.0415 -0.0603  0.5241
   27DOPE   C36 3446   7.539   0.071  16.057 -0.1525  0.4242 -0.7682
   27DOPE   H6X 3447   7.644   0.045  16.082 -0.4665 -3.2167 -2.5944
   27DOPE   H6Y 3448   7.539   0.182  16.060 -0.5458  0.4140 -0.2172
   27DOPE   C37 3449   7.499   0.004  15.932  0.3383 -0.0789  0.0530
   27DOPE   H7X 3450   7.519  -0.104  15.951 -1.2482 -0.4528 -0.2657
   27DOPE   H7Y 3451   7.391   0.007  15.905  0.4606 -1.2397 -0.6656
   27DOPE   C38 3452   7.572   0.033  15.798  0.2429  0.3102 -0.6235
   27DOPE   H8X 3453   7.563   0.144  15.789 -1.9212  0.4869  2.2456
   27DOPE   H8Y 3454   7.527  -0.015  15.708  0.0440 -1.0689  0.1868
   27DOPE   C39 3455   7.720   0.002  15.808  1.1242  0.2288  0.0130
   27DOPE   H9X 3456   7.780   0.057  15.882  0.3578  3.5822 -1.6927
   27DOPE  C310 3457   7.785  -0.078  15.722 -0.1574 -0.5543  0.3522
   27DOPE  H10X 3458   7.891  -0.104  15.736 -0.2635 -0.3746  1.5698
   27DOPE  C311 3459   7.710  -0.161  15.606 -0.3282  0.3180 -0.4881
   27DOPE  H11X 3460   7.613  -0.200  15.642 -0.2432 -3.7473 -3.8687
   27DOPE  H11Y 3461   7.700  -0.090  15.521 -1.0309  0.5303 -0.2318
   27DOPE  C312 3462   7.801  -0.279  15.569  0.1068  0.1185 -0.1993
   27DOPE  H12X 3463   7.822  -0.346  15.655  2.9172 -0.9653 -1.5877
   27DOPE  H12Y 3464   7.897  -0.232  15.540 -0.5748  0.9185 -1.2317
   27DOPE  C313 3465   7.738  -0.360  15.460  0.5195  0.8356 -0.0422
   27DOPE  H13X 3466   7.643  -0.397  15.504 -1.2856  0.9841 -3.4868
   27DOPE  H13Y 3467   7.703  -0.288  15.384  2.5128  0.5993 -1.2484
   27DOPE  C314 3468   7.834  -0.471  15.413  0.3011 -0.4675 -0.5818
   27DOPE  H14X 3469   7.858  -0.531  15.503  0.7045  0.0651 -0.3279
   27DOPE  H14Y 3470   7.930  -0.424  15.382  0.2889 -0.3270 -0.4092
   27DOPE  C315 3471   7.785  -0.561  15.299 -0.0653  0.4593 -0.3367
   27DOPE  H15X 3472   7.791  -0.501  15.205 -1.4439  1.3794  0.1250
   27DOPE  H15Y 3473   7.675  -0.579  15.306 -0.1424  1.0490  0.0108
   27DOPE  C316 3474   7.866  -0.693  15.281 -0.6632  0.0606 -0.0647
   27DOPE  H16X 3475   7.824  -0.753  15.197 -3.9995  3.2440 -0.9325
   27DOPE  H16Y 3476   7.888  -0.755  15.371 -0.1262  2.0119  1.2135
   27DOPE  C317 3477   8.008  -0.652  15.238  0.1386  0.4171  0.8517
   27DOPE  H17X 3478   7.993  -0.581  15.153 -2.6401 -3.3481 -2.1524
   27DOPE  H17Y 3479   8.061  -0.605  15.324  0.0164 -0.3082  1.3289
   27DOPE  C318 3480   8.115  -0.758  15.187  0.3707 -0.3101  0.6171
   27DOPE  H18X 3481   8.144  -0.817  15.276  1.3741 -1.6779 -0.5780
   27DOPE  H18Y 3482   8.065  -0.828  15.117  1.8792  1.3643 -2.3533
   27DOPE  H18Z 3483   8.206  -0.712  15.144  0.0521  0.0653  0.3325
   28DOPE     N 3484   1.235   5.674  16.821  0.0561  0.1675  0.0715
   28DOPE   HN1 3485   1.215   5.776  16.813  2.4609  0.5931 -5.6911
   28DOPE   HN2 3486   1.336   5.655  16.805  0.0186 -1.4584  1.5118
   28DOPE   HN3 3487   1.193   5.631  16.736 -1.2402  1.3325  0.0898
   28DOPE   C12 3488   1.186   5.621  16.945  1.0281  0.2848 -0.1440
   28DOPE  H12A 3489   1.243   5.678  17.022  1.2009  2.1569 -1.5954
   28DOPE  H12B 3490   1.221   5.515  16.949 -1.0242 -0.4399  0.2152
   28DOPE   C11 3491   1.028   5.638  16.961  0.3377  0.1440  0.4921
   28DOPE  H11A 3492   1.003   5.608  17.065 -0.3446 -0.4834  0.1558
   28DOPE  H11B 3493   0.980   5.564  16.894  1.0092  1.7051 -1.8587
   28DOPE     P 3494   0.832   5.793  16.887 -0.1943  0.0718 -0.3865
   28DOPE   O13 3495   0.802   5.938  16.878 -0.1783 -0.0608  0.4082
   28DOPE   O14 3496   0.744   5.724  16.984 -1.1709 -0.3398  0.1070
   28DOPE   O11 3497   0.823   5.721  16.746 -0.0718 -0.4125  0.3309
   28DOPE   O12 3498   0.985   5.771  16.928  0.7048  0.2195  0.1610
   28DOPE    C1 3499   0.928   5.729  16.644 -0.6743  0.3205 -0.0242
   28DOPE    HA 3500   0.943   5.628  16.600 -0.3882  1.0669 -1.7493
   28DOPE    HB 3501   1.018   5.779  16.686 -1.5494  0.4568  1.7897
   28DOPE    C2 3502   0.872   5.810  16.526 -0.2058 -0.1119 -0.4408
   28DOPE    HS 3503   0.841   5.903  16.579  0.9962  1.4323 -2.2596
   28DOPE   O21 3504   0.762   5.739  16.459 -0.4068  0.2005 -0.1380
   28DOPE   C21 3505   0.650   5.808  16.442  0.1472  0.5876  0.8273
   28DOPE   O22 3506   0.644   5.927  16.474  0.0163  0.0454 -0.0236
   28DOPE   C22 3507   0.537   5.743  16.368 -0.6916  0.1634 -0.0609
   28DOPE   H2R 3508   0.449   5.809  16.358  0.0254  0.9090 -2.1077
   28DOPE   H2S 3509   0.518   5.656  16.434  1.5581 -1.4786 -1.3941
   28DOPE    C3 3510   0.983   5.845  16.425 -0.4669  0.4242 -0.7485
   28DOPE    HX 3511   1.031   5.748  16.401  0.3214  0.5858  0.1356
   28DOPE    HY 3512   1.069   5.892  16.479  0.8796 -1.2033 -1.3862
   28DOPE   O31 3513   0.947   5.917  16.310  0.0419  0.3103  0.0964
   28DOPE   C31 3514   0.967   6.050  16.321 -0.4916 -0.2291  0.3637
   28DOPE   O32 3515   1.029   6.112  16.400 -0.8009  0.3047  0.0207
   28DOPE   C32 3516   0.891   6.115  16.202 -0.4071  0.1074 -0.2644
   28DOPE   H2X 3517   0.864   6.034  16.130 -0.3209 -2.0823  2.0555
   28DOPE   H2Y 3518   0.802   6.168  16.242 -1.3447 -0.9262 -0.9306
   28DOPE   C23 3519   0.575   5.689  16.230 -0.2981  0.2548 -0.4078
   28DOPE   H3R 3520   0.490   5.646  16.173 -1.1088  0.4651  0.6018
   28DOPE   H3S 3521   0.656   5.613  16.240  0.9138  1.2690 -1.9447
   28DOPE   C24 3522   0.651   5.797  16.135 -0.3108  0.3505  0.5075
   28DOPE   H4R 3523   0.712   5.874  16.188 -0.8891  0.9269  0.3490
   28DOPE   H4S 3524   0.564   5.846  16.086 -0.8591 -1.6201 -0.5937
   28DOPE   C25 3525   0.737   5.729  16.026  0.0093  0.2826 -0.3105
   28DOPE   H5R 3526   0.701   5.626  16.007  0.3832 -0.1445  1.1445
   28DOPE   H5S 3527   0.838   5.715  16.070  0.9203 -0.6359 -2.5943
   28DOPE   C26 3528   0.737   5.819  15.893  0.2483  0.1919  0.2786
   28DOPE   H6R 3529   0.770   5.915  15.939 -2.0631  0.2334  2.0428
   28DOPE   H6S 3530   0.635   5.825  15.849  0.8149  0.6603 -1.0098
   28DOPE   C27 3531   0.844   5.779  15.788  0.3746 -0.3023  0.0451
   28DOPE   H7R 3532   0.852   5.853  15.706  1.1038  2.4776  2.4345
   28DOPE   H7S 3533   0.823   5.676  15.752  0.8025 -0.7854  1.1451
   28DOPE   C28 3534   0.994   5.768  15.853  0.1649 -0.0569  0.1570
   28DOPE   H8R 3535   1.060   5.730  15.773  0.7727  3.2674 -1.0936
   28DOPE   H8S 3536   1.001   5.704  15.944 -0.2891  1.2087  1.1195
   28DOPE   C29 3537   1.055   5.904  15.895 -0.2398  0.3274 -0.8331
   28DOPE   H9R 3538   1.019   5.930  15.996  1.7858  0.9214 -0.2153
   28DOPE  C210 3539   1.137   5.986  15.831 -0.0588  0.4875 -0.0862
   28DOPE  H10R 3540   1.167   6.081  15.878  0.2651  0.8301 -0.9663
   28DOPE  C211 3541   1.183   5.957  15.694 -0.4014  0.5861 -0.0637
   28DOPE  H11R 3542   1.170   5.849  15.675  0.3756  0.3314  0.7982
   28DOPE  H11S 3543   1.290   5.986  15.687 -0.6866  1.3756 -1.7734
   28DOPE  C212 3544   1.114   6.030  15.584  0.1999 -1.4238  0.0262
   28DOPE  H12R 3545   1.137   6.139  15.593 -0.5329 -1.2717  0.1205
   28DOPE  H12S 3546   1.004   6.013  15.584 -0.1753  0.5023 -2.0873
   28DOPE  C213 3547   1.179   5.989  15.458  0.0464  0.1442  0.2919
   28DOPE  H13R 3548   1.185   5.879  15.445 -1.1754  0.0871  0.0759
   28DOPE  H13S 3549   1.288   6.008  15.459 -0.0977  1.2527 -1.3303
   28DOPE  C214 3550   1.127   6.065  15.334 -0.3776  0.7374 -0.0279
   28DOPE  H14R 3551   1.196   6.048  15.248  0.0522 -1.2447  0.6655
   28DOPE  H14S 3552   1.140   6.172  15.360  0.0798  0.6237  0.2259
   28DOPE  C215 3553   0.981   6.029  15.292 -0.4185 -0.0243  0.5464
   28DOPE  H15R 3554   0.917   6.069  15.374 -0.7862 -1.3489  0.9196
   28DOPE  H15S 3555   0.969   5.920  15.278 -2.7644  0.0064  1.8011
   28DOPE  C216 3556   0.942   6.093  15.161  0.0673 -0.4580 -0.2686
   28DOPE  H16R 3557   1.012   6.059  15.081  0.9444  0.7090 -0.0241
   28DOPE  H16S 3558   0.940   6.204  15.159  1.7068 -0.3504  1.1706
   28DOPE  C217 3559   0.809   6.041  15.113  0.0339  0.1131  0.1695
   28DOPE  H17R 3560   0.792   6.089  15.014 -2.3047  1.0589  0.9753
   28DOPE  H17S 3561   0.727   6.074  15.180  0.0308 -0.3965  0.4204
   28DOPE  C218 3562   0.785   5.885  15.092  0.0760  0.0019  0.5031
   28DOPE  H18R 3563   0.846   5.855  15.005  0.4937  3.0370 -0.3963
   28DOPE  H18S 3564   0.679   5.870  15.062  0.4689 -1.4223 -0.2545
   28DOPE  H18T 3565   0.815   5.827  15.182 -0.5197 -1.6038 -0.3051
   28DOPE   C33 3566   0.977   6.217  16.127  0.4117  0.0123  0.0443
   28DOPE   H3X 3567   1.078   6.174  16.110  0.4622  1.0995 -2.9821
   28DOPE   H3Y 3568   0.997   6.309  16.187 -0.9296  0.3313  0.0338
   28DOPE   C34 3569   0.924   6.251  15.990 -0.4957 -0.1836  0.4721
   28DOPE   H4X 3570   0.976   6.345  15.959  2.6314 -2.0397 -0.3789
   28DOPE   H4Y 3571   0.949   6.168  15.921  1.1022  0.7111 -0.0849
   28DOPE   C35 3572   0.772   6.260  15.964 -0.2015 -0.3679 -0.0089
   28DOPE   H5X 3573   0.728   6.300  16.058  2.4670  1.1490  0.6699
   28DOPE   H5Y 3574   0.723   6.161  15.951  0.5576 -0.4299 -3.1037
   28DOPE   C36 3575   0.738   6.346  15.845  0.3048 -0.1750 -0.5556
   28DOPE   H6X 3576   0.804   6.435  15.851  0.8678 -0.3420 -3.3374
   28DOPE   H6Y 3577   0.633   6.382  15.851  0.4459  0.0829  0.6207
   28DOPE   C37 3578   0.771   6.269  15.712  0.3358 -0.2931  0.2907
   28DOPE   H7X 3579   0.776   6.343  15.629 -0.2904 -1.5134 -0.8711
   28DOPE   H7Y 3580   0.871   6.220  15.715 -0.3562 -1.7690 -0.1112
   28DOPE   C38 3581   0.660   6.174  15.667 -0.5879  0.7208 -0.7105
   28DOPE   H8X 3582   0.566   6.231  15.652  0.1980  1.6652 -2.4269
   28DOPE   H8Y 3583   0.647   6.118  15.762  1.1838 -1.1413 -1.4631
   28DOPE   C39 3584   0.687   6.076  15.555  0.2838  0.1298  0.2919
   28DOPE   H9X 3585   0.787   6.034  15.539  1.6501  2.5071  2.0371
   28DOPE  C310 3586   0.608   6.060  15.448 -0.2510  0.4883  0.3904
   28DOPE  H10X 3587   0.642   5.995  15.367  0.1973  2.5885 -1.1943
   28DOPE  C311 3588   0.471   6.116  15.421 -0.5459 -0.8197 -0.2576
   28DOPE  H11X 3589   0.472   6.225  15.442  1.2406 -0.7417 -0.5803
   28DOPE  H11Y 3590   0.441   6.105  15.315  1.3701  2.1595 -1.2143
   28DOPE  C312 3591   0.364   6.046  15.500 -0.8769 -0.7707  0.2521
   28DOPE  H12X 3592   0.372   6.084  15.604 -0.7093 -0.2003  0.0355
   28DOPE  H12Y 3593   0.387   5.937  15.494 -1.0096 -0.8245  0.7226
   28DOPE  C313 3594   0.224   6.061  15.444 -0.8175 -0.0868  0.6166
   28DOPE  H13X 3595   0.207   6.170  15.450  0.3804  0.0305  2.6813
   28DOPE  H13Y 3596   0.223   6.030  15.337 -0.0176  2.4359 -0.1714
   28DOPE  C314 3597   0.116   5.986  15.517  0.0914 -0.0005 -0.2192
   28DOPE  H14X 3598   0.152   5.883  15.539 -1.6563 -1.0401 -1.8699
   28DOPE  H14Y 3599   0.026   5.963  15.456  1.1994 -0.3860 -1.7881
   28DOPE  C315 3600   0.069   6.058  15.644  0.4150 -0.3925  0.0969
   28DOPE  H15X 3601   0.023   6.152  15.604  1.5886 -0.2888 -1.0733
   28DOPE  H15Y 3602   0.149   6.081  15.717  0.3973 -1.6629  0.5272
   28DOPE  C316 3603  -0.041   5.985  15.725 -0.2845 -0.3008  0.1749
   28DOPE  H16X 3604  -0.134   5.976  15.665 -0.7961 -1.9919  1.1611
   28DOPE  H16Y 3605  -0.068   6.044  15.815  0.1011 -0.3085  0.2992
   28DOPE  C317 3606   0.004   5.849  15.776 -0.3378  0.4301 -0.4365
   28DOPE  H17X 3607   0.031   5.798  15.681 -0.7155  0.5331 -0.6023
   28DOPE  H17Y 3608   0.093   5.846  15.842 -2.0376  1.4628  2.0757
   28DOPE  C318 3609  -0.113   5.786  15.862 -0.3365  0.7654 -0.0411
   28DOPE  H18X 3610  -0.116   5.678  15.886 -0.8865  1.1437  1.7035
   28DOPE  H18Y 3611  -0.121   5.834  15.962  2.0683  2.1301 -0.4248
   28DOPE  H18Z 3612  -0.205   5.822  15.810  0.2756  0.7933 -1.1304
   29DOPE     N 3613   0.655   0.399  17.311  0.1532 -0.1915  0.4478
   29DOPE   HN1 3614   0.584   0.391  17.235  0.7099  0.5288 -0.1625
   29DOPE   HN2 3615   0.633   0.344  17.396  1.4723  1.5161  1.9463
   29DOPE   HN3 3616   0.637   0.496  17.343 -0.5179  0.3377 -1.3613
   29DOPE   C12 3617   0.797   0.380  17.261 -0.1119  0.1620 -0.1078
   29DOPE  H12A 3618   0.803   0.293  17.193  2.2704  0.1568  0.0172
   29DOPE  H12B 3619   0.857   0.369  17.355 -1.2588 -0.2098  0.6024
   29DOPE   C11 3620   0.857   0.510  17.197 -0.0840  0.3330 -0.1261
   29DOPE  H11A 3621   0.830   0.601  17.254  0.7001 -0.1121  0.9907
   29DOPE  H11B 3622   0.815   0.521  17.095  0.7100 -1.2775 -0.6595
   29DOPE     P 3623   1.089   0.609  17.133  0.0987  0.2514  0.3333
   29DOPE   O13 3624   1.232   0.570  17.151 -0.3424 -0.3076  0.5321
   29DOPE   O14 3625   1.049   0.737  17.192  0.1726 -0.2152 -0.2072
   29DOPE   O11 3626   1.052   0.601  16.979  0.3547 -0.2206  0.0232
   29DOPE   O12 3627   1.000   0.500  17.191  0.1889 -0.5255  0.2665
   29DOPE    C1 3628   1.086   0.489  16.894  0.3201 -0.3179  0.0673
   29DOPE    HA 3629   1.038   0.398  16.934  1.8746  0.0343  3.0152
   29DOPE    HB 3630   1.194   0.463  16.892  0.3316 -0.3358 -2.6187
   29DOPE    C2 3631   1.043   0.520  16.752 -0.5438 -0.5472  0.4789
   29DOPE    HS 3632   1.076   0.438  16.685 -2.0008 -1.5177  0.8952
   29DOPE   O21 3633   1.081   0.647  16.707 -0.1517 -0.5612  1.1592
   29DOPE   C21 3634   1.211   0.678  16.717 -1.0459 -0.1549 -0.5052
   29DOPE   O22 3635   1.302   0.600  16.723 -0.8506  0.3992 -0.3373
   29DOPE   C22 3636   1.230   0.825  16.730 -0.2275 -0.2583  0.1161
   29DOPE   H2R 3637   1.221   0.836  16.840  1.7131 -2.0781  0.5318
   29DOPE   H2S 3638   1.163   0.887  16.667 -1.1916 -1.8500 -0.5089
   29DOPE    C3 3639   0.891   0.523  16.732  0.5499  0.1332 -0.6838
   29DOPE    HX 3640   0.850   0.585  16.814  0.0897  0.2084 -0.9705
   29DOPE    HY 3641   0.849   0.424  16.761  0.9709  0.6055  1.7898
   29DOPE   O31 3642   0.849   0.562  16.600  0.1611 -0.3981  0.0281
   29DOPE   C31 3643   0.782   0.677  16.591 -0.6114  0.3043 -0.5929
   29DOPE   O32 3644   0.755   0.746  16.692  0.2447 -0.6769  0.4855
   29DOPE   C32 3645   0.761   0.706  16.446 -0.1858  0.3209  0.8955
   29DOPE   H2X 3646   0.666   0.763  16.445 -0.8725 -0.7512  1.8392
   29DOPE   H2Y 3647   0.851   0.765  16.420  0.4723 -0.2956  1.7068
   29DOPE   C23 3648   1.374   0.869  16.692  0.0669  0.6472  0.3874
   29DOPE   H3R 3649   1.454   0.818  16.749 -1.0690  0.8783  2.3136
   29DOPE   H3S 3650   1.377   0.978  16.717 -0.3691  0.1335  2.9631
   29DOPE   C24 3651   1.395   0.861  16.542 -0.7869 -0.0010 -0.0692
   29DOPE   H4R 3652   1.306   0.897  16.487 -0.1505  0.2206 -0.9668
   29DOPE   H4S 3653   1.414   0.754  16.518  2.2400  0.1658  1.1393
   29DOPE   C25 3654   1.513   0.945  16.494  0.1652  0.3358  0.2603
   29DOPE   H5R 3655   1.609   0.917  16.542  0.6005  2.3650  0.6567
   29DOPE   H5S 3656   1.506   1.053  16.520  2.7488 -0.0633  3.2691
   29DOPE   C26 3657   1.538   0.953  16.344  0.1093 -0.0877 -0.4320
   29DOPE   H6R 3658   1.443   0.980  16.294 -0.2111  0.4588  0.4496
   29DOPE   H6S 3659   1.560   0.852  16.303 -2.1429 -0.9588  0.3641
   29DOPE   C27 3660   1.649   1.055  16.304  0.1752 -0.1520 -0.2970
   29DOPE   H7R 3661   1.730   1.052  16.381  0.2371 -1.3084 -0.3877
   29DOPE   H7S 3662   1.603   1.156  16.314 -0.1670 -0.5012  3.1762
   29DOPE   C28 3663   1.696   1.030  16.160 -0.0339 -0.4754  0.2858
   29DOPE   H8R 3664   1.619   1.046  16.081  1.1789  1.3357 -0.6090
   29DOPE   H8S 3665   1.715   0.922  16.144 -0.4467 -0.5385  0.2124
   29DOPE   C29 3666   1.815   1.115  16.127  0.1320  0.9931 -0.7076
   29DOPE   H9R 3667   1.909   1.073  16.167 -0.1905 -1.1654 -2.0438
   29DOPE  C210 3668   1.822   1.231  16.064 -0.1461 -0.2496  0.0896
   29DOPE  H10R 3669   1.914   1.288  16.048 -1.6235  2.0445 -0.6730
   29DOPE  C211 3670   1.711   1.295  15.985 -0.4913 -1.1097  0.4323
   29DOPE  H11R 3671   1.676   1.383  16.042 -1.7655 -1.3809  0.0940
   29DOPE  H11S 3672   1.628   1.222  15.972 -0.7815 -0.5208 -1.3373
   29DOPE  C212 3673   1.761   1.338  15.844 -0.2909  0.6544  0.7084
   29DOPE  H12R 3674   1.821   1.267  15.783  0.9541  1.4633  0.9329
   29DOPE  H12S 3675   1.830   1.423  15.865 -0.6491  1.3068 -0.6397
   29DOPE  C213 3676   1.634   1.396  15.767  0.2657 -0.6118 -0.2537
   29DOPE  H13R 3677   1.569   1.448  15.841  0.0505 -0.6045 -0.4476
   29DOPE  H13S 3678   1.571   1.308  15.740  0.2796 -0.9958  0.8754
   29DOPE  C214 3679   1.665   1.491  15.646 -0.3723 -0.4139 -1.0192
   29DOPE  H14R 3680   1.741   1.560  15.688  1.4335 -1.0007 -3.1029
   29DOPE  H14S 3681   1.577   1.553  15.618 -1.0430 -0.7825  0.1880
   29DOPE  C215 3682   1.721   1.428  15.522 -0.4084 -0.2972 -0.1817
   29DOPE  H15R 3683   1.636   1.381  15.469  2.5716 -2.3994 -3.5586
   29DOPE  H15S 3684   1.797   1.353  15.553 -0.4149 -0.1486  0.1975
   29DOPE  C216 3685   1.778   1.537  15.427  0.8248  0.5356  0.3049
   29DOPE  H16R 3686   1.855   1.587  15.489  1.2403 -0.6242  0.7657
   29DOPE  H16S 3687   1.706   1.611  15.387  2.0495  2.0239  0.7436
   29DOPE  C217 3688   1.846   1.477  15.312 -0.4548  0.2671 -0.0465
   29DOPE  H17R 3689   1.923   1.398  15.327  0.9270  1.4312 -0.8256
   29DOPE  H17S 3690   1.907   1.550  15.256  0.4592  0.0005  0.5813
   29DOPE  C218 3691   1.744   1.425  15.211  0.0298 -0.6679 -0.0509
   29DOPE  H18R 3692   1.798   1.390  15.120 -0.6400 -1.6042 -0.1048
   29DOPE  H18S 3693   1.684   1.517  15.191  0.2106 -0.3117  1.0186
   29DOPE  H18T 3694   1.682   1.343  15.253  0.0772 -0.9349 -0.4884
   29DOPE   C33 3695   0.751   0.583  16.356 -0.1595 -0.5823  0.4800
   29DOPE   H3X 3696   0.827   0.506  16.382  1.9601  1.2157 -0.0862
   29DOPE   H3Y 3697   0.775   0.600  16.249  0.9542 -2.0356  0.4714
   29DOPE   C34 3698   0.611   0.519  16.368 -0.3049  0.0807 -0.2620
   29DOPE   H4X 3699   0.611   0.424  16.310  1.1991  0.1386 -0.4156
   29DOPE   H4Y 3700   0.579   0.480  16.467 -0.0052 -1.8605 -0.8827
   29DOPE   C35 3701   0.491   0.600  16.310  0.2494  0.1818 -0.3026
   29DOPE   H5X 3702   0.461   0.681  16.379  1.2100  1.2475 -1.0938
   29DOPE   H5Y 3703   0.405   0.531  16.299  0.4238  0.0353 -0.7797
   29DOPE   C36 3704   0.516   0.664  16.174 -0.3350 -0.8887 -0.3262
   29DOPE   H6X 3705   0.604   0.733  16.177  0.0020 -1.2818 -0.9266
   29DOPE   H6Y 3706   0.424   0.712  16.136  0.0229  0.2020  0.1291
   29DOPE   C37 3707   0.545   0.555  16.067  0.0900 -0.1045  0.4271
   29DOPE   H7X 3708   0.641   0.504  16.091  0.0013 -1.3953 -1.7219
   29DOPE   H7Y 3709   0.459   0.485  16.074 -1.5518  1.9029  1.4985
   29DOPE   C38 3710   0.540   0.606  15.921  0.3102  0.6691 -0.2650
   29DOPE   H8X 3711   0.601   0.698  15.907  1.7225 -0.2557 -0.4125
   29DOPE   H8Y 3712   0.431   0.623  15.913  0.0095 -0.2818  1.5088
   29DOPE   C39 3713   0.563   0.506  15.809  0.2209 -0.5036  0.2835
   29DOPE   H9X 3714   0.516   0.409  15.829  0.7357 -1.1098 -1.2500
   29DOPE  C310 3715   0.629   0.517  15.695  0.0234  0.1357 -0.6733
   29DOPE  H10X 3716   0.623   0.426  15.633 -0.0740 -1.3546  1.4382
   29DOPE  C311 3717   0.717   0.639  15.661  0.2776  0.7103  0.4832
   29DOPE  H11X 3718   0.709   0.722  15.734 -0.0917 -0.7956  2.2134
   29DOPE  H11Y 3719   0.825   0.611  15.656 -0.3226 -1.6366 -0.8602
   29DOPE  C312 3720   0.686   0.706  15.525 -1.3183 -0.2717 -0.5077
   29DOPE  H12X 3721   0.747   0.798  15.513 -0.6165 -0.7959 -1.0198
   29DOPE  H12Y 3722   0.580   0.740  15.518 -1.3946 -0.4523 -0.2460
   29DOPE  C313 3723   0.697   0.614  15.401 -0.3097 -0.4822  0.7093
   29DOPE  H13X 3724   0.803   0.587  15.379 -0.0512  0.9158  0.1285
   29DOPE  H13Y 3725   0.632   0.525  15.413  0.6209 -1.6017 -1.9508
   29DOPE  C314 3726   0.649   0.689  15.274  0.0187 -0.2242  0.8303
   29DOPE  H14X 3727   0.699   0.788  15.264  0.2264 -0.4778 -0.8489
   29DOPE  H14Y 3728   0.542   0.712  15.294  0.3657  0.5171  1.9375
   29DOPE  C315 3729   0.672   0.608  15.143  0.2234 -0.2030  0.0075
   29DOPE  H15X 3730   0.635   0.505  15.157  0.2929 -0.3226 -0.6419
   29DOPE  H15Y 3731   0.780   0.596  15.118  0.2782  0.7830 -0.2798
   29DOPE  C316 3732   0.605   0.682  15.029 -0.2464  0.2323 -0.3710
   29DOPE  H16X 3733   0.664   0.776  15.021  1.7069 -0.9019 -0.0211
   29DOPE  H16Y 3734   0.507   0.729  15.052 -1.1004 -0.9388 -1.4626
   29DOPE  C317 3735   0.615   0.605  14.896 -0.1089 -0.2785  0.1135
   29DOPE  H17X 3736   0.625   0.670  14.806  2.8785 -1.9123 -0.8897
   29DOPE  H17Y 3737   0.708   0.545  14.888 -1.7983 -3.0857  0.4179
   29DOPE  C318 3738   0.490   0.521  14.870  0.3583  0.6269  0.6552
   29DOPE  H18X 3739   0.483   0.470  14.772 -1.5711 -0.2363  1.1961
   29DOPE  H18Y 3740   0.464   0.439  14.940 -2.1650  0.7683  0.0060
   29DOPE  H18Z 3741   0.406   0.594  14.869  1.7954  2.3412  1.1091
   30DOPE     N 3742   1.964   6.860  16.933  0.0762  0.0723  0.4291
   30DOPE   HN1 3743   1.978   6.819  16.838  0.7659  1.9740 -0.3442
   30DOPE   HN2 3744   1.865   6.888  16.944  0.0903  0.5582 -0.5675
   30DOPE   HN3 3745   2.010   6.952  16.914 -0.6173  0.1448 -1.0961
   30DOPE   C12 3746   2.018   6.777  17.046 -0.4325 -0.2825 -0.4344
   30DOPE  H12A 3747   2.024   6.842  17.136  1.6864 -0.6441 -0.2621
   30DOPE  H12B 3748   2.123   6.757  17.016  0.4232  0.8182  1.6153
   30DOPE   C11 3749   1.938   6.649  17.061  0.2706  0.2515  0.4252
   30DOPE  H11A 3750   1.838   6.690  17.085 -0.2059 -1.3849  1.4414
   30DOPE  H11B 3751   1.971   6.591  17.150 -0.4628  1.7128  1.6900
   30DOPE     P 3752   1.831   6.449  16.961  0.2116  0.2565  0.2500
   30DOPE   O13 3753   1.703   6.486  17.030 -0.1543 -0.1750  0.4852
   30DOPE   O14 3754   1.896   6.329  17.011  0.2530  0.0523  0.1618
   30DOPE   O11 3755   1.806   6.422  16.809  0.1914 -0.2601 -0.1187
   30DOPE   O12 3756   1.933   6.568  16.944 -0.3974  0.0405 -0.3005
   30DOPE    C1 3757   1.674   6.426  16.748  0.1560 -0.4232  0.2193
   30DOPE    HA 3758   1.602   6.490  16.804  1.0538  1.0651 -0.2832
   30DOPE    HB 3759   1.638   6.321  16.754  1.0692 -0.9101 -1.8370
   30DOPE    C2 3760   1.689   6.468  16.602  0.4835  0.3230 -0.0087
   30DOPE    HS 3761   1.585   6.498  16.574  0.1591 -0.8269 -0.0859
   30DOPE   O21 3762   1.712   6.360  16.508 -0.3471  0.7698 -0.1590
   30DOPE   C21 3763   1.612   6.273  16.479 -0.8102  0.5655  0.1720
   30DOPE   O22 3764   1.503   6.282  16.533 -1.0358 -0.5358  0.0351
   30DOPE   C22 3765   1.655   6.173  16.366 -0.5544 -0.3146 -0.4159
   30DOPE   H2R 3766   1.721   6.092  16.405 -0.0425  0.8740  1.3477
   30DOPE   H2S 3767   1.720   6.236  16.301 -1.0640  0.8621  0.1872
   30DOPE    C3 3768   1.790   6.593  16.585  0.1937  1.3383 -0.1550
   30DOPE    HX 3769   1.891   6.553  16.610 -0.0273  0.2859 -0.8738
   30DOPE    HY 3770   1.762   6.670  16.660 -0.1990  0.4831  0.6050
   30DOPE   O31 3771   1.795   6.640  16.447 -0.2566  0.3317  0.2636
   30DOPE   C31 3772   1.707   6.734  16.406 -0.3654  1.0178  0.1697
   30DOPE   O32 3773   1.620   6.779  16.474 -0.2457 -0.6238  0.1282
   30DOPE   C32 3774   1.741   6.771  16.262  0.0191  0.5210  0.0341
   30DOPE   H2X 3775   1.683   6.707  16.192 -0.3053 -0.0387  0.8003
   30DOPE   H2Y 3776   1.722   6.878  16.241 -0.2028  0.1663 -1.7479
   30DOPE   C23 3777   1.538   6.098  16.286 -0.4576  0.1620 -0.3201
   30DOPE   H3R 3778   1.578   6.039  16.201 -0.1336  0.2252 -0.2113
   30DOPE   H3S 3779   1.469   6.171  16.238 -1.7644 -2.2873 -2.3918
   30DOPE   C24 3780   1.449   6.005  16.382  0.2533  0.1225 -0.4241
   30DOPE   H4R 3781   1.403   6.076  16.454  1.5104  0.3271  0.2084
   30DOPE   H4S 3782   1.515   5.936  16.439  1.4299  0.0859 -1.7726
   30DOPE   C25 3783   1.340   5.937  16.302  0.2823 -0.1923  0.8371
   30DOPE   H5R 3784   1.271   6.008  16.251 -0.9222 -0.3659  2.1590
   30DOPE   H5S 3785   1.273   5.887  16.375  0.6403 -4.4732 -1.4540
   30DOPE   C26 3786   1.399   5.844  16.204 -0.3828 -0.4951 -0.0161
   30DOPE   H6R 3787   1.491   5.806  16.254  0.6329  0.6967 -0.8904
   30DOPE   H6S 3788   1.439   5.897  16.114  0.5177  1.5583  1.4985
   30DOPE   C27 3789   1.296   5.734  16.165 -0.0775  0.4814  0.3423
   30DOPE   H7R 3790   1.194   5.772  16.145 -1.3246 -2.8792 -0.2785
   30DOPE   H7S 3791   1.289   5.662  16.250  1.8907 -0.6897 -0.4193
   30DOPE   C28 3792   1.360   5.656  16.043  0.2406 -0.3305 -0.3174
   30DOPE   H8R 3793   1.463   5.636  16.080 -0.2873 -1.9755  0.3110
   30DOPE   H8S 3794   1.362   5.726  15.957 -1.8002  0.6643  0.3673
   30DOPE   C29 3795   1.304   5.526  16.001 -0.2000 -0.2809  0.1369
   30DOPE   H9R 3796   1.280   5.466  16.090 -0.2958  0.0350  0.3260
   30DOPE  C210 3797   1.290   5.477  15.877  0.0647 -0.0954  0.3321
   30DOPE  H10R 3798   1.241   5.381  15.854  1.0149 -0.7579  1.0040
   30DOPE  C211 3799   1.329   5.555  15.753 -0.1957 -0.3813 -0.2687
   30DOPE  H11R 3800   1.392   5.644  15.771 -1.0785  0.0615  0.7562
   30DOPE  H11S 3801   1.239   5.592  15.699 -0.0028 -0.5097 -0.6886
   30DOPE  C212 3802   1.417   5.459  15.660 -0.4508 -0.0878  0.3276
   30DOPE  H12R 3803   1.503   5.412  15.712 -1.1347 -3.0788 -1.0160
   30DOPE  H12S 3804   1.464   5.521  15.580 -0.9395  2.0125  1.5773
   30DOPE  C213 3805   1.336   5.342  15.592 -0.6027 -0.3473 -0.5297
   30DOPE  H13R 3806   1.301   5.288  15.683  0.8340  0.6615  0.6741
   30DOPE  H13S 3807   1.405   5.282  15.531 -1.6543 -1.4894 -0.6360
   30DOPE  C214 3808   1.216   5.373  15.506 -0.0150  0.1067 -0.2744
   30DOPE  H14R 3809   1.150   5.440  15.564  0.3287  1.4574 -1.4054
   30DOPE  H14S 3810   1.157   5.281  15.484  1.2709 -1.4824  2.3182
   30DOPE  C215 3811   1.252   5.432  15.365  0.1037 -0.2150 -0.0267
   30DOPE  H15R 3812   1.248   5.343  15.299 -0.8088 -0.3493  0.1961
   30DOPE  H15S 3813   1.354   5.475  15.378 -0.9992  2.4797  0.3926
   30DOPE  C216 3814   1.151   5.538  15.319  0.2285 -0.1488  0.5796
   30DOPE  H16R 3815   1.127   5.612  15.398 -2.4820  0.6246 -0.8576
   30DOPE  H16S 3816   1.053   5.493  15.295  1.2122 -1.4996 -1.1504
   30DOPE  C217 3817   1.211   5.628  15.207 -0.2851  0.2891 -0.3811
   30DOPE  H17R 3818   1.283   5.704  15.244  0.0494 -0.4517  0.5235
   30DOPE  H17S 3819   1.129   5.692  15.168 -1.2846 -0.4329  0.4796
   30DOPE  C218 3820   1.269   5.554  15.089  0.0905  0.2219  0.2068
   30DOPE  H18R 3821   1.301   5.617  15.004 -1.8999 -1.0910 -1.6188
   30DOPE  H18S 3822   1.187   5.487  15.055 -0.0192  0.3601  0.2011
   30DOPE  H18T 3823   1.354   5.487  15.112  0.7039  0.8709 -0.1279
   30DOPE   C33 3824   1.889   6.744  16.211 -0.3852  0.8785 -0.2664
   30DOPE   H3X 3825   1.917   6.637  16.215 -1.3706  0.6276  0.0417
   30DOPE   H3Y 3826   1.953   6.793  16.287  0.1877 -0.4582  0.1306
   30DOPE   C34 3827   1.916   6.792  16.067 -0.9783  0.1045 -0.2634
   30DOPE   H4X 3828   1.882   6.897  16.048 -2.3140 -0.5879 -2.0918
   30DOPE   H4Y 3829   2.026   6.800  16.063 -0.9182 -0.9177 -0.8963
   30DOPE   C35 3830   1.861   6.705  15.957 -0.4522  0.0551 -0.1163
   30DOPE   H5X 3831   1.750   6.701  15.958 -0.4384 -0.9930 -1.0763
   30DOPE   H5Y 3832   1.896   6.601  15.974  0.1697  0.0994 -1.0477
   30DOPE   C36 3833   1.890   6.751  15.810 -0.0894  0.1546 -0.5675
   30DOPE   H6X 3834   2.001   6.745  15.813 -0.1199 -0.3351  2.3457
   30DOPE   H6Y 3835   1.848   6.854  15.804 -1.2517 -0.3697 -2.6804
   30DOPE   C37 3836   1.834   6.644  15.711  0.8924  0.2748 -0.7552
   30DOPE   H7X 3837   1.843   6.544  15.759  0.6894  0.4434 -0.3620
   30DOPE   H7Y 3838   1.727   6.666  15.688  0.2375 -0.1243  1.6206
   30DOPE   C38 3839   1.894   6.647  15.573 -0.2291  0.6400  0.0686
   30DOPE   H8X 3840   1.888   6.749  15.529  1.0590  0.7840  0.1889
   30DOPE   H8Y 3841   1.831   6.583  15.507 -1.3551  1.7261  0.0592
   30DOPE   C39 3842   2.036   6.600  15.567  0.3136  0.3854 -0.5256
   30DOPE   H9X 3843   2.076   6.567  15.664 -0.8130  0.0213 -0.1697
   30DOPE  C310 3844   2.119   6.623  15.465 -0.2121 -0.3087 -0.3309
   30DOPE  H10X 3845   2.228   6.604  15.465 -0.1391 -0.2918 -2.8867
   30DOPE  C311 3846   2.088   6.687  15.334  0.1239 -0.6553  0.0850
   30DOPE  H11X 3847   1.987   6.731  15.323  0.4896 -0.0474 -0.9989
   30DOPE  H11Y 3848   2.161   6.770  15.322 -1.4173  1.0414  1.6682
   30DOPE  C312 3849   2.105   6.570  15.233 -0.1528 -0.4604 -0.1844
   30DOPE  H12X 3850   2.061   6.615  15.141 -0.7113  1.7677  1.0980
   30DOPE  H12Y 3851   2.044   6.478  15.249 -0.8338 -0.0546 -0.3939
   30DOPE  C313 3852   2.249   6.516  15.211 -0.1172 -1.0721 -0.3768
   30DOPE  H13X 3853   2.284   6.452  15.294 -2.8075  0.1486  1.8434
   30DOPE  H13Y 3854   2.250   6.451  15.121  0.4780 -1.4696 -0.0884
   30DOPE  C314 3855   2.329   6.637  15.177  0.6249  0.6730 -0.3043
   30DOPE  H14X 3856   2.374   6.682  15.268  2.2826 -1.3165 -0.0434
   30DOPE  H14Y 3857   2.271   6.715  15.124 -2.3550 -0.9254  0.3645
   30DOPE  C315 3858   2.459   6.600  15.097 -0.2147  0.8347 -1.3208
   30DOPE  H15X 3859   2.422   6.530  15.019  1.4345 -1.8271  0.1378
   30DOPE  H15Y 3860   2.519   6.538  15.167 -1.9074 -0.6267 -1.1102
   30DOPE  C316 3861   2.529   6.724  15.051  0.1649 -0.3615 -0.3845
   30DOPE  H16X 3862   2.561   6.787  15.136  1.1234 -1.1900 -0.1090
   30DOPE  H16Y 3863   2.461   6.798  15.003  0.1488  0.0959  0.3385
   30DOPE  C317 3864   2.644   6.694  14.957  0.2663 -0.0001 -0.0264
   30DOPE  H17X 3865   2.703   6.615  15.009  0.8832  1.6618  1.9229
   30DOPE  H17Y 3866   2.603   6.638  14.870  0.5121 -0.0455 -0.1151
   30DOPE  C318 3867   2.725   6.817  14.908  0.7320  0.0829  0.2744
   30DOPE  H18X 3868   2.760   6.877  14.994 -0.1524  0.1884  0.5658
   30DOPE  H18Y 3869   2.817   6.775  14.860 -1.0303 -2.6492 -0.9983
   30DOPE  H18Z 3870   2.666   6.874  14.834  1.5996  0.0521 -0.4597
   31DOPE     N 3871   4.230   2.349  13.030  0.1020 -0.0378  0.0179
   31DOPE   HN1 3872   4.303   2.281  13.000  0.7498  1.4661 -1.9729
   31DOPE   HN2 3873   4.262   2.448  13.023  0.7410 -0.1130  1.4779
   31DOPE   HN3 3874   4.194   2.333  13.127  1.0871 -0.8966  0.2732
   31DOPE   C12 3875   4.109   2.321  12.939  0.4270  0.5468  0.2487
   31DOPE  H12A 3876   4.081   2.217  12.968  2.0888 -0.2543 -0.8839
   31DOPE  H12B 3877   4.143   2.328  12.833 -1.4975  0.5523 -0.4061
   31DOPE   C11 3878   3.995   2.408  12.985 -0.0398 -0.2117 -0.1970
   31DOPE  H11A 3879   3.905   2.374  12.929  0.9730 -0.5482 -1.6640
   31DOPE  H11B 3880   4.014   2.515  12.962 -1.9882 -0.3291 -2.8200
   31DOPE     P 3881   3.871   2.480  13.207  0.0186 -0.0841  0.4856
   31DOPE   O13 3882   3.827   2.411  13.326 -0.2971 -0.2948 -0.5063
   31DOPE   O14 3883   3.769   2.526  13.117  0.1122 -0.8630  0.6825
   31DOPE   O11 3884   3.960   2.593  13.257  0.1394 -0.3979  0.0350
   31DOPE   O12 3885   3.965   2.387  13.124 -0.2662  0.5768 -0.6706
   31DOPE    C1 3886   4.086   2.571  13.306  0.6609 -0.1686 -0.5643
   31DOPE    HA 3887   4.153   2.641  13.251 -0.4063  0.0521 -1.6110
   31DOPE    HB 3888   4.124   2.470  13.281 -0.5831 -0.4495 -1.3932
   31DOPE    C2 3889   4.098   2.590  13.461  0.8221 -0.4743 -0.7393
   31DOPE    HS 3890   4.208   2.590  13.479  1.0022 -0.1707 -1.7677
   31DOPE   O21 3891   4.032   2.484  13.532 -0.0758  0.5888  0.0901
   31DOPE   C21 3892   4.098   2.371  13.551 -0.0274 -0.1536 -0.2398
   31DOPE   O22 3893   4.219   2.358  13.522 -0.2153  0.4474 -0.8860
   31DOPE   C22 3894   4.010   2.276  13.640 -0.8654  0.0882 -0.0159
   31DOPE   H2R 3895   4.031   2.169  13.619  1.8415  0.2843  1.1760
   31DOPE   H2S 3896   3.903   2.300  13.624 -1.0032 -0.9648 -0.7586
   31DOPE    C3 3897   4.036   2.731  13.496 -0.0146  0.0471 -0.4122
   31DOPE    HX 3898   3.927   2.736  13.479  0.0523 -1.8295 -1.8088
   31DOPE    HY 3899   4.082   2.796  13.418 -0.0941  0.0284 -0.4753
   31DOPE   O31 3900   4.060   2.783  13.623  0.6909 -0.1001  0.5348
   31DOPE   C31 3901   3.972   2.751  13.718  0.5963  0.0450  0.0940
   31DOPE   O32 3902   3.872   2.682  13.703 -0.1066 -0.2571 -0.1704
   31DOPE   C32 3903   4.021   2.805  13.855 -0.4629 -0.0953  0.4399
   31DOPE   H2X 3904   4.102   2.879  13.839  0.3886 -0.5964  2.1942
   31DOPE   H2Y 3905   3.935   2.847  13.911 -1.8626 -1.1207 -0.8521
   31DOPE   C23 3906   4.041   2.289  13.795  0.6402 -1.3049  0.4599
   31DOPE   H3R 3907   4.074   2.394  13.808  1.4693 -1.3928 -0.7305
   31DOPE   H3S 3908   4.136   2.242  13.829  1.9844  0.5918 -0.4865
   31DOPE   C24 3909   3.922   2.281  13.896  0.0036 -0.0572  0.0974
   31DOPE   H4R 3910   3.886   2.176  13.901 -2.2692  0.5434 -1.7044
   31DOPE   H4S 3911   3.835   2.331  13.848  1.4748 -1.1475 -4.1206
   31DOPE   C25 3912   3.961   2.327  14.043  0.3098  0.0715  0.2843
   31DOPE   H5R 3913   3.868   2.339  14.102 -0.7825  0.1981 -1.4173
   31DOPE   H5S 3914   4.011   2.426  14.035 -2.0975  1.3849  0.6702
   31DOPE   C26 3915   4.044   2.220  14.118 -0.0070  0.1892  0.7822
   31DOPE   H6R 3916   4.080   2.281  14.203  1.1754 -0.2466  0.6125
   31DOPE   H6S 3917   4.136   2.200  14.059  0.5853 -0.9516  2.0485
   31DOPE   C27 3918   3.963   2.108  14.170  0.3553  0.5000 -0.3615
   31DOPE   H7R 3919   3.899   2.059  14.093  0.3837  1.0362 -0.7264
   31DOPE   H7S 3920   3.899   2.155  14.248  0.9109  1.1189 -0.2813
   31DOPE   C28 3921   4.055   2.002  14.234 -0.3409 -0.0606  0.2105
   31DOPE   H8R 3922   4.105   2.067  14.309  0.3216 -0.5740  0.2278
   31DOPE   H8S 3923   4.128   1.958  14.163 -0.7913  0.6904 -0.7344
   31DOPE   C29 3924   3.978   1.880  14.281  0.4401  0.2641 -0.3050
   31DOPE   H9R 3925   3.951   1.816  14.196 -1.1713 -1.0508  1.1157
   31DOPE  C210 3926   3.945   1.844  14.403  0.5922 -0.1294 -0.4447
   31DOPE  H10R 3927   3.891   1.750  14.422  3.1127 -1.5199  0.2544
   31DOPE  C211 3928   3.980   1.919  14.528  0.5504  0.0224  0.8554
   31DOPE  H11R 3929   3.905   1.880  14.601  1.7347 -2.8828  0.6643
   31DOPE  H11S 3930   3.980   2.027  14.506 -1.9919 -0.3057 -1.1304
   31DOPE  C212 3931   4.118   1.880  14.565  0.7780  0.4315  0.6758
   31DOPE  H12R 3932   4.192   1.910  14.488 -0.3970 -0.7979 -0.9985
   31DOPE  H12S 3933   4.120   1.770  14.572 -0.2388  0.3060 -0.5634
   31DOPE  C213 3934   4.172   1.937  14.692  0.1257  0.0087 -0.2584
   31DOPE  H13R 3935   4.090   1.926  14.767 -1.8268  0.0558 -2.2603
   31DOPE  H13S 3936   4.203   2.042  14.676  3.1385 -0.3834  2.0555
   31DOPE  C214 3937   4.301   1.879  14.753  0.3892 -0.2197  0.1865
   31DOPE  H14R 3938   4.387   1.868  14.685 -0.6042 -2.8709 -0.7565
   31DOPE  H14S 3939   4.274   1.773  14.772 -0.6578  0.0109  0.0398
   31DOPE  C215 3940   4.329   1.931  14.889  0.6566 -0.3469  0.0748
   31DOPE  H15R 3941   4.240   1.928  14.955 -0.0833 -0.7916 -0.9182
   31DOPE  H15S 3942   4.351   2.040  14.893 -1.1842  0.1460 -1.7903
   31DOPE  C216 3943   4.441   1.864  14.958 -0.0319 -0.0576  0.2961
   31DOPE  H16R 3944   4.533   1.874  14.895  0.9711  0.1389  1.7429
   31DOPE  H16S 3945   4.420   1.758  14.984  0.8681 -0.0219  1.2291
   31DOPE  C217 3946   4.489   1.919  15.096 -0.2899  0.1394  0.0070
   31DOPE  H17R 3947   4.576   1.855  15.121 -0.4211 -0.5427 -1.2124
   31DOPE  H17S 3948   4.404   1.898  15.164 -1.6480  0.7961 -1.4264
   31DOPE  C218 3949   4.519   2.072  15.110  0.2306  0.3481  0.3092
   31DOPE  H18R 3950   4.513   2.099  15.217 -3.1187  0.3811  0.2093
   31DOPE  H18S 3951   4.437   2.126  15.059 -1.3088  0.1294  2.4288
   31DOPE  H18T 3952   4.618   2.100  15.068 -0.7547  5.0619  0.5551
   31DOPE   C33 3953   4.093   2.697  13.946 -0.1571 -0.1972 -0.3160
   31DOPE   H3X 3954   4.171   2.639  13.892 -1.3770 -2.1545 -0.0636
   31DOPE   H3Y 3955   4.010   2.629  13.974 -0.5520  0.4614  0.1324
   31DOPE   C34 3956   4.155   2.751  14.079 -0.1847  0.5066 -0.0534
   31DOPE   H4X 3957   4.175   2.665  14.145  1.1904  0.1093 -0.9540
   31DOPE   H4Y 3958   4.246   2.809  14.053 -0.9490  0.7752 -2.4827
   31DOPE   C35 3959   4.066   2.855  14.152 -0.3457  0.0376 -0.3524
   31DOPE   H5X 3960   3.965   2.814  14.177 -1.0831  1.4670 -0.8601
   31DOPE   H5Y 3961   4.026   2.931  14.081 -2.0389 -1.0740 -0.6624
   31DOPE   C36 3962   4.151   2.926  14.265 -0.0741 -0.0795  0.3334
   31DOPE   H6X 3963   4.096   3.006  14.319 -0.4779 -0.2187  0.1361
   31DOPE   H6Y 3964   4.242   2.978  14.227 -0.4388  1.3890  1.3712
   31DOPE   C37 3965   4.189   2.829  14.376  0.3123  0.6419  0.6402
   31DOPE   H7X 3966   4.087   2.795  14.404 -0.3395  2.7105  1.0124
   31DOPE   H7Y 3967   4.256   2.747  14.342  0.6304  0.6625  1.2049
   31DOPE   C38 3968   4.252   2.899  14.496  0.2657 -0.2274  0.5371
   31DOPE   H8X 3969   4.189   2.982  14.535 -0.4734 -1.0273  1.0926
   31DOPE   H8Y 3970   4.344   2.941  14.450  0.9637 -1.6227  0.6254
   31DOPE   C39 3971   4.286   2.797  14.605 -0.2810 -0.2478 -0.2758
   31DOPE   H9X 3972   4.192   2.757  14.645 -0.5395  0.6427  0.0364
   31DOPE  C310 3973   4.407   2.749  14.635  0.2696 -0.0084  0.8007
   31DOPE  H10X 3974   4.418   2.679  14.719  0.6015 -2.1553 -0.9512
   31DOPE  C311 3975   4.537   2.789  14.569  0.5780  0.2423 -0.3715
   31DOPE  H11X 3976   4.534   2.745  14.467  1.8775  1.4224 -0.9614
   31DOPE  H11Y 3977   4.551   2.899  14.564  3.2125 -0.0582 -1.2048
   31DOPE  C312 3978   4.658   2.738  14.653 -0.2808 -0.0953 -0.1154
   31DOPE  H12X 3979   4.758   2.763  14.613 -0.1431 -1.3559 -0.5980
   31DOPE  H12Y 3980   4.656   2.629  14.634  2.7507 -0.4679  1.2484
   31DOPE  C313 3981   4.650   2.780  14.795  0.0105  0.1325  0.3655
   31DOPE  H13X 3982   4.594   2.876  14.797  0.0964  0.1826  0.3507
   31DOPE  H13Y 3983   4.588   2.711  14.856  1.8480 -2.3755 -0.4642
   31DOPE  C314 3984   4.786   2.809  14.864  0.2009 -0.0511 -0.3692
   31DOPE  H14X 3985   4.831   2.903  14.826  0.8245 -0.8244 -1.6375
   31DOPE  H14Y 3986   4.846   2.717  14.845  0.6765  0.1216  0.2447
   31DOPE  C315 3987   4.763   2.823  15.014  0.0844  0.0393  0.1034
   31DOPE  H15X 3988   4.860   2.814  15.068  0.2756 -2.0288 -0.5122
   31DOPE  H15Y 3989   4.709   2.730  15.042  1.1260 -0.6139  0.0197
   31DOPE  C316 3990   4.699   2.952  15.066 -0.1699 -0.4302  0.3207
   31DOPE  H16X 3991   4.594   2.935  15.033  0.3609 -3.6017 -0.0939
   31DOPE  H16Y 3992   4.733   3.045  15.015  2.4326 -1.6430 -0.3186
   31DOPE  C317 3993   4.713   2.971  15.221 -0.7815 -0.6609  0.0957
   31DOPE  H17X 3994   4.641   3.051  15.250 -1.0059 -1.3697  1.5826
   31DOPE  H17Y 3995   4.680   2.873  15.262 -4.5339  0.6317  0.5579
   31DOPE  C318 3996   4.855   3.010  15.277  0.4324  0.3667 -0.1226
   31DOPE  H18X 3997   4.932   2.944  15.232  0.1886  0.4317 -0.6411
   31DOPE  H18Y 3998   4.877   3.118  15.265  2.5311  0.3430  2.4751
   31DOPE  H18Z 3999   4.844   2.986  15.385 -0.3928  0.3756 -0.1974
   32DOPE     N 4000   5.191   3.036  13.213  0.7990 -0.0557  0.3817
   32DOPE   HN1 4001   5.190   3.135  13.244 -0.7169  0.0763 -0.0113
   32DOPE   HN2 4002   5.091   3.010  13.201  0.9128 -1.0592  1.4342
   32DOPE   HN3 4003   5.227   2.990  13.298 -0.3721  0.5355  1.2231
   32DOPE   C12 4004   5.280   3.002  13.097 -0.2853  0.0581  0.2148
   32DOPE  H12A 4005   5.236   2.908  13.056  0.7392 -1.0216  1.5084
   32DOPE  H12B 4006   5.386   2.994  13.128  0.1619  1.5797 -0.8141
   32DOPE   C11 4007   5.273   3.121  12.994 -0.1521  0.1701  0.6341
   32DOPE  H11A 4008   5.170   3.160  12.976  0.3829  2.0165  1.3598
   32DOPE  H11B 4009   5.316   3.081  12.899 -0.3392  0.4975  0.4091
   32DOPE     P 4010   5.342   3.349  13.122 -0.0997  0.2069 -0.0478
   32DOPE   O13 4011   5.306   3.477  13.050  0.5773 -0.4502  0.3388
   32DOPE   O14 4012   5.467   3.353  13.203 -0.1245  0.0319 -0.3560
   32DOPE   O11 4013   5.232   3.283  13.211 -0.0260 -0.5731 -0.0419
   32DOPE   O12 4014   5.364   3.226  13.029 -0.3759  0.1002  0.2846
   32DOPE    C1 4015   5.147   3.373  13.283 -0.3737 -0.0478 -0.2737
   32DOPE    HA 4016   5.046   3.327  13.280 -1.4971  2.1015  1.2455
   32DOPE    HB 4017   5.141   3.478  13.247  0.5392  0.2317  0.3602
   32DOPE    C2 4018   5.179   3.388  13.437  0.3437 -0.0718  0.0089
   32DOPE    HS 4019   5.278   3.435  13.453  0.4344  0.2233 -1.3446
   32DOPE   O21 4020   5.168   3.258  13.490  0.4803  0.1354  0.3865
   32DOPE   C21 4021   5.231   3.229  13.603  0.0524  0.1421  0.7263
   32DOPE   O22 4022   5.295   3.305  13.674 -0.6660  0.1771  0.3047
   32DOPE   C22 4023   5.215   3.075  13.613  0.4801 -0.7704 -0.5020
   32DOPE   H2R 4024   5.304   3.027  13.568  0.6490 -1.5670  0.6079
   32DOPE   H2S 4025   5.123   3.031  13.569 -1.9837  0.9545  2.4576
   32DOPE    C3 4026   5.067   3.485  13.496  0.0891  0.4158 -0.3013
   32DOPE    HX 4027   4.965   3.447  13.474  0.0290  0.7438 -0.5991
   32DOPE    HY 4028   5.077   3.582  13.443  2.2297  1.1355  1.3079
   32DOPE   O31 4029   5.084   3.520  13.634 -0.1609 -0.0192  0.0497
   32DOPE   C31 4030   5.023   3.440  13.721 -0.0802 -0.0487 -0.0863
   32DOPE   O32 4031   4.941   3.355  13.693 -0.0348 -0.0764 -0.7192
   32DOPE   C32 4032   5.082   3.475  13.853  0.2054  0.6997  0.0461
   32DOPE   H2X 4033   5.192   3.477  13.842  0.2140 -2.0737 -0.9543
   32DOPE   H2Y 4034   5.036   3.574  13.876 -1.0912  0.0653  0.3259
   32DOPE   C23 4035   5.201   3.034  13.764 -0.0945 -0.7691 -0.1526
   32DOPE   H3R 4036   5.162   2.931  13.775 -0.6575 -0.6095 -0.5877
   32DOPE   H3S 4037   5.118   3.084  13.818  0.6611  1.0878 -0.6135
   32DOPE   C24 4038   5.334   3.026  13.834  0.0138 -0.0311  0.4359
   32DOPE   H4R 4039   5.376   3.128  13.839 -0.7987  0.6739 -3.6776
   32DOPE   H4S 4040   5.408   2.963  13.780  1.1981  1.2624  0.5153
   32DOPE   C25 4041   5.310   2.985  13.982  0.3157  0.6379  0.3154
   32DOPE   H5R 4042   5.409   2.940  14.008 -0.5992 -0.6024  1.8626
   32DOPE   H5S 4043   5.227   2.912  13.986 -0.7613  1.8725  1.2889
   32DOPE   C26 4044   5.287   3.097  14.088  0.5099  0.5693 -0.0849
   32DOPE   H6R 4045   5.183   3.133  14.077  0.2377 -0.5681 -1.3477
   32DOPE   H6S 4046   5.345   3.191  14.069 -0.3915  0.9695 -0.9312
   32DOPE   C27 4047   5.321   3.053  14.227 -0.3168  0.5955 -0.3784
   32DOPE   H7R 4048   5.430   3.031  14.229 -0.1493  1.4233  0.9864
   32DOPE   H7S 4049   5.276   2.953  14.248  0.2164  0.5817  0.7536
   32DOPE   C28 4050   5.289   3.156  14.330  0.4476 -0.1852 -0.2308
   32DOPE   H8R 4051   5.304   3.258  14.289 -0.4725 -1.2611 -3.6102
   32DOPE   H8S 4052   5.351   3.139  14.421 -2.0169 -3.4198  1.0217
   32DOPE   C29 4053   5.144   3.167  14.371  1.0922  0.4838 -0.3343
   32DOPE   H9R 4054   5.066   3.158  14.293 -0.2394 -1.2902  1.1114
   32DOPE  C210 4055   5.108   3.162  14.502 -0.1562 -0.2446  0.1263
   32DOPE  H10R 4056   4.999   3.167  14.517 -0.0493  1.2685  0.6035
   32DOPE  C211 4057   5.190   3.133  14.620 -0.4714 -0.0209  0.2745
   32DOPE  H11R 4058   5.209   3.235  14.661 -0.9019  0.3862 -0.4963
   32DOPE  H11S 4059   5.293   3.102  14.592 -0.6185 -0.2000 -0.0792
   32DOPE  C212 4060   5.137   3.033  14.722 -0.5698 -0.2463  0.6100
   32DOPE  H12R 4061   5.105   2.941  14.669 -1.3255 -0.4480  1.3933
   32DOPE  H12S 4062   5.047   3.062  14.781 -0.7967  0.1582  0.0724
   32DOPE  C213 4063   5.251   2.998  14.820 -0.1033 -0.5030  0.2744
   32DOPE  H13R 4064   5.267   3.084  14.889 -1.9006  1.1467 -1.2338
   32DOPE  H13S 4065   5.348   2.985  14.768 -0.6976  0.0712 -1.0224
   32DOPE  C214 4066   5.221   2.878  14.905  0.6875  0.7820 -0.6783
   32DOPE  H14R 4067   5.206   2.795  14.833 -2.4850  1.7656 -1.3239
   32DOPE  H14S 4068   5.127   2.895  14.962  1.4349 -1.0809  1.2332
   32DOPE  C215 4069   5.338   2.834  15.003 -0.1875 -0.3228  0.1411
   32DOPE  H15R 4070   5.277   2.776  15.076 -1.1714  0.8639  0.2988
   32DOPE  H15S 4071   5.379   2.924  15.053 -0.6155 -1.0174  1.8274
   32DOPE  C216 4072   5.458   2.757  14.938  0.5863  0.2814 -0.5022
   32DOPE  H16R 4073   5.522   2.822  14.876  0.7992 -0.7870 -1.4413
   32DOPE  H16S 4074   5.411   2.699  14.855  1.0834 -0.0493 -0.5548
   32DOPE  C217 4075   5.540   2.682  15.044  0.4688  0.0180 -0.0878
   32DOPE  H17R 4076   5.468   2.611  15.090 -3.6022  0.5181 -4.8620
   32DOPE  H17S 4077   5.566   2.758  15.121 -2.0863  0.5994  0.3055
   32DOPE  C218 4078   5.665   2.613  14.993 -0.0945 -0.3045  0.0730
   32DOPE  H18R 4079   5.736   2.691  14.958  0.5323 -0.5462  0.7896
   32DOPE  H18S 4080   5.649   2.537  14.914 -1.5857  0.4210 -0.3766
   32DOPE  H18T 4081   5.719   2.559  15.073 -0.1088 -0.9599 -0.3522
   32DOPE   C33 4082   5.015   3.381  13.961 -0.5970 -0.2007  0.0030
   32DOPE   H3X 4083   5.037   3.274  13.943 -0.2297 -0.2531  0.7450
   32DOPE   H3Y 4084   4.904   3.390  13.958 -0.4951  1.2496 -2.0413
   32DOPE   C34 4085   5.065   3.423  14.106  0.0132 -0.0022  0.8259
   32DOPE   H4X 4086   5.048   3.340  14.177 -4.9710 -0.8152 -0.8683
   32DOPE   H4Y 4087   5.174   3.437  14.096 -0.0435 -0.2187 -0.3134
   32DOPE   C35 4088   5.011   3.562  14.162 -0.5409  0.0753 -0.2123
   32DOPE   H5X 4089   4.901   3.555  14.178 -0.8521 -0.1305 -2.2161
   32DOPE   H5Y 4090   5.033   3.646  14.093  0.2503  0.3529  0.3605
   32DOPE   C36 4091   5.098   3.594  14.285 -0.4160  0.2887 -0.5069
   32DOPE   H6X 4092   5.203   3.606  14.251 -0.0973  0.9573  0.6828
   32DOPE   H6Y 4093   5.102   3.503  14.348  2.4466  0.6440 -0.0679
   32DOPE   C37 4094   5.042   3.713  14.375 -0.5020 -0.1815  0.2994
   32DOPE   H7X 4095   5.053   3.803  14.311  0.6410 -1.4855 -1.4068
   32DOPE   H7Y 4096   4.937   3.695  14.408  0.3231 -1.7226  2.2853
   32DOPE   C38 4097   5.129   3.736  14.502  0.4452 -0.2482  0.6562
   32DOPE   H8X 4098   5.093   3.815  14.571 -0.6574 -0.8616  0.7998
   32DOPE   H8Y 4099   5.234   3.756  14.470  0.1585 -0.0901 -0.2284
   32DOPE   C39 4100   5.133   3.611  14.593  0.1943 -0.8568 -0.0043
   32DOPE   H9X 4101   5.039   3.596  14.649  0.4706 -2.4919  0.0831
   32DOPE  C310 4102   5.242   3.540  14.638 -0.2617 -0.8014  0.6829
   32DOPE  H10X 4103   5.229   3.459  14.712 -0.2068  0.4797  2.1213
   32DOPE  C311 4104   5.379   3.553  14.590 -0.2894  0.5005  0.7210
   32DOPE  H11X 4105   5.441   3.461  14.578 -0.5985  0.5498 -1.8231
   32DOPE  H11Y 4106   5.389   3.597  14.488 -1.4445 -0.3949  0.2014
   32DOPE  C312 4107   5.460   3.644  14.690  0.5035  0.1485 -0.4968
   32DOPE  H12X 4108   5.426   3.622  14.794 -0.9740 -1.0256 -1.1778
   32DOPE  H12Y 4109   5.434   3.749  14.667 -0.0141  0.6217  1.9571
   32DOPE  C313 4110   5.616   3.632  14.679 -0.2085  0.3375  0.3482
   32DOPE  H13X 4111   5.643   3.525  14.663  0.0528  0.8253 -3.4359
   32DOPE  H13Y 4112   5.642   3.686  14.585 -2.7709  0.8735 -0.1308
   32DOPE  C314 4113   5.694   3.682  14.799 -0.2433 -0.7067  0.6087
   32DOPE  H14X 4114   5.802   3.663  14.783  0.2125 -0.0814  2.7316
   32DOPE  H14Y 4115   5.673   3.628  14.894 -1.4885 -0.9107  0.2394
   32DOPE  C315 4116   5.680   3.842  14.825  0.0564 -0.2957  0.2877
   32DOPE  H15X 4117   5.571   3.861  14.826 -0.4392 -2.6829  2.1009
   32DOPE  H15Y 4118   5.737   3.887  14.740 -0.7479  0.5860  0.2036
   32DOPE  C316 4119   5.749   3.889  14.951 -0.1802 -0.1878  0.2187
   32DOPE  H16X 4120   5.857   3.899  14.929 -0.4976  1.4760 -0.8242
   32DOPE  H16Y 4121   5.726   3.812  15.028 -0.3973 -1.9718 -1.5616
   32DOPE  C317 4122   5.688   4.027  15.003 -0.1849 -0.3510  0.4162
   32DOPE  H17X 4123   5.706   4.109  14.930  1.1571  0.1600  1.2796
   32DOPE  H17Y 4124   5.580   4.004  15.015 -0.4600 -0.7253 -2.1115
   32DOPE  C318 4125   5.762   4.070  15.132  0.2567  0.2621 -0.0630
   32DOPE  H18X 4126   5.873   4.073  15.127  0.3167  0.1865  1.0266
   32DOPE  H18Y 4127   5.735   4.173  15.161 -0.6271  0.5614 -1.8234
   32DOPE  H18Z 4128   5.733   3.997  15.211  0.8118  0.6882  0.5439
   33DOPE     N 4129   3.324   1.782  12.935 -0.4303 -0.5318  0.1874
   33DOPE   HN1 4130   3.301   1.857  13.003 -1.1587  0.6857 -1.3381
   33DOPE   HN2 4131   3.234   1.754  12.891 -0.6170  0.2771  0.0407
   33DOPE   HN3 4132   3.362   1.699  12.984  0.4239  0.6313  1.6068
   33DOPE   C12 4133   3.425   1.840  12.832 -0.4104 -0.0181 -1.1284
   33DOPE  H12A 4134   3.366   1.870  12.742 -2.4850 -0.7121 -0.0767
   33DOPE  H12B 4135   3.504   1.764  12.816 -0.5768 -0.3289 -0.5083
   33DOPE   C11 4136   3.500   1.972  12.876 -0.4275  0.0447 -0.3559
   33DOPE  H11A 4137   3.430   2.058  12.886  0.8352  0.9318  1.5226
   33DOPE  H11B 4138   3.575   2.002  12.801 -0.0510 -1.1444 -0.4656
   33DOPE     P 4139   3.632   2.076  13.084 -0.1188 -0.4505  0.1986
   33DOPE   O13 4140   3.554   2.201  13.062 -0.0969  0.1899  0.4426
   33DOPE   O14 4141   3.775   2.081  13.045  0.0691 -0.0485 -0.5172
   33DOPE   O11 4142   3.629   2.017  13.235 -0.4210 -0.1507  0.2115
   33DOPE   O12 4143   3.562   1.960  13.001  0.2089 -0.0724  0.4905
   33DOPE    C1 4144   3.505   2.013  13.306 -0.9758  0.5952  0.4833
   33DOPE    HA 4145   3.414   2.025  13.242 -0.3983 -0.6387 -0.6288
   33DOPE    HB 4146   3.514   2.100  13.373  1.9691  1.9155 -1.4360
   33DOPE    C2 4147   3.507   1.897  13.413 -0.2435 -0.5056 -0.4812
   33DOPE    HS 4148   3.427   1.926  13.484 -0.1237 -1.7563  0.1796
   33DOPE   O21 4149   3.639   1.893  13.482 -0.1503 -0.3843  0.4605
   33DOPE   C21 4150   3.650   1.983  13.584 -0.0402  0.0110  1.0135
   33DOPE   O22 4151   3.572   2.069  13.612 -0.1174 -0.0236  0.5684
   33DOPE   C22 4152   3.782   1.980  13.659  0.1130 -0.4153 -0.3081
   33DOPE   H2R 4153   3.798   2.064  13.731  0.3551  0.0143 -0.8570
   33DOPE   H2S 4154   3.862   1.989  13.583  0.7752 -1.1378  0.2826
   33DOPE    C3 4155   3.459   1.761  13.351  0.3866  0.9101 -0.1378
   33DOPE    HX 4156   3.526   1.729  13.268  0.3202 -1.9023  0.7792
   33DOPE    HY 4157   3.357   1.769  13.307  0.0698 -4.7064 -1.1290
   33DOPE   O31 4158   3.447   1.655  13.451 -0.0243 -0.0986 -0.1533
   33DOPE   C31 4159   3.554   1.587  13.475  0.0419  0.7045 -0.2151
   33DOPE   O32 4160   3.669   1.617  13.441 -0.1045 -0.0398  0.4140
   33DOPE   C32 4161   3.522   1.472  13.570  0.0207  0.2628 -0.6117
   33DOPE   H2X 4162   3.438   1.505  13.635 -0.7377 -0.0882 -1.3819
   33DOPE   H2Y 4163   3.481   1.384  13.514 -1.6488 -0.2140  1.2334
   33DOPE   C23 4164   3.812   1.852  13.737  0.4264 -0.0423 -0.3027
   33DOPE   H3R 4165   3.793   1.762  13.676  1.3160 -0.6830  0.3368
   33DOPE   H3S 4166   3.743   1.844  13.824 -1.7339 -0.4566 -1.9990
   33DOPE   C24 4167   3.956   1.838  13.780 -0.3514  0.0686  0.3681
   33DOPE   H4R 4168   3.962   1.898  13.873 -1.6033 -0.9383  1.1291
   33DOPE   H4S 4169   4.024   1.876  13.701 -0.9465 -1.7617 -1.1114
   33DOPE   C25 4170   3.997   1.694  13.810 -0.0478 -0.3794 -0.1043
   33DOPE   H5R 4171   3.974   1.630  13.722  2.7838 -0.2429 -1.0556
   33DOPE   H5S 4172   3.929   1.654  13.887 -1.3812  1.2006 -0.3961
   33DOPE   C26 4173   4.138   1.679  13.866 -0.3059 -0.2440  0.0195
   33DOPE   H6R 4174   4.151   1.745  13.954  0.3263  0.1659 -0.3720
   33DOPE   H6S 4175   4.223   1.687  13.796  3.1656  0.6060  3.9643
   33DOPE   C27 4176   4.159   1.539  13.919  0.3703  0.4342  0.8559
   33DOPE   H7R 4177   4.127   1.471  13.837  1.8626  2.7456 -1.8017
   33DOPE   H7S 4178   4.091   1.513  14.003  0.5898  1.5017  1.3786
   33DOPE   C28 4179   4.303   1.504  13.954  0.9445 -0.7636  1.0980
   33DOPE   H8R 4180   4.325   1.560  14.047  1.1964 -0.3513  0.7900
   33DOPE   H8S 4181   4.367   1.561  13.885  2.0695 -1.2044  1.7486
   33DOPE   C29 4182   4.348   1.360  13.964  0.5495 -0.1287  0.9049
   33DOPE   H9R 4183   4.344   1.311  13.865  0.2475  1.5609  0.0552
   33DOPE  C210 4184   4.376   1.283  14.076  0.7721 -0.1244  0.1763
   33DOPE  H10R 4185   4.422   1.187  14.049  2.1826 -0.1479  2.3843
   33DOPE  C211 4186   4.373   1.326  14.217  0.6443  0.0454 -0.1531
   33DOPE  H11R 4187   4.381   1.436  14.220  0.7609  0.0496 -0.5338
   33DOPE  H11S 4188   4.465   1.296  14.272  0.3902 -2.7183 -1.0499
   33DOPE  C212 4189   4.256   1.260  14.294 -0.2930 -0.4692 -0.9509
   33DOPE  H12R 4190   4.276   1.152  14.307 -0.0894 -0.3389 -0.1657
   33DOPE  H12S 4191   4.155   1.272  14.249 -0.3748  1.6649 -0.3227
   33DOPE  C213 4192   4.241   1.329  14.428 -0.1925 -0.3229 -0.6176
   33DOPE  H13R 4193   4.163   1.408  14.427  0.3015  0.1678 -0.7375
   33DOPE  H13S 4194   4.335   1.376  14.464  0.2174  0.3813 -2.4955
   33DOPE  C214 4195   4.204   1.230  14.543  0.1269 -0.2332  0.0666
   33DOPE  H14R 4196   4.251   1.130  14.538  0.5376 -0.1094  1.2019
   33DOPE  H14S 4197   4.101   1.190  14.547  0.7445 -1.9351 -0.1846
   33DOPE  C215 4198   4.238   1.294  14.685  0.1676  0.1838  0.3373
   33DOPE  H15R 4199   4.190   1.395  14.690  0.5440  0.4193 -0.5304
   33DOPE  H15S 4200   4.346   1.321  14.687  0.3703 -0.6918  1.8410
   33DOPE  C216 4201   4.188   1.206  14.804  0.0264  0.1025 -0.2898
   33DOPE  H16R 4202   4.258   1.119  14.806  1.1184  0.9611 -0.2696
   33DOPE  H16S 4203   4.085   1.174  14.779 -0.2258 -0.4520  1.3072
   33DOPE  C217 4204   4.184   1.263  14.947  0.0307  0.3899 -0.5391
   33DOPE  H17R 4205   4.094   1.326  14.963 -0.7499 -0.6126 -0.8549
   33DOPE  H17S 4206   4.279   1.319  14.963  0.1958  0.2039 -0.8669
   33DOPE  C218 4207   4.168   1.144  15.051 -0.2690 -1.4708  0.0358
   33DOPE  H18R 4208   4.171   1.195  15.149  0.0258 -0.8709 -0.2810
   33DOPE  H18S 4209   4.255   1.075  15.051  0.6935 -0.3996  3.3494
   33DOPE  H18T 4210   4.069   1.096  15.032 -0.0084 -1.9315 -0.1844
   33DOPE   C33 4211   3.649   1.440  13.646 -0.8139  0.4347 -1.0779
   33DOPE   H3X 4212   3.689   1.535  13.686 -0.4109 -0.1215 -0.1225
   33DOPE   H3Y 4213   3.716   1.397  13.568 -0.8129 -1.3803 -0.1276
   33DOPE   C34 4214   3.628   1.342  13.764  0.1791  0.2000  0.5086
   33DOPE   H4X 4215   3.557   1.379  13.841  1.0324  0.1995  1.3171
   33DOPE   H4Y 4216   3.601   1.243  13.722  0.0188  0.3245  0.3128
   33DOPE   C35 4217   3.757   1.323  13.847 -0.4695 -0.2854 -0.0021
   33DOPE   H5X 4218   3.718   1.269  13.936 -0.9597  1.7951  1.1081
   33DOPE   H5Y 4219   3.801   1.420  13.879  2.2017 -0.7051 -2.0812
   33DOPE   C36 4220   3.865   1.255  13.769  0.3907 -0.7017  0.5385
   33DOPE   H6X 4221   3.914   1.328  13.701  1.7702 -1.7003  0.4223
   33DOPE   H6Y 4222   3.826   1.175  13.703  1.1090  0.0272 -0.7886
   33DOPE   C37 4223   3.979   1.212  13.866 -0.3026 -0.1125  0.5870
   33DOPE   H7X 4224   4.015   1.305  13.914 -0.9948  1.3916 -1.6031
   33DOPE   H7Y 4225   3.949   1.146  13.950  3.5279 -1.8220  0.8083
   33DOPE   C38 4226   4.101   1.163  13.792 -0.0774  0.2334  0.5799
   33DOPE   H8X 4227   4.188   1.148  13.859 -0.0782 -1.2392  0.2855
   33DOPE   H8Y 4228   4.121   1.242  13.717 -1.2860 -0.0286 -0.0511
   33DOPE   C39 4229   4.079   1.036  13.718 -0.3658 -0.2390 -0.7125
   33DOPE   H9X 4230   4.068   1.054  13.610 -0.2403  1.2176 -0.4953
   33DOPE  C310 4231   4.071   0.914  13.768  0.6270 -0.2010  0.1212
   33DOPE  H10X 4232   4.097   0.832  13.699  0.5304 -0.6053  0.5576
   33DOPE  C311 4233   4.086   0.867  13.911 -0.2624  0.5375  0.0988
   33DOPE  H11X 4234   4.171   0.795  13.914  0.6645  1.5502 -1.0602
   33DOPE  H11Y 4235   4.126   0.942  13.981 -0.3192 -0.3026  1.0608
   33DOPE  C312 4236   3.958   0.812  13.966 -0.0965 -0.8696 -0.0580
   33DOPE  H12X 4237   3.899   0.744  13.901 -2.8190 -1.7973  3.1324
   33DOPE  H12Y 4238   3.898   0.905  13.972  0.1181 -0.6380 -1.1871
   33DOPE  C313 4239   3.977   0.748  14.103  0.1026  0.2398  0.8037
   33DOPE  H13X 4240   4.040   0.657  14.094  0.7511  0.8124 -0.6575
   33DOPE  H13Y 4241   4.025   0.822  14.171 -0.9173  3.3803 -1.6625
   33DOPE  C314 4242   3.840   0.709  14.167 -0.4400  0.3086 -0.9581
   33DOPE  H14X 4243   3.787   0.630  14.109  0.4291  0.1821 -1.5904
   33DOPE  H14Y 4244   3.762   0.788  14.170 -1.2328 -0.4742  0.4056
   33DOPE  C315 4245   3.870   0.658  14.306 -0.2035 -0.1928 -0.9898
   33DOPE  H15X 4246   3.958   0.590  14.301  0.0276 -0.1532  1.2961
   33DOPE  H15Y 4247   3.781   0.601  14.339  0.1633 -0.9327 -1.2571
   33DOPE  C316 4248   3.894   0.767  14.405  0.5739 -0.7362  0.5346
   33DOPE  H16X 4249   3.794   0.801  14.440  0.8879  0.9203 -0.0989
   33DOPE  H16Y 4250   3.949   0.855  14.365  0.9201 -0.3098  1.8858
   33DOPE  C317 4251   3.970   0.718  14.531  0.6806  0.1108  0.3355
   33DOPE  H17X 4252   3.906   0.655  14.596 -2.2596 -0.7797 -3.0727
   33DOPE  H17Y 4253   4.042   0.639  14.501 -1.5933 -1.9421 -0.0106
   33DOPE  C318 4254   4.051   0.826  14.609 -0.0682  0.1000 -0.4811
   33DOPE  H18X 4255   3.975   0.898  14.647  0.6715  0.9080 -0.4895
   33DOPE  H18Y 4256   4.092   0.783  14.703  1.4047  0.2441 -1.0338
   33DOPE  H18Z 4257   4.134   0.871  14.550  1.0892 -1.2535  0.0621
   34DOPE     N 4258   3.806   4.096  12.913 -0.6209 -0.0176  0.1422
   34DOPE   HN1 4259   3.721   4.042  12.888 -0.0623 -0.9139  0.1733
   34DOPE   HN2 4260   3.799   4.200  12.910 -0.5905  0.0626  1.7600
   34DOPE   HN3 4261   3.882   4.053  12.858 -1.5763 -0.6693 -0.7073
   34DOPE   C12 4262   3.841   4.057  13.055  0.2506 -0.3043 -0.6799
   34DOPE  H12A 4263   3.859   3.949  13.069  0.4775 -0.1376  0.4119
   34DOPE  H12B 4264   3.758   4.071  13.128  2.7237  1.3165  2.0317
   34DOPE   C11 4265   3.972   4.119  13.106  0.3359 -0.0679 -0.8914
   34DOPE  H11A 4266   4.010   4.077  13.201  0.9058  0.9756 -0.6453
   34DOPE  H11B 4267   3.954   4.226  13.129  1.3912  0.1003 -0.8151
   34DOPE     P 4268   4.188   4.022  12.994 -0.4541 -0.1158  0.2873
   34DOPE   O13 4269   4.279   4.054  12.884  0.5541 -0.3974  0.0911
   34DOPE   O14 4270   4.129   3.889  13.003  0.6162  0.4369  0.3903
   34DOPE   O11 4271   4.262   4.050  13.130 -0.2383 -0.3547 -0.1446
   34DOPE   O12 4272   4.069   4.125  13.001 -0.1469  0.0267 -0.1255
   34DOPE    C1 4273   4.339   4.172  13.155 -0.2360  0.1012 -0.2625
   34DOPE    HA 4274   4.289   4.262  13.112  0.9059  0.2083 -1.4046
   34DOPE    HB 4275   4.430   4.179  13.092  0.2612 -0.9813  0.3126
   34DOPE    C2 4276   4.361   4.186  13.311  0.4517 -0.1908 -0.3913
   34DOPE    HS 4277   4.434   4.269  13.322 -2.0948  2.1359  0.0035
   34DOPE   O21 4278   4.414   4.065  13.367  0.2889  0.1048 -0.0138
   34DOPE   C21 4279   4.538   4.033  13.327  0.4291 -0.1095  0.1769
   34DOPE   O22 4280   4.600   4.096  13.241 -0.0778 -0.7289  0.1227
   34DOPE   C22 4281   4.588   3.902  13.394  0.2763 -0.0696  0.0614
   34DOPE   H2R 4282   4.550   3.817  13.334  4.2124 -2.6320  0.8542
   34DOPE   H2S 4283   4.553   3.909  13.499  0.1937  2.7374 -0.0662
   34DOPE    C3 4284   4.224   4.216  13.385 -0.2549  0.0882  0.4866
   34DOPE    HX 4285   4.131   4.167  13.349  1.1370 -1.9659 -0.4950
   34DOPE    HY 4286   4.209   4.325  13.370 -1.9264 -0.2383 -0.5573
   34DOPE   O31 4287   4.244   4.192  13.527  0.5530  0.4838 -0.2860
   34DOPE   C31 4288   4.206   4.077  13.572 -0.0120  0.2308 -0.3408
   34DOPE   O32 4289   4.171   3.978  13.511  0.3734 -0.2964  0.3068
   34DOPE   C32 4290   4.213   4.082  13.730 -0.2068  0.1793 -0.4907
   34DOPE   H2X 4291   4.305   4.122  13.778 -0.8765  0.7429  0.3494
   34DOPE   H2Y 4292   4.141   4.161  13.759 -0.4778 -0.1402 -0.2815
   34DOPE   C23 4293   4.747   3.904  13.399 -0.1136  0.6985 -0.1698
   34DOPE   H3R 4294   4.785   3.986  13.463  2.7581 -1.3527  0.9116
   34DOPE   H3S 4295   4.787   3.909  13.295  2.3031 -1.4472  0.5552
   34DOPE   C24 4296   4.801   3.784  13.473  0.3506 -0.2525  0.3771
   34DOPE   H4R 4297   4.908   3.759  13.460  1.0693  0.5050  3.7910
   34DOPE   H4S 4298   4.735   3.702  13.436  0.1070  0.7779 -1.5925
   34DOPE   C25 4299   4.783   3.790  13.624  0.8079  0.3146  0.1006
   34DOPE   H5R 4300   4.795   3.686  13.660 -1.2061 -0.5593 -1.5633
   34DOPE   H5S 4301   4.678   3.811  13.654  0.4337 -2.2173  0.7656
   34DOPE   C26 4302   4.886   3.875  13.692 -0.4511 -0.5120  0.0259
   34DOPE   H6R 4303   4.855   3.981  13.682  4.3450  1.2126  1.1271
   34DOPE   H6S 4304   4.980   3.876  13.634  0.7473  0.9408  1.8836
   34DOPE   C27 4305   4.915   3.839  13.845  0.3100 -0.5437  0.1949
   34DOPE   H7R 4306   5.023   3.855  13.866 -0.1946  1.8960  1.2431
   34DOPE   H7S 4307   4.885   3.733  13.857 -1.5362 -0.1545 -0.6470
   34DOPE   C28 4308   4.830   3.930  13.940 -0.0803 -0.4353  0.0462
   34DOPE   H8R 4309   4.843   3.896  14.045 -1.7153  1.7563  1.0394
   34DOPE   H8S 4310   4.723   3.927  13.908 -0.1517  0.5156  0.1707
   34DOPE   C29 4311   4.869   4.073  13.939  0.0663 -0.0694 -0.3852
   34DOPE   H9R 4312   4.928   4.106  13.853 -3.3315 -0.2140 -2.9798
   34DOPE  C210 4313   4.801   4.168  14.007 -0.5557  1.1468 -0.2053
   34DOPE  H10R 4314   4.834   4.271  13.990  0.1032  0.8124 -1.0497
   34DOPE  C211 4315   4.697   4.135  14.117 -0.5240  0.0829 -0.0888
   34DOPE  H11R 4316   4.623   4.057  14.089 -1.0142  0.0686  1.1810
   34DOPE  H11S 4317   4.628   4.222  14.122  0.6136  0.9635  1.0170
   34DOPE  C212 4318   4.747   4.121  14.267  0.1930 -0.3590  0.4190
   34DOPE  H12R 4319   4.797   4.022  14.276 -2.1801 -1.8881 -1.9938
   34DOPE  H12S 4320   4.659   4.106  14.332 -0.3688 -1.3863 -0.5406
   34DOPE  C213 4321   4.846   4.220  14.317 -0.3379  0.0104 -0.8542
   34DOPE  H13R 4322   4.820   4.325  14.290 -1.0601 -0.6122 -2.7307
   34DOPE  H13S 4323   4.944   4.203  14.268  1.5244 -0.8870  2.8328
   34DOPE  C214 4324   4.874   4.221  14.464 -0.4919  0.3774 -0.3189
   34DOPE  H14R 4325   4.965   4.279  14.486  0.6461 -1.3332 -0.3259
   34DOPE  H14S 4326   4.891   4.116  14.495  1.3520  1.0918  1.2756
   34DOPE  C215 4327   4.758   4.276  14.548  0.3518 -0.2972 -0.3696
   34DOPE  H15R 4328   4.658   4.237  14.521 -0.5012  0.5752  1.3545
   34DOPE  H15S 4329   4.757   4.380  14.510  0.0723 -0.5885 -1.1716
   34DOPE  C216 4330   4.788   4.278  14.695  0.1539  0.0737 -0.7454
   34DOPE  H16R 4331   4.834   4.375  14.725 -0.5531  0.8870 -2.2182
   34DOPE  H16S 4332   4.857   4.197  14.727  0.1571  0.6947  0.9082
   34DOPE  C217 4333   4.660   4.270  14.775 -0.0847  0.3097 -0.1186
   34DOPE  H17R 4334   4.589   4.192  14.740  0.8979 -1.2039  1.1168
   34DOPE  H17S 4335   4.609   4.368  14.768  0.5237  0.5283 -2.3924
   34DOPE  C218 4336   4.699   4.232  14.919  0.0969  0.5600  0.0606
   34DOPE  H18R 4337   4.759   4.315  14.963 -0.1519  0.3900  0.7282
   34DOPE  H18S 4338   4.757   4.137  14.920  1.0622  1.1314 -0.2900
   34DOPE  H18T 4339   4.606   4.219  14.978  0.4506  0.5101  0.6173
   34DOPE   C33 4340   4.171   3.946  13.807 -0.8304  0.2283  0.8269
   34DOPE   H3X 4341   4.265   3.888  13.810 -0.3277  0.9106 -0.8798
   34DOPE   H3Y 4342   4.088   3.889  13.759 -1.9986  1.6115  1.1316
   34DOPE   C34 4343   4.106   3.978  13.939 -0.4076  0.0670 -0.6348
   34DOPE   H4X 4344   4.178   4.035  14.001 -0.3424 -0.2251 -0.4391
   34DOPE   H4Y 4345   4.012   4.036  13.924  0.6632  1.5026 -2.0873
   34DOPE   C35 4346   4.078   3.851  14.025  0.3371 -0.3852 -0.5253
   34DOPE   H5X 4347   4.061   3.873  14.133 -1.2845  0.0720 -0.8514
   34DOPE   H5Y 4348   4.155   3.771  14.022  0.0778 -0.8319  2.3056
   34DOPE   C36 4349   3.947   3.782  13.975 -0.6080  0.5315  0.2020
   34DOPE   H6X 4350   3.962   3.749  13.870  1.6327 -0.0897  0.6601
   34DOPE   H6Y 4351   3.871   3.862  13.980 -0.2085  0.8377  3.2338
   34DOPE   C37 4352   3.891   3.669  14.060 -0.3380  0.1031 -0.2614
   34DOPE   H7X 4353   3.938   3.569  14.044 -2.6825 -1.1503  0.2297
   34DOPE   H7Y 4354   3.910   3.699  14.165 -0.4529  0.4050 -0.3255
   34DOPE   C38 4355   3.739   3.655  14.041  0.6021 -0.0860  0.2049
   34DOPE   H8X 4356   3.722   3.632  13.933  1.0689  1.9561 -0.3445
   34DOPE   H8Y 4357   3.702   3.759  14.052  0.6782 -0.1368  1.0184
   34DOPE   C39 4358   3.676   3.556  14.134  0.2721 -0.2386 -0.2267
   34DOPE   H9X 4359   3.704   3.450  14.127  0.0519 -0.3206  0.0873
   34DOPE  C310 4360   3.579   3.583  14.223 -0.3564 -0.7547 -0.0955
   34DOPE  H10X 4361   3.534   3.494  14.268  0.6291 -1.1755  0.0875
   34DOPE  C311 4362   3.520   3.725  14.243  0.2031 -0.3597  0.2448
   34DOPE  H11X 4363   3.570   3.808  14.190  0.8683 -0.1629  1.1419
   34DOPE  H11Y 4364   3.415   3.717  14.208 -0.3000  0.5226  1.4612
   34DOPE  C312 4365   3.524   3.770  14.393  0.1180  0.4761 -0.8138
   34DOPE  H12X 4366   3.516   3.879  14.410  0.0442 -0.0800  4.0729
   34DOPE  H12Y 4367   3.615   3.730  14.443 -1.0898 -0.9869  0.3039
   34DOPE  C313 4368   3.409   3.706  14.481 -0.1470 -0.3044  0.3481
   34DOPE  H13X 4369   3.321   3.724  14.416 -0.7699  1.3951  1.6015
   34DOPE  H13Y 4370   3.430   3.598  14.496  1.9893  0.4499  4.0070
   34DOPE  C314 4371   3.390   3.772  14.619  0.1029  0.8945  0.8411
   34DOPE  H14X 4372   3.321   3.704  14.674 -1.4168  0.5848 -1.3247
   34DOPE  H14Y 4373   3.340   3.870  14.603  1.2522  1.5229  1.0466
   34DOPE  C315 4374   3.512   3.805  14.695 -0.3469 -0.6426  0.4584
   34DOPE  H15X 4375   3.584   3.867  14.637 -0.8503 -0.1082  0.3941
   34DOPE  H15Y 4376   3.558   3.711  14.731 -1.2974 -0.4403  2.3556
   34DOPE  C316 4377   3.482   3.881  14.828 -0.6062 -0.2900 -0.0985
   34DOPE  H16X 4378   3.434   3.809  14.896  2.0063 -0.4054  1.7836
   34DOPE  H16Y 4379   3.416   3.963  14.793  0.5881 -0.0201 -1.9150
   34DOPE  C317 4380   3.608   3.939  14.906 -0.6840 -0.2612  0.0891
   34DOPE  H17X 4381   3.654   4.024  14.852  1.7091 -1.4212  0.1627
   34DOPE  H17Y 4382   3.580   3.988  15.002 -1.1140  4.2671 -2.1181
   34DOPE  C318 4383   3.715   3.830  14.928  0.3114 -0.7354  0.3698
   34DOPE  H18X 4384   3.778   3.832  14.837  0.1493 -2.0435  0.2178
   34DOPE  H18Y 4385   3.772   3.859  15.019 -3.6742  0.6335  2.7017
   34DOPE  H18Z 4386   3.682   3.725  14.933 -1.7026 -0.2647 -1.4136
   35DOPE     N 4387   7.178   3.865  13.030 -0.7543  0.6225  0.1644
   35DOPE   HN1 4388   7.181   3.934  13.107 -0.0696  2.0010 -1.0498
   35DOPE   HN2 4389   7.129   3.779  13.063 -0.8693  0.5791 -0.1169
   35DOPE   HN3 4390   7.280   3.850  13.025 -0.5356  1.7178  0.9572
   35DOPE   C12 4391   7.099   3.923  12.913  0.0081 -0.7935 -0.1706
   35DOPE  H12A 4392   7.122   4.030  12.898  0.5809 -0.6368  1.5987
   35DOPE  H12B 4393   6.992   3.898  12.932 -0.4897  0.2907 -1.4018
   35DOPE   C11 4394   7.144   3.844  12.794 -0.0618 -0.0794 -0.2470
   35DOPE  H11A 4395   7.248   3.870  12.762  0.1317 -0.3135  0.1873
   35DOPE  H11B 4396   7.081   3.876  12.708 -0.4242 -0.4982 -0.1373
   35DOPE     P 4397   7.250   3.599  12.788  0.2786 -0.2799  0.6544
   35DOPE   O13 4398   7.376   3.648  12.843  0.0747 -0.2182 -0.4002
   35DOPE   O14 4399   7.243   3.573  12.642 -0.6203 -0.5035  0.2126
   35DOPE   O11 4400   7.205   3.470  12.859  0.5118  0.3362  0.1702
   35DOPE   O12 4401   7.135   3.705  12.816  0.3597 -0.2179  0.0748
   35DOPE    C1 4402   7.070   3.419  12.859  0.7721 -0.3256 -0.2048
   35DOPE    HA 4403   7.061   3.309  12.847  0.8313 -0.5620  1.7224
   35DOPE    HB 4404   7.022   3.459  12.767  1.8778  1.1063 -0.1942
   35DOPE    C2 4405   6.989   3.462  12.988 -0.2502  0.1726 -0.7516
   35DOPE    HS 4406   6.958   3.567  12.972 -0.5466  0.6996  2.5975
   35DOPE   O21 4407   7.070   3.426  13.101  0.5628  0.0436  0.0108
   35DOPE   C21 4408   7.101   3.528  13.182 -0.9545  0.7718 -0.0719
   35DOPE   O22 4409   7.066   3.642  13.162  0.1115  0.3931  0.1540
   35DOPE   C22 4410   7.197   3.478  13.293  0.0736  0.1792 -0.2093
   35DOPE   H2R 4411   7.298   3.491  13.249  0.3476 -0.5836  0.1755
   35DOPE   H2S 4412   7.176   3.372  13.321  1.7686 -0.2084 -0.2744
   35DOPE    C3 4413   6.853   3.395  13.008 -0.4960 -0.6196  0.1440
   35DOPE    HX 4414   6.873   3.286  13.018 -0.4802 -0.6662 -0.3659
   35DOPE    HY 4415   6.797   3.423  12.916 -0.3358 -0.5607  0.0644
   35DOPE   O31 4416   6.796   3.449  13.123 -0.2895 -0.2210  0.1390
   35DOPE   C31 4417   6.668   3.489  13.123  0.1687  0.2692  0.4803
   35DOPE   O32 4418   6.589   3.475  13.031  0.5760 -0.5342  0.1338
   35DOPE   C32 4419   6.635   3.558  13.255  0.0070  0.4700 -0.0153
   35DOPE   H2X 4420   6.722   3.626  13.270  1.2874 -1.0903 -0.1457
   35DOPE   H2Y 4421   6.536   3.608  13.242 -0.0233  1.2712  2.6483
   35DOPE   C23 4422   7.192   3.566  13.416  0.0006  0.0817  0.5259
   35DOPE   H3R 4423   7.139   3.660  13.391 -0.2821 -0.3893 -0.7394
   35DOPE   H3S 4424   7.299   3.591  13.433 -0.0504  1.4798 -0.9486
   35DOPE   C24 4425   7.135   3.491  13.541 -0.0782 -0.2411  0.5854
   35DOPE   H4R 4426   7.149   3.566  13.622  1.1255  1.6010 -1.2394
   35DOPE   H4S 4427   7.190   3.397  13.564  1.7389  0.1415 -1.7490
   35DOPE   C25 4428   6.990   3.451  13.516 -0.3225  0.0300  0.7952
   35DOPE   H5R 4429   6.978   3.379  13.432 -1.4955 -1.6379  2.3247
   35DOPE   H5S 4430   6.933   3.544  13.496 -0.1143  0.5443  2.4984
   35DOPE   C26 4431   6.917   3.389  13.636 -1.0873  0.0579  0.0180
   35DOPE   H6R 4432   6.982   3.310  13.678 -1.7949 -0.3791  0.3125
   35DOPE   H6S 4433   6.829   3.327  13.608 -1.1926  0.3450 -0.2988
   35DOPE   C27 4434   6.888   3.494  13.740  0.1652 -0.3640 -0.4635
   35DOPE   H7R 4435   6.842   3.583  13.692 -1.8005 -0.8640  0.3823
   35DOPE   H7S 4436   6.980   3.533  13.788  0.0138 -0.0899 -0.3932
   35DOPE   C28 4437   6.780   3.454  13.840  0.4030  0.1688  0.0675
   35DOPE   H8R 4438   6.695   3.408  13.785  0.2105  0.3560  0.2059
   35DOPE   H8S 4439   6.737   3.538  13.898  0.5644  2.2816 -2.6737
   35DOPE   C29 4440   6.839   3.356  13.938  0.5440 -0.3559 -0.0123
   35DOPE   H9R 4441   6.880   3.268  13.885 -0.5908 -0.1833 -1.2462
   35DOPE  C210 4442   6.827   3.351  14.075  0.4504 -0.1091 -0.4138
   35DOPE  H10R 4443   6.888   3.283  14.136 -1.2698 -0.3881  1.0496
   35DOPE  C211 4444   6.761   3.461  14.154 -0.4037  0.4136  0.2770
   35DOPE  H11R 4445   6.658   3.467  14.113 -0.5550 -0.5591  0.4846
   35DOPE  H11S 4446   6.811   3.559  14.139 -0.8297  0.7223  0.8478
   35DOPE  C212 4447   6.737   3.427  14.301  0.4332 -0.5000 -0.3310
   35DOPE  H12R 4448   6.728   3.529  14.344  2.1965 -0.2076 -0.5574
   35DOPE  H12S 4449   6.827   3.371  14.335 -0.5217 -0.8680  1.7016
   35DOPE  C213 4450   6.612   3.333  14.326  0.1130 -0.0476  0.6634
   35DOPE  H13R 4451   6.617   3.254  14.248  1.3023  0.0109  0.6601
   35DOPE  H13S 4452   6.520   3.388  14.300  1.3503  2.1638  0.7271
   35DOPE  C214 4453   6.605   3.255  14.451  0.3141  0.0030  0.2574
   35DOPE  H14R 4454   6.705   3.259  14.500 -0.9562 -0.2396  3.1159
   35DOPE  H14S 4455   6.575   3.151  14.429  1.0034  0.1720 -1.6595
   35DOPE  C215 4456   6.516   3.309  14.570 -0.1905  0.0772 -0.1115
   35DOPE  H15R 4457   6.418   3.343  14.531  0.1602  1.0296 -0.1790
   35DOPE  H15S 4458   6.566   3.399  14.611  0.1344  0.0521 -0.4399
   35DOPE  C216 4459   6.477   3.201  14.681 -0.1413 -0.3913  0.5685
   35DOPE  H16R 4460   6.435   3.116  14.623 -0.1735  0.2375 -0.3502
   35DOPE  H16S 4461   6.402   3.244  14.750 -1.6568 -0.0073 -1.2508
   35DOPE  C217 4462   6.604   3.164  14.760 -0.3351  0.1548 -0.0914
   35DOPE  H17R 4463   6.634   3.245  14.830 -0.2084 -0.8339  1.0360
   35DOPE  H17S 4464   6.682   3.144  14.683 -1.2414 -0.4042 -0.8852
   35DOPE  C218 4465   6.611   3.043  14.854  0.1238 -0.1050 -0.0259
   35DOPE  H18R 4466   6.585   3.070  14.959  2.1813  1.8925  0.0684
   35DOPE  H18S 4467   6.711   2.995  14.861  0.7653  1.3496  1.3545
   35DOPE  H18T 4468   6.542   2.966  14.815 -0.4831  0.9992 -1.1619
   35DOPE   C33 4469   6.636   3.462  13.381  0.3765 -0.1558  0.3865
   35DOPE   H3X 4470   6.628   3.520  13.475  0.8429  2.7870 -1.2565
   35DOPE   H3Y 4471   6.740   3.423  13.379  0.0040 -1.2528  1.3035
   35DOPE   C34 4472   6.531   3.354  13.377  0.6736 -0.1056 -0.2422
   35DOPE   H4X 4473   6.427   3.392  13.380 -0.5324 -3.0271 -1.4578
   35DOPE   H4Y 4474   6.543   3.281  13.294  0.8484 -0.2255 -0.1136
   35DOPE   C35 4475   6.535   3.260  13.496  1.0003  0.5151  0.0090
   35DOPE   H5X 4476   6.639   3.247  13.535  0.5859  1.6191  1.5931
   35DOPE   H5Y 4477   6.498   3.158  13.473 -2.2198  0.8633  2.8154
   35DOPE   C36 4478   6.444   3.312  13.612 -0.3180  0.4905 -0.3277
   35DOPE   H6X 4479   6.343   3.332  13.571 -0.8195  0.6094  0.9141
   35DOPE   H6Y 4480   6.468   3.414  13.650 -0.0127  0.1409  0.4182
   35DOPE   C37 4481   6.424   3.210  13.720  0.5839  0.6985 -0.7782
   35DOPE   H7X 4482   6.410   3.108  13.679  5.2914 -0.5655  0.1238
   35DOPE   H7Y 4483   6.514   3.182  13.780 -0.0463 -0.8203 -0.4832
   35DOPE   C38 4484   6.296   3.238  13.794 -0.3246 -0.0060 -0.7532
   35DOPE   H8X 4485   6.267   3.156  13.863 -0.4584  1.3264  0.8386
   35DOPE   H8Y 4486   6.219   3.265  13.719  1.3533  1.0995 -2.1571
   35DOPE   C39 4487   6.314   3.356  13.879 -0.0366  0.1178 -0.0274
   35DOPE   H9X 4488   6.309   3.453  13.827 -3.7222 -0.2307 -0.6193
   35DOPE  C310 4489   6.332   3.358  14.013  0.4307  0.1744  0.0647
   35DOPE  H10X 4490   6.355   3.453  14.064 -1.1702  1.2080 -1.0169
   35DOPE  C311 4491   6.333   3.242  14.104  0.2113 -0.1076 -0.0193
   35DOPE  H11X 4492   6.352   3.143  14.058 -1.9141 -1.2822  1.4345
   35DOPE  H11Y 4493   6.419   3.261  14.172  0.7739  0.7006 -0.9263
   35DOPE  C312 4494   6.223   3.249  14.212  0.2758  0.1440 -0.6644
   35DOPE  H12X 4495   6.120   3.268  14.175 -1.3160 -1.8309  2.3693
   35DOPE  H12Y 4496   6.250   3.332  14.280  1.0185 -0.8588  0.2787
   35DOPE  C313 4497   6.212   3.121  14.302  0.0502 -0.4669 -0.2543
   35DOPE  H13X 4498   6.310   3.096  14.348  0.4151 -0.9876 -1.2637
   35DOPE  H13Y 4499   6.151   3.153  14.389  1.0471 -1.4844  0.8658
   35DOPE  C314 4500   6.161   2.993  14.241 -0.6925  0.1659 -0.3458
   35DOPE  H14X 4501   6.214   2.985  14.144  2.7438  1.7593  1.2365
   35DOPE  H14Y 4502   6.056   3.000  14.207  0.0517  0.5637 -2.7595
   35DOPE  C315 4503   6.178   2.863  14.320 -0.0966 -0.6144  0.2067
   35DOPE  H15X 4504   6.114   2.874  14.410 -1.9054 -0.7793 -0.9960
   35DOPE  H15Y 4505   6.286   2.855  14.346  0.7268  2.0224 -1.9909
   35DOPE  C316 4506   6.133   2.742  14.244 -0.3110  0.4220  0.2506
   35DOPE  H16X 4507   6.224   2.719  14.185 -0.2907  2.2741 -0.5280
   35DOPE  H16Y 4508   6.044   2.771  14.184 -1.3477  1.1702  2.0730
   35DOPE  C317 4509   6.097   2.623  14.334 -0.5753 -0.2077 -0.4976
   35DOPE  H17X 4510   6.073   2.645  14.440  1.3710 -2.0620  0.4020
   35DOPE  H17Y 4511   6.004   2.574  14.298 -0.8713 -0.2008  0.2498
   35DOPE  C318 4512   6.208   2.518  14.344 -0.3767  0.3938 -0.2574
   35DOPE  H18X 4513   6.184   2.436  14.415  1.5241 -0.3769 -0.4379
   35DOPE  H18Y 4514   6.226   2.470  14.245  2.0982 -0.8822  0.7066
   35DOPE  H18Z 4515   6.309   2.559  14.369 -0.3182 -0.4287  0.9614
   36DOPE     N 4516   0.309   4.013  12.544  0.0471  0.0082  0.1580
   36DOPE   HN1 4517   0.283   4.044  12.448 -1.5249  0.1242  0.5941
   36DOPE   HN2 4518   0.227   3.972  12.593 -0.7180  0.8691 -0.3746
   36DOPE   HN3 4519   0.339   4.099  12.594  0.1934  0.4475 -0.6627
   36DOPE   C12 4520   0.415   3.904  12.521  0.0910  0.0641 -0.7541
   36DOPE  H12A 4521   0.507   3.946  12.476  0.8084  1.7006  1.9855
   36DOPE  H12B 4522   0.374   3.828  12.451  1.5875 -1.9454  0.4225
   36DOPE   C11 4523   0.453   3.836  12.656  0.0012 -0.1018  0.4072
   36DOPE  H11A 4524   0.360   3.802  12.706 -1.1029 -1.1908 -2.1873
   36DOPE  H11B 4525   0.509   3.903  12.725  0.7122  0.2494 -0.4934
   36DOPE     P 4526   0.685   3.725  12.611 -0.3020  0.2205  0.1820
   36DOPE   O13 4527   0.720   3.840  12.525  0.0828 -0.4868 -0.2545
   36DOPE   O14 4528   0.726   3.589  12.560  0.4692 -0.4333 -0.2341
   36DOPE   O11 4529   0.739   3.749  12.760 -0.5347 -0.0054 -1.1336
   36DOPE   O12 4530   0.533   3.726  12.619  0.1941 -0.2010 -0.6062
   36DOPE    C1 4531   0.711   3.647  12.858 -0.3089 -0.5529 -0.1687
   36DOPE    HA 4532   0.808   3.624  12.907 -0.9021  0.2998  1.5120
   36DOPE    HB 4533   0.678   3.556  12.804  2.0161 -1.8481  0.4530
   36DOPE    C2 4534   0.609   3.705  12.962 -0.2157 -0.1558  0.3175
   36DOPE    HS 4535   0.517   3.732  12.906 -0.6546  0.2262  1.1932
   36DOPE   O21 4536   0.668   3.810  13.043 -0.2366  0.4152 -0.0670
   36DOPE   C21 4537   0.590   3.921  13.071 -0.1258 -0.1850 -0.1463
   36DOPE   O22 4538   0.487   3.946  13.014 -0.7368 -0.0410  0.4959
   36DOPE   C22 4539   0.644   4.002  13.186  0.4102 -0.5967  0.0965
   36DOPE   H2R 4540   0.594   4.101  13.189  0.8907 -0.3643  0.9918
   36DOPE   H2S 4541   0.746   4.010  13.143  0.7863 -3.1569  0.3311
   36DOPE    C3 4542   0.547   3.597  13.051  0.4502  0.7644  0.0210
   36DOPE    HX 4543   0.626   3.541  13.104 -0.7826 -0.6977  0.3665
   36DOPE    HY 4544   0.506   3.517  12.985 -0.5827  1.4744 -0.2235
   36DOPE   O31 4545   0.443   3.648  13.143  0.2940 -0.6117  0.6028
   36DOPE   C31 4546   0.318   3.661  13.077 -0.0902 -0.4510  0.4434
   36DOPE   O32 4547   0.297   3.624  12.963  0.0076 -0.4569 -0.1858
   36DOPE   C32 4548   0.215   3.720  13.175  0.6436 -0.5356  0.0321
   36DOPE   H2X 4549   0.121   3.741  13.120  0.6845  1.8515  0.7603
   36DOPE   H2Y 4550   0.207   3.649  13.260  1.4534  0.4854  0.9985
   36DOPE   C23 4551   0.671   3.941  13.325 -0.3282  0.1043  0.2977
   36DOPE   H3R 4552   0.700   3.834  13.328 -0.6342  0.0193  0.2933
   36DOPE   H3S 4553   0.589   3.952  13.399  0.9561  0.0230  1.7754
   36DOPE   C24 4554   0.785   4.012  13.388 -0.1756  0.0583 -0.1122
   36DOPE   H4R 4555   0.856   4.048  13.310 -1.6158  1.4741 -0.8420
   36DOPE   H4S 4556   0.834   3.949  13.465  2.6508 -0.6079 -2.2594
   36DOPE   C25 4557   0.745   4.151  13.453  0.0117  0.3252 -0.1977
   36DOPE   H5R 4558   0.673   4.206  13.389 -0.6064  0.5221  0.6550
   36DOPE   H5S 4559   0.837   4.207  13.479  1.5645 -2.2112  0.1876
   36DOPE   C26 4560   0.662   4.130  13.578 -0.4600  0.0048  0.5102
   36DOPE   H6R 4561   0.703   4.057  13.650  0.1112 -0.0576  0.1319
   36DOPE   H6S 4562   0.565   4.081  13.555  1.5614 -3.0908 -2.3768
   36DOPE   C27 4563   0.644   4.272  13.651  0.2642  0.7039  0.2119
   36DOPE   H7R 4564   0.587   4.338  13.583 -0.2446 -1.1872 -1.2644
   36DOPE   H7S 4565   0.749   4.309  13.660 -0.0548  1.4585  1.0428
   36DOPE   C28 4566   0.569   4.267  13.782  0.0158 -0.2714  0.1863
   36DOPE   H8R 4567   0.464   4.235  13.762  0.3109 -0.8781 -0.3960
   36DOPE   H8S 4568   0.556   4.368  13.827  2.9753  0.7003 -0.9322
   36DOPE   C29 4569   0.630   4.167  13.880 -0.2866 -0.0814 -0.0429
   36DOPE   H9R 4570   0.622   4.062  13.850  1.1684 -0.0583 -0.6010
   36DOPE  C210 4571   0.696   4.187  13.994 -0.6202 -0.5507  0.4627
   36DOPE  H10R 4572   0.732   4.104  14.057  0.4594  0.0085  0.6047
   36DOPE  C211 4573   0.737   4.325  14.057  0.1340  0.4136  0.5720
   36DOPE  H11R 4574   0.711   4.405  13.986 -0.5320 -0.5232 -0.2702
   36DOPE  H11S 4575   0.848   4.330  14.059  0.2920 -1.9713  0.6411
   36DOPE  C212 4576   0.669   4.374  14.185 -0.3251 -0.1744 -0.5274
   36DOPE  H12R 4577   0.679   4.298  14.265  0.3707 -0.7234 -1.1313
   36DOPE  H12S 4578   0.563   4.398  14.160 -0.1367  0.7607 -0.4936
   36DOPE  C213 4579   0.724   4.504  14.241 -0.0847 -0.5801  0.8530
   36DOPE  H13R 4580   0.721   4.591  14.173 -1.6848  0.0849  1.7000
   36DOPE  H13S 4581   0.826   4.486  14.279 -0.2505  1.1310  2.2342
   36DOPE  C214 4582   0.638   4.534  14.369  0.1509  0.2632 -0.1499
   36DOPE  H14R 4583   0.653   4.446  14.435  0.1241  1.4806  1.5306
   36DOPE  H14S 4584   0.530   4.521  14.347  0.0169  0.2502  0.5188
   36DOPE  C215 4585   0.673   4.670  14.439 -0.4245 -0.9146 -0.4687
   36DOPE  H15R 4586   0.589   4.698  14.505 -0.8289  0.5415 -1.5487
   36DOPE  H15S 4587   0.661   4.748  14.361 -0.9349 -1.5641 -1.0476
   36DOPE  C216 4588   0.812   4.677  14.492  0.8607  0.0703 -0.5409
   36DOPE  H16R 4589   0.893   4.669  14.417  1.1895  2.3000 -0.4808
   36DOPE  H16S 4590   0.843   4.595  14.560  0.2300 -0.5408 -0.9759
   36DOPE  C217 4591   0.846   4.813  14.564  0.4932 -0.7351 -0.3932
   36DOPE  H17R 4592   0.765   4.837  14.635  2.3220  0.8595  1.2971
   36DOPE  H17S 4593   0.844   4.886  14.480 -3.4356  0.2461  0.3669
   36DOPE  C218 4594   0.980   4.824  14.629  0.2905  0.5462 -0.3806
   36DOPE  H18R 4595   1.001   4.922  14.677  0.7679  0.7933 -1.0722
   36DOPE  H18S 4596   1.055   4.812  14.548 -0.5181 -0.0473 -1.0581
   36DOPE  H18T 4597   1.000   4.743  14.701  1.6348  1.0648 -0.1418
   36DOPE   C33 4598   0.260   3.856  13.241 -0.1763 -0.1243 -0.2139
   36DOPE   H3X 4599   0.284   3.938  13.170  1.0212  0.2887  0.6440
   36DOPE   H3Y 4600   0.346   3.833  13.307  1.0999 -1.2104 -2.1478
   36DOPE   C34 4601   0.137   3.910  13.327 -0.6608 -0.3488 -0.5579
   36DOPE   H4X 4602   0.053   3.922  13.254 -2.0059 -1.5507  0.7145
   36DOPE   H4Y 4603   0.110   3.825  13.394 -0.6527  0.5912  0.6724
   36DOPE   C35 4604   0.168   4.038  13.403 -0.4387 -0.1688  0.1985
   36DOPE   H5X 4605   0.081   4.072  13.462 -0.7334 -1.6289  0.6469
   36DOPE   H5Y 4606   0.195   4.112  13.324 -1.5961 -1.0955 -1.1064
   36DOPE   C36 4607   0.274   4.032  13.518  1.3747  0.1191 -0.7295
   36DOPE   H6X 4608   0.262   4.132  13.565  0.7649  0.0657 -0.7541
   36DOPE   H6Y 4609   0.377   4.029  13.477  2.5653 -0.3163  2.0491
   36DOPE   C37 4610   0.259   3.916  13.612 -0.2068 -0.0714 -0.3007
   36DOPE   H7X 4611   0.151   3.904  13.636 -0.2219 -0.2149 -0.4386
   36DOPE   H7Y 4612   0.281   3.821  13.560 -0.1735 -1.6473  2.4192
   36DOPE   C38 4613   0.339   3.941  13.740  0.2392  0.1251 -0.0967
   36DOPE   H8X 4614   0.311   4.041  13.777  0.5868 -0.4371  1.8008
   36DOPE   H8Y 4615   0.449   3.947  13.722  0.2448  0.4182  0.0402
   36DOPE   C39 4616   0.331   3.832  13.844  0.9528 -0.3894 -0.3472
   36DOPE   H9X 4617   0.354   3.730  13.811 -0.3316 -1.3646  1.6265
   36DOPE  C310 4618   0.295   3.848  13.973  0.6245  0.7800 -0.2450
   36DOPE  H10X 4619   0.280   3.755  14.030  1.3335  0.0085 -1.2731
   36DOPE  C311 4620   0.241   3.970  14.042 -0.2951  0.6946 -0.2519
   36DOPE  H11X 4621   0.304   4.004  14.126 -0.3280  1.9151 -0.7037
   36DOPE  H11Y 4622   0.236   4.047  13.962 -0.1556  1.3168  0.3263
   36DOPE  C312 4623   0.096   3.961  14.095  0.1148 -0.2109 -0.1907
   36DOPE  H12X 4624   0.020   3.915  14.029 -0.0036 -2.0200  1.1394
   36DOPE  H12Y 4625   0.071   4.069  14.108  1.7256 -0.0080  1.5584
   36DOPE  C313 4626   0.079   3.885  14.224 -0.3183 -0.2668  0.0020
   36DOPE  H13X 4627   0.151   3.801  14.236  1.5877  1.2780 -0.2392
   36DOPE  H13Y 4628   0.099   3.956  14.307 -0.6906  1.0693 -1.0159
   36DOPE  C314 4629  -0.061   3.837  14.251  0.1156  0.1589 -0.0469
   36DOPE  H14X 4630  -0.095   3.753  14.186 -0.4081  1.0668 -0.9694
   36DOPE  H14Y 4631  -0.123   3.926  14.231  3.2296  2.0091 -2.1812
   36DOPE  C315 4632  -0.073   3.796  14.406  0.7771 -0.0541  0.3678
   36DOPE  H15X 4633  -0.060   3.885  14.472 -2.8668 -0.3041  1.6910
   36DOPE  H15Y 4634   0.015   3.735  14.436 -0.2014 -1.1845  1.0297
   36DOPE  C316 4635  -0.202   3.721  14.447 -0.0506 -0.4229 -0.0210
   36DOPE  H16X 4636  -0.200   3.618  14.403  0.2783 -0.4420  0.0361
   36DOPE  H16Y 4637  -0.285   3.773  14.395 -0.6520 -0.8839  0.4712
   36DOPE  C317 4638  -0.220   3.689  14.598 -0.1444  0.0467  0.9361
   36DOPE  H17X 4639  -0.293   3.606  14.612 -1.0753  0.7459  0.2674
   36DOPE  H17Y 4640  -0.123   3.657  14.643  0.1973  0.4216  0.4788
   36DOPE  C318 4641  -0.269   3.810  14.668 -0.6934  0.0448 -0.4344
   36DOPE  H18X 4642  -0.280   3.787  14.776 -0.3076  1.1533 -0.1383
   36DOPE  H18Y 4643  -0.197   3.894  14.661 -0.6538  0.1437  0.8571
   36DOPE  H18Z 4644  -0.371   3.843  14.638 -0.9126 -0.9172 -0.7838
   37DOPE     N 4645   2.997   2.100  12.460 -0.0933  0.5600  0.9898
   37DOPE   HN1 4646   3.029   2.167  12.387  0.1718  1.3760  1.8342
   37DOPE   HN2 4647   2.966   2.143  12.550  0.5651 -0.3696  1.6857
   37DOPE   HN3 4648   3.082   2.043  12.477  1.6436  2.6355 -0.2588
   37DOPE   C12 4649   2.900   1.995  12.397 -0.0268  0.4791  0.3631
   37DOPE  H12A 4650   2.955   1.953  12.310 -2.7631  0.5312 -1.5232
   37DOPE  H12B 4651   2.822   2.062  12.354 -0.7052  0.1001  0.9800
   37DOPE   C11 4652   2.848   1.895  12.499  0.2534 -0.0190  1.1393
   37DOPE  H11A 4653   2.799   1.811  12.446  0.9768 -0.2317  0.8047
   37DOPE  H11B 4654   2.781   1.954  12.565 -0.2574  0.2008  0.4354
   37DOPE     P 4655   2.979   1.859  12.732  0.0591 -0.4992 -0.1921
   37DOPE   O13 4656   3.003   2.002  12.751 -0.2098  0.2525 -0.2668
   37DOPE   O14 4657   3.096   1.773  12.764  0.8894 -0.0887 -0.1543
   37DOPE   O11 4658   2.857   1.808  12.808  0.6223  0.6076  0.3931
   37DOPE   O12 4659   2.958   1.841  12.573 -0.8277  0.1597  0.1520
   37DOPE    C1 4660   2.773   1.907  12.875  0.2412 -0.3840 -0.5249
   37DOPE    HA 4661   2.669   1.875  12.851  0.0013  0.4275 -0.6128
   37DOPE    HB 4662   2.780   2.007  12.827 -0.4867 -0.2814 -0.4377
   37DOPE    C2 4663   2.808   1.905  13.030  1.1466  0.9463 -0.1163
   37DOPE    HS 4664   2.900   1.967  13.037  0.9114  1.3444 -0.5274
   37DOPE   O21 4665   2.819   1.768  13.070  0.5767  0.6837  0.1530
   37DOPE   C21 4666   2.915   1.752  13.164 -0.2069 -0.4291  0.4413
   37DOPE   O22 4667   2.996   1.839  13.202  1.0209  0.5856  0.1367
   37DOPE   C22 4668   2.904   1.616  13.216 -0.0144  0.4473  0.7363
   37DOPE   H2R 4669   2.926   1.540  13.138  0.3016  0.8052  0.4765
   37DOPE   H2S 4670   2.806   1.596  13.265 -0.1640  0.3426  0.4019
   37DOPE    C3 4671   2.693   1.966  13.115 -0.1003 -0.4766 -0.2368
   37DOPE    HX 4672   2.592   1.923  13.100 -0.0127 -1.1274  0.9312
   37DOPE    HY 4673   2.684   2.062  13.060  1.6803  0.5806  1.2281
   37DOPE   O31 4674   2.725   1.993  13.254 -0.2088  0.0066 -0.2325
   37DOPE   C31 4675   2.674   1.889  13.334 -0.3098 -0.2352 -0.2378
   37DOPE   O32 4676   2.621   1.791  13.295 -1.0470  0.2875  0.3695
   37DOPE   C32 4677   2.685   1.928  13.481 -0.1072  0.0728  0.4226
   37DOPE   H2X 4678   2.752   2.016  13.490  2.2860 -1.3475 -1.9932
   37DOPE   H2Y 4679   2.582   1.958  13.509 -1.2031 -2.1396 -0.8886
   37DOPE   C23 4680   3.012   1.580  13.313 -0.7876 -0.0341  0.3949
   37DOPE   H3R 4681   3.029   1.664  13.384 -1.0145 -1.2334  1.9083
   37DOPE   H3S 4682   3.105   1.557  13.256 -1.3318  0.0662 -0.5430
   37DOPE   C24 4683   2.980   1.456  13.398  0.1797 -0.9240  0.1710
   37DOPE   H4R 4684   2.973   1.365  13.335 -1.3761 -1.0979  0.5643
   37DOPE   H4S 4685   2.884   1.466  13.454 -0.0870 -2.4329  0.0172
   37DOPE   C25 4686   3.096   1.421  13.497  0.5138 -0.1145 -0.1966
   37DOPE   H5R 4687   3.129   1.519  13.538  0.4305  0.9023 -2.4040
   37DOPE   H5S 4688   3.177   1.397  13.425 -0.3142 -1.7872 -0.6231
   37DOPE   C26 4689   3.087   1.316  13.602 -0.0929  0.8967 -0.0765
   37DOPE   H6R 4690   3.182   1.319  13.660 -0.1925 -2.6280  0.4723
   37DOPE   H6S 4691   3.069   1.214  13.562 -1.9559  0.7345  1.0508
   37DOPE   C27 4692   2.995   1.355  13.717 -0.3050  0.8390  0.7241
   37DOPE   H7R 4693   2.899   1.345  13.662  0.6027 -0.2492 -0.7436
   37DOPE   H7S 4694   3.008   1.464  13.734  1.5789  0.9930 -1.2765
   37DOPE   C28 4695   3.014   1.266  13.844  0.4220  0.3172  0.3299
   37DOPE   H8R 4696   3.024   1.160  13.811  2.8901  0.8176 -0.7526
   37DOPE   H8S 4697   2.912   1.272  13.887  0.8542  0.5894  1.3464
   37DOPE   C29 4698   3.126   1.308  13.936 -0.6761  0.7958 -0.2666
   37DOPE   H9R 4699   3.218   1.343  13.887 -1.4287  4.3262  0.5636
   37DOPE  C210 4700   3.114   1.313  14.073  0.6062 -0.3810  0.3804
   37DOPE  H10R 4701   3.194   1.365  14.127  0.4741 -0.6807  0.8745
   37DOPE  C211 4702   3.003   1.284  14.169 -0.8925  0.5752  0.4357
   37DOPE  H11R 4703   2.930   1.209  14.131 -0.8726  1.2901 -1.0613
   37DOPE  H11S 4704   2.944   1.378  14.170 -4.3620 -1.4186  1.4308
   37DOPE  C212 4705   3.058   1.242  14.305  0.8973  1.0189  0.1654
   37DOPE  H12R 4706   3.114   1.324  14.354 -0.6254  0.4998  3.0178
   37DOPE  H12S 4707   3.128   1.156  14.293  0.6481  0.3821  2.6513
   37DOPE  C213 4708   2.951   1.189  14.402 -0.5284 -0.0922 -0.3065
   37DOPE  H13R 4709   2.857   1.171  14.346  0.3227 -1.7455 -1.2888
   37DOPE  H13S 4710   2.946   1.271  14.477  0.7901  0.4407 -0.7652
   37DOPE  C214 4711   2.986   1.051  14.467  0.6492  1.1190 -0.3693
   37DOPE  H14R 4712   3.080   1.044  14.526  0.8943 -0.7324 -0.9217
   37DOPE  H14S 4713   2.998   0.976  14.386  0.5350  1.6181 -0.8545
   37DOPE  C215 4714   2.865   1.003  14.556 -0.5077  0.1434  0.4113
   37DOPE  H15R 4715   2.781   0.985  14.487  0.6256  1.2016 -1.3142
   37DOPE  H15S 4716   2.843   1.085  14.629  1.3793  0.5762  0.5543
   37DOPE  C216 4717   2.888   0.865  14.619 -0.1325  0.4042  0.0815
   37DOPE  H16R 4718   2.981   0.865  14.680 -0.7036  0.3990  0.9724
   37DOPE  H16S 4719   2.895   0.789  14.539 -0.2747  0.3758  0.0953
   37DOPE  C217 4720   2.770   0.822  14.711 -0.4389  0.6048 -0.3281
   37DOPE  H17R 4721   2.672   0.822  14.659 -0.6996  0.8560  0.1564
   37DOPE  H17S 4722   2.757   0.896  14.793  1.4638 -0.2507  0.8221
   37DOPE  C218 4723   2.806   0.688  14.768  0.1627  0.8904  0.1030
   37DOPE  H18R 4724   2.756   0.654  14.862  1.5687 -2.0490 -0.0875
   37DOPE  H18S 4725   2.914   0.688  14.796  0.0349  0.7112  0.6057
   37DOPE  H18T 4726   2.818   0.619  14.682  1.1587  3.1061 -1.6186
   37DOPE   C33 4727   2.753   1.811  13.551 -0.7285  0.4254  0.9897
   37DOPE   H3X 4728   2.863   1.803  13.532 -0.5684  2.2093  1.0701
   37DOPE   H3Y 4729   2.693   1.718  13.537 -1.2565  0.5834  2.0899
   37DOPE   C34 4730   2.748   1.833  13.704  0.5118 -0.4189 -0.9196
   37DOPE   H4X 4731   2.778   1.935  13.733  0.7652 -0.3049 -1.5441
   37DOPE   H4Y 4732   2.641   1.829  13.733  1.2583 -0.2595  2.1792
   37DOPE   C35 4733   2.818   1.726  13.783  0.4913 -0.0312  0.3091
   37DOPE   H5X 4734   2.918   1.714  13.736  0.4721  2.2825 -0.4722
   37DOPE   H5Y 4735   2.767   1.628  13.774 -0.7905  0.5054  1.3887
   37DOPE   C36 4736   2.828   1.758  13.931 -0.0463 -0.3490 -0.2440
   37DOPE   H6X 4737   2.720   1.769  13.959 -0.9413 -2.1046 -2.6663
   37DOPE   H6Y 4738   2.885   1.853  13.928 -1.0309  0.2336 -0.9684
   37DOPE   C37 4739   2.899   1.658  14.017 -0.7341  0.0269 -0.1039
   37DOPE   H7X 4740   2.870   1.558  13.979 -0.7686 -0.9712  2.3798
   37DOPE   H7Y 4741   3.007   1.675  13.997 -0.7413 -1.4404 -1.5472
   37DOPE   C38 4742   2.889   1.669  14.165 -0.1552  0.0972  0.4692
   37DOPE   H8X 4743   2.917   1.572  14.211  0.9239  0.8749  1.5318
   37DOPE   H8Y 4744   2.786   1.702  14.189 -0.2259  1.3572 -1.3407
   37DOPE   C39 4745   2.972   1.777  14.226  0.2218 -0.2852 -0.6008
   37DOPE   H9X 4746   2.952   1.879  14.190  3.0427 -0.1272 -2.0228
   37DOPE  C310 4747   3.089   1.757  14.290  0.2634  0.0014 -0.1788
   37DOPE  H10X 4748   3.138   1.848  14.328 -1.6209  1.0613 -0.1625
   37DOPE  C311 4749   3.151   1.623  14.313  0.6593  0.3266  0.2985
   37DOPE  H11X 4750   3.077   1.548  14.349 -1.2006  2.1639  0.5018
   37DOPE  H11Y 4751   3.197   1.591  14.217  0.0347 -2.8038  0.9296
   37DOPE  C312 4752   3.257   1.639  14.429  0.4848 -0.0243  0.1456
   37DOPE  H12X 4753   3.203   1.682  14.516  0.0655 -1.0611  0.4137
   37DOPE  H12Y 4754   3.335   1.709  14.392  2.9009 -2.4168  0.4046
   37DOPE  C313 4755   3.322   1.505  14.460 -0.2113 -0.5298 -0.8589
   37DOPE  H13X 4756   3.257   1.419  14.485 -0.5953 -0.5083 -1.7315
   37DOPE  H13Y 4757   3.378   1.465  14.373 -1.6012 -1.2679 -1.4396
   37DOPE  C314 4758   3.415   1.515  14.584  0.9920 -0.3513 -0.0080
   37DOPE  H14X 4759   3.367   1.537  14.682  0.5002 -0.5389 -0.2061
   37DOPE  H14Y 4760   3.489   1.595  14.564  1.0804 -0.5636 -0.5268
   37DOPE  C315 4761   3.492   1.382  14.598 -0.2910  0.4430  0.0057
   37DOPE  H15X 4762   3.510   1.337  14.498  1.0814  2.3081 -0.6587
   37DOPE  H15Y 4763   3.419   1.317  14.650  0.3156 -1.2345 -1.1718
   37DOPE  C316 4764   3.627   1.394  14.673 -0.8643 -0.3831 -0.5627
   37DOPE  H16X 4765   3.608   1.420  14.779  0.7874 -1.6425  0.0954
   37DOPE  H16Y 4766   3.702   1.468  14.637 -0.5448 -0.1865  0.4581
   37DOPE  C317 4767   3.718   1.270  14.683 -0.4293  0.2757 -0.3213
   37DOPE  H17X 4768   3.647   1.192  14.718 -1.0621  0.7168 -0.6006
   37DOPE  H17Y 4769   3.763   1.254  14.583 -1.8848 -2.0080 -0.6884
   37DOPE  C318 4770   3.820   1.290  14.791  0.1615 -0.3110  0.3864
   37DOPE  H18X 4771   3.851   1.193  14.836  2.2995 -0.4262 -1.2145
   37DOPE  H18Y 4772   3.910   1.341  14.751 -0.8891  0.7283 -0.7415
   37DOPE  H18Z 4773   3.777   1.355  14.871 -0.7659 -1.6467  1.0010
   38DOPE     N 4774   0.113   4.800  12.366 -0.2373 -0.4186 -0.3044
   38DOPE   HN1 4775   0.099   4.698  12.381  2.2666 -0.6569  1.0446
   38DOPE   HN2 4776   0.067   4.845  12.448 -0.9740  1.0425 -1.4820
   38DOPE   HN3 4777   0.059   4.828  12.282  1.9157  0.9427 -1.3359
   38DOPE   C12 4778   0.259   4.832  12.346  0.7005 -0.1997  0.3685
   38DOPE  H12A 4779   0.268   4.938  12.316  0.0653 -0.4672 -0.8445
   38DOPE  H12B 4780   0.288   4.770  12.258 -1.4274 -1.6579  0.6138
   38DOPE   C11 4781   0.342   4.786  12.467  0.0238 -0.3268 -0.3763
   38DOPE  H11A 4782   0.290   4.828  12.555  0.2484  2.1544 -1.3426
   38DOPE  H11B 4783   0.444   4.829  12.465  1.1454 -2.8076 -0.4556
   38DOPE     P 4784   0.441   4.585  12.603 -0.5705 -0.5228  0.0506
   38DOPE   O13 4785   0.584   4.590  12.560 -0.0903  0.1609 -0.1105
   38DOPE   O14 4786   0.382   4.452  12.627 -0.0883 -0.1982 -0.1030
   38DOPE   O11 4787   0.428   4.687  12.723  0.5128 -0.4329 -0.6507
   38DOPE   O12 4788   0.364   4.644  12.484 -0.0496 -0.9922  0.0542
   38DOPE    C1 4789   0.296   4.712  12.782  0.7865 -0.0653  0.4153
   38DOPE    HA 4790   0.211   4.665  12.729  1.5144 -1.7320  0.6846
   38DOPE    HB 4791   0.286   4.821  12.803  1.4298  0.7836 -3.0305
   38DOPE    C2 4792   0.298   4.641  12.914  0.0468 -0.9888  0.4736
   38DOPE    HS 4793   0.320   4.533  12.902 -0.0132 -0.8979 -0.6173
   38DOPE   O21 4794   0.173   4.659  12.985  0.8558  0.1500  0.2796
   38DOPE   C21 4795   0.077   4.570  12.951  0.0864 -0.2730 -0.3004
   38DOPE   O22 4796   0.085   4.488  12.860  0.2517 -0.2309 -0.3953
   38DOPE   C22 4797  -0.042   4.573  13.047 -0.0324 -0.5970 -0.6753
   38DOPE   H2R 4798  -0.088   4.674  13.056  1.4319 -0.0609  2.2437
   38DOPE   H2S 4799   0.005   4.556  13.147  1.4538  1.7634 -0.8881
   38DOPE    C3 4800   0.416   4.688  13.010  0.1702  0.9889 -0.3441
   38DOPE    HX 4801   0.430   4.799  13.008 -0.0355  1.0197 -2.2850
   38DOPE    HY 4802   0.505   4.645  12.959  0.3957  0.0119  0.8399
   38DOPE   O31 4803   0.414   4.635  13.147  0.1139  0.8901  0.5440
   38DOPE   C31 4804   0.435   4.509  13.163  0.5138  0.2184  0.4876
   38DOPE   O32 4805   0.465   4.429  13.072  0.2027 -0.4239 -0.6246
   38DOPE   C32 4806   0.426   4.469  13.312  0.2541 -0.4791  0.2799
   38DOPE   H2X 4807   0.478   4.372  13.317  1.8417  0.4067  3.7192
   38DOPE   H2Y 4808   0.484   4.541  13.374  2.4542 -2.0681  0.1639
   38DOPE   C23 4809  -0.156   4.473  13.016 -0.1066 -0.3112 -0.6499
   38DOPE   H3R 4810  -0.103   4.379  12.991 -0.3002 -1.2879  2.2459
   38DOPE   H3S 4811  -0.213   4.508  12.927 -2.8823 -1.2641  0.6272
   38DOPE   C24 4812  -0.254   4.434  13.130 -0.8621 -0.0301 -0.1201
   38DOPE   H4R 4813  -0.349   4.490  13.118  0.8173  2.9050 -0.5787
   38DOPE   H4S 4814  -0.213   4.458  13.231  0.1343 -2.8401  0.2241
   38DOPE   C25 4815  -0.298   4.280  13.119 -0.6266 -0.0046 -0.2490
   38DOPE   H5R 4816  -0.212   4.212  13.136 -1.3119 -0.9620 -0.5365
   38DOPE   H5S 4817  -0.327   4.264  13.013 -0.6895  1.4037 -0.4655
   38DOPE   C26 4818  -0.397   4.246  13.234  0.2540 -0.3986  0.4065
   38DOPE   H6R 4819  -0.437   4.144  13.215 -1.1864  0.0071  1.1186
   38DOPE   H6S 4820  -0.488   4.310  13.240 -0.5070 -1.2024 -1.6887
   38DOPE   C27 4821  -0.332   4.236  13.378  0.2917 -0.0910 -0.3869
   38DOPE   H7R 4822  -0.311   4.337  13.419  2.0509 -0.1970 -0.9203
   38DOPE   H7S 4823  -0.229   4.194  13.375  0.9445  1.1297  2.2048
   38DOPE   C28 4824  -0.423   4.151  13.472  0.1699 -0.2816 -0.8645
   38DOPE   H8R 4825  -0.531   4.169  13.458 -0.0941 -1.9194 -1.1567
   38DOPE   H8S 4826  -0.397   4.195  13.571  0.5386 -1.9951 -0.1758
   38DOPE   C29 4827  -0.410   4.003  13.457  0.4981 -0.2784 -0.7263
   38DOPE   H9R 4828  -0.492   3.947  13.408  1.9674 -3.1555 -0.1325
   38DOPE  C210 4829  -0.311   3.936  13.507 -0.9696 -0.2861 -0.2332
   38DOPE  H10R 4830  -0.298   3.828  13.491  0.2646 -0.2963  0.6521
   38DOPE  C211 4831  -0.196   3.988  13.594 -0.1264  0.1289 -0.1959
   38DOPE  H11R 4832  -0.187   4.099  13.586  0.2440  0.1596  0.5485
   38DOPE  H11S 4833  -0.098   3.958  13.551  0.6335  2.9261 -0.6160
   38DOPE  C212 4834  -0.185   3.932  13.738 -0.3577 -0.3007  0.4014
   38DOPE  H12R 4835  -0.079   3.933  13.771  0.0327 -1.8347 -0.6968
   38DOPE  H12S 4836  -0.234   3.833  13.752 -0.4293  0.0723  3.3798
   38DOPE  C213 4837  -0.272   4.019  13.828  0.2068  0.2991 -0.2117
   38DOPE  H13R 4838  -0.377   4.018  13.794  0.2594  0.5821 -0.3871
   38DOPE  H13S 4839  -0.216   4.115  13.822  1.9119 -0.6817 -0.7123
   38DOPE  C214 4840  -0.284   3.993  13.977 -0.8661  0.1939  0.1758
   38DOPE  H14R 4841  -0.180   3.998  14.016 -1.0874 -0.2707  0.8383
   38DOPE  H14S 4842  -0.327   3.892  13.993 -1.6903  0.1180 -2.1335
   38DOPE  C215 4843  -0.382   4.091  14.047 -0.0892  0.6795  0.4018
   38DOPE  H15R 4844  -0.480   4.080  13.996 -1.3129  1.0392  2.5584
   38DOPE  H15S 4845  -0.354   4.199  14.041 -0.4696  0.7327 -0.6214
   38DOPE  C216 4846  -0.379   4.063  14.203 -0.2985 -0.4391 -0.3028
   38DOPE  H16R 4847  -0.279   4.078  14.248 -1.5093 -2.3056  3.3901
   38DOPE  H16S 4848  -0.417   3.960  14.216 -0.1308 -0.3816  0.7396
   38DOPE  C217 4849  -0.464   4.173  14.282  0.0047  0.7169  0.2564
   38DOPE  H17R 4850  -0.570   4.143  14.264  0.0068  0.1594  1.1150
   38DOPE  H17S 4851  -0.443   4.266  14.225 -3.2065  0.0787 -2.2642
   38DOPE  C218 4852  -0.430   4.193  14.431 -0.0165 -0.5290 -0.0477
   38DOPE  H18R 4853  -0.440   4.103  14.494 -1.0374  0.6505  1.5628
   38DOPE  H18S 4854  -0.499   4.268  14.476 -1.7318 -1.8767 -0.3382
   38DOPE  H18T 4855  -0.324   4.222  14.445 -1.1047  2.9151  2.4953
   38DOPE   C33 4856   0.278   4.458  13.373 -0.5700 -0.1644 -0.2690
   38DOPE   H3X 4857   0.225   4.379  13.315 -0.4646 -0.3154 -0.1586
   38DOPE   H3Y 4858   0.219   4.551  13.354  1.5920  1.6595  1.4328
   38DOPE   C34 4859   0.267   4.420  13.525 -0.3150 -0.0775  0.1357
   38DOPE   H4X 4860   0.316   4.322  13.542  0.3930  0.0922 -0.8199
   38DOPE   H4Y 4861   0.307   4.497  13.594  1.8689  0.9820 -2.1724
   38DOPE   C35 4862   0.122   4.426  13.572 -0.1116  0.4476 -0.0031
   38DOPE   H5X 4863   0.058   4.372  13.498 -0.2948  0.2936  0.2656
   38DOPE   H5Y 4864   0.086   4.532  13.569 -1.3814  0.0312 -0.4960
   38DOPE   C36 4865   0.106   4.372  13.718  0.6508 -0.6747  0.5777
   38DOPE   H6X 4866   0.155   4.443  13.788  0.5676 -0.7974  0.7581
   38DOPE   H6Y 4867   0.158   4.274  13.713 -0.5529 -1.3214  0.5450
   38DOPE   C37 4868  -0.044   4.351  13.759 -0.0430  0.1183  0.5751
   38DOPE   H7X 4869  -0.096   4.282  13.689 -0.1193  1.4908 -0.7804
   38DOPE   H7Y 4870  -0.037   4.300  13.857  0.7002 -0.1959  0.3616
   38DOPE   C38 4871  -0.103   4.496  13.777  0.1437  0.3917 -0.2258
   38DOPE   H8X 4872  -0.120   4.537  13.675  2.0450 -1.1943 -1.2338
   38DOPE   H8Y 4873  -0.023   4.547  13.835  1.4285 -2.3723  0.5814
   38DOPE   C39 4874  -0.236   4.490  13.848  0.0138 -0.0952  0.0982
   38DOPE   H9X 4875  -0.321   4.462  13.784 -0.2487 -0.4284  0.5878
   38DOPE  C310 4876  -0.266   4.537  13.973 -0.3765  0.3694 -0.4883
   38DOPE  H10X 4877  -0.369   4.547  14.011  0.1707 -0.2747  1.3238
   38DOPE  C311 4878  -0.166   4.598  14.067  0.2828  0.1064  0.8042
   38DOPE  H11X 4879  -0.060   4.574  14.044 -0.2108 -0.0826 -1.5401
   38DOPE  H11Y 4880  -0.164   4.709  14.061  0.8644  0.2055  2.3579
   38DOPE  C312 4881  -0.193   4.556  14.209  0.5621  0.0820  0.3003
   38DOPE  H12X 4882  -0.106   4.580  14.275 -1.3468  1.9754  2.2973
   38DOPE  H12Y 4883  -0.210   4.446  14.212  0.8623 -0.0134 -0.9969
   38DOPE  C313 4884  -0.311   4.631  14.264  0.6061  0.3363 -0.1462
   38DOPE  H13X 4885  -0.290   4.740  14.262  0.4100  0.4526  1.6777
   38DOPE  H13Y 4886  -0.403   4.610  14.206  0.2164  0.6417  0.3459
   38DOPE  C314 4887  -0.334   4.598  14.417 -0.3484 -0.0454  0.6625
   38DOPE  H14X 4888  -0.236   4.634  14.454 -0.4486  0.7730  0.1568
   38DOPE  H14Y 4889  -0.343   4.492  14.447 -1.0721  0.9239  4.3847
   38DOPE  C315 4890  -0.444   4.689  14.469 -1.0755  0.2625  0.4810
   38DOPE  H15X 4891  -0.539   4.641  14.437 -0.3339 -1.0817  0.2195
   38DOPE  H15Y 4892  -0.438   4.788  14.420  1.6964  1.0796  2.2443
   38DOPE  C316 4893  -0.445   4.684  14.623 -0.4950 -0.0604 -0.4660
   38DOPE  H16X 4894  -0.426   4.581  14.659  0.0867 -0.7660 -2.6435
   38DOPE  H16Y 4895  -0.545   4.720  14.656 -0.7426 -0.7832 -0.4245
   38DOPE  C317 4896  -0.339   4.780  14.688 -0.3040 -0.5158  0.6855
   38DOPE  H17X 4897  -0.234   4.752  14.661 -0.3470 -0.2110  0.2007
   38DOPE  H17Y 4898  -0.353   4.883  14.648 -0.1477  0.0972  2.1418
   38DOPE  C318 4899  -0.341   4.802  14.837  1.0952  0.0174  0.1840
   38DOPE  H18X 4900  -0.246   4.849  14.870  2.0443 -1.4177 -0.3910
   38DOPE  H18Y 4901  -0.429   4.861  14.869  2.2997  1.6338  0.6486
   38DOPE  H18Z 4902  -0.335   4.703  14.886  0.3532 -0.1323 -0.0222
   39DOPE     N 4903   3.684   2.570  13.527 -0.7056  0.0995  0.1508
   39DOPE   HN1 4904   3.747   2.627  13.587 -0.0019 -2.9695  2.5881
   39DOPE   HN2 4905   3.631   2.498  13.581 -2.0182  0.6881 -0.3146
   39DOPE   HN3 4906   3.758   2.519  13.475 -1.9291 -0.3578 -1.2084
   39DOPE   C12 4907   3.578   2.637  13.442 -0.0603  0.1740 -0.1440
   39DOPE  H12A 4908   3.497   2.673  13.508 -1.6734  0.6970 -2.2922
   39DOPE  H12B 4909   3.537   2.553  13.381  0.7837 -0.7217  0.4965
   39DOPE   C11 4910   3.633   2.761  13.375  0.7542  0.9547  0.6529
   39DOPE  H11A 4911   3.562   2.804  13.300  0.1739 -2.1186 -0.7394
   39DOPE  H11B 4912   3.716   2.726  13.309  1.7417  1.1950  1.7409
   39DOPE     P 4913   3.727   3.000  13.443 -0.4752 -0.2370 -0.2200
   39DOPE   O13 4914   3.640   3.047  13.334 -0.0722 -0.3279  0.4118
   39DOPE   O14 4915   3.869   2.980  13.408 -0.0828 -0.0020  0.1603
   39DOPE   O11 4916   3.692   3.072  13.577 -0.0675 -0.2765 -0.1826
   39DOPE   O12 4917   3.673   2.859  13.479  0.3808 -0.4569 -0.1599
   39DOPE    C1 4918   3.558   3.073  13.636 -0.0713  0.0091  0.3631
   39DOPE    HA 4919   3.486   3.016  13.574  0.5349 -1.5362  1.0218
   39DOPE    HB 4920   3.514   3.175  13.638 -0.4307 -0.1112 -0.9173
   39DOPE    C2 4921   3.555   3.015  13.779  0.0310 -0.1187  0.3172
   39DOPE    HS 4922   3.452   3.022  13.822 -0.5137  1.0313 -1.0836
   39DOPE   O21 4923   3.656   3.077  13.866 -0.7076  0.1285  0.0402
   39DOPE   C21 4924   3.621   3.096  13.994 -0.4424  0.1585 -0.0643
   39DOPE   O22 4925   3.511   3.098  14.038 -0.1607 -0.9180 -0.1345
   39DOPE   C22 4926   3.740   3.103  14.086 -0.1732  0.3405  0.0260
   39DOPE   H2R 4927   3.808   3.190  14.070  1.0983 -0.6356 -0.1186
   39DOPE   H2S 4928   3.802   3.015  14.057 -0.2660  0.5530 -0.8717
   39DOPE    C3 4929   3.592   2.863  13.772 -0.2117  0.7764  0.6059
   39DOPE    HX 4930   3.691   2.869  13.722 -0.6477  0.1625 -0.3767
   39DOPE    HY 4931   3.513   2.819  13.707  0.6994  0.3219 -0.2143
   39DOPE   O31 4932   3.611   2.806  13.900  0.5694 -0.1642 -0.1517
   39DOPE   C31 4933   3.587   2.677  13.901  0.8402 -0.0657  0.3335
   39DOPE   O32 4934   3.544   2.610  13.805 -0.2818 -0.2184 -0.0004
   39DOPE   C32 4935   3.587   2.608  14.035 -0.2395  0.4040 -0.3765
   39DOPE   H2X 4936   3.503   2.647  14.096 -0.8163 -1.8753  0.4112
   39DOPE   H2Y 4937   3.559   2.501  14.023  0.2260  0.3530 -1.0140
   39DOPE   C23 4938   3.690   3.094  14.235  0.4343  0.0973 -0.2066
   39DOPE   H3R 4939   3.621   3.008  14.248  0.0010  0.3538 -0.7567
   39DOPE   H3S 4940   3.641   3.192  14.254  0.7620 -0.0941  1.7319
   39DOPE   C24 4941   3.799   3.079  14.336  0.5010  0.8055  0.3113
   39DOPE   H4R 4942   3.885   3.147  14.317  0.0160  0.9892 -1.3899
   39DOPE   H4S 4943   3.851   2.980  14.339  1.3735  1.0059 -3.5583
   39DOPE   C25 4944   3.737   3.117  14.470  0.0931 -0.1649 -0.5247
   39DOPE   H5R 4945   3.792   3.074  14.556 -1.4092  0.1575  0.6235
   39DOPE   H5S 4946   3.628   3.096  14.463 -0.3289  1.5473  0.3305
   39DOPE   C26 4947   3.739   3.274  14.492  0.2908  0.5169  0.2268
   39DOPE   H6R 4948   3.673   3.322  14.417  2.8023 -0.3124 -2.7197
   39DOPE   H6S 4949   3.843   3.303  14.464  0.3930  0.4562  0.5343
   39DOPE   C27 4950   3.700   3.334  14.633 -0.4140  0.7660 -0.3376
   39DOPE   H7R 4951   3.758   3.273  14.705 -1.1476  2.5231  1.8407
   39DOPE   H7S 4952   3.593   3.302  14.633 -1.5323  4.0198 -1.8514
   39DOPE   C28 4953   3.707   3.482  14.646  0.2121  0.3090 -0.1659
   39DOPE   H8R 4954   3.656   3.521  14.737  0.4577  0.9535 -0.3066
   39DOPE   H8S 4955   3.637   3.521  14.569 -0.4966  1.1120  0.8608
   39DOPE   C29 4956   3.849   3.529  14.632  0.3820 -0.2323  0.2340
   39DOPE   H9R 4957   3.880   3.552  14.529 -0.1836  2.5893  0.6140
   39DOPE  C210 4958   3.944   3.548  14.725 -0.6076  0.0869 -0.2285
   39DOPE  H10R 4959   4.047   3.571  14.692  0.0846  0.9550  2.2936
   39DOPE  C211 4960   3.938   3.499  14.871 -0.3789  0.1214 -0.1354
   39DOPE  H11R 4961   4.012   3.416  14.869  0.9215  1.2570 -1.6466
   39DOPE  H11S 4962   3.840   3.456  14.901  0.3276 -1.9427 -0.6115
   39DOPE  C212 4963   3.983   3.611  14.963 -0.0390 -0.1294 -0.9254
   39DOPE  H12R 4964   3.938   3.712  14.951  2.2162  1.6645  3.3608
   39DOPE  H12S 4965   4.091   3.631  14.946  0.3811 -0.5891  0.9551
   39DOPE  C213 4966   3.963   3.571  15.115  0.2154  0.0702  0.5774
   39DOPE  H13R 4967   4.017   3.474  15.121  0.3591  0.0195 -1.1176
   39DOPE  H13S 4968   3.855   3.555  15.136  0.0008 -0.2516 -0.6617
   39DOPE  C214 4969   4.012   3.673  15.215 -0.3229 -0.8583 -0.1735
   39DOPE  H14R 4970   3.946   3.762  15.209  1.2371  0.6070  2.3898
   39DOPE  H14S 4971   4.118   3.703  15.197  0.4952 -2.1201  2.0974
   39DOPE  C215 4972   3.995   3.628  15.358 -0.7497 -0.1898 -0.0922
   39DOPE  H15R 4973   4.042   3.528  15.372 -1.9181 -0.6324  0.8174
   39DOPE  H15S 4974   3.888   3.609  15.379 -0.4916 -0.8734  0.6502
   39DOPE  C216 4975   4.058   3.722  15.461  0.5252 -0.1117 -0.2261
   39DOPE  H16R 4976   4.037   3.687  15.564  1.3497  1.8082  0.6454
   39DOPE  H16S 4977   4.003   3.816  15.438  0.1477 -0.2460  0.1100
   39DOPE  C217 4978   4.205   3.722  15.455  0.0663  0.3866  0.0316
   39DOPE  H17R 4979   4.247   3.760  15.360 -1.7919 -1.3258 -1.5769
   39DOPE  H17S 4980   4.237   3.616  15.465  1.1529  0.5317 -1.5648
   39DOPE  C218 4981   4.269   3.806  15.569 -0.4188 -0.5414 -0.6933
   39DOPE  H18R 4982   4.214   3.784  15.664 -2.4030 -0.8738 -1.8556
   39DOPE  H18S 4983   4.266   3.915  15.547 -1.9375  0.2593  2.8017
   39DOPE  H18T 4984   4.373   3.770  15.585  0.3080  1.2604 -1.1751
   39DOPE   C33 4985   3.726   2.624  14.100  0.6967 -0.3000  0.7492
   39DOPE   H3X 4986   3.743   2.734  14.110 -2.3711  0.4295 -0.7554
   39DOPE   H3Y 4987   3.802   2.582  14.031 -0.4523  0.0804 -0.7904
   39DOPE   C34 4988   3.732   2.553  14.233  0.3078  0.3865 -0.6867
   39DOPE   H4X 4989   3.653   2.596  14.299  0.9294 -0.7045  0.8178
   39DOPE   H4Y 4990   3.712   2.447  14.209  0.8720  0.8853 -3.8522
   39DOPE   C35 4991   3.858   2.567  14.323 -0.3746 -0.0453 -0.3658
   39DOPE   H5X 4992   3.875   2.672  14.356 -1.5729 -0.6101  2.3371
   39DOPE   H5Y 4993   3.948   2.544  14.262  0.9457 -0.0665  1.5086
   39DOPE   C36 4994   3.857   2.489  14.455  0.3527 -0.2587 -0.2302
   39DOPE   H6X 4995   3.954   2.502  14.507  0.5484  0.5694 -0.7726
   39DOPE   H6Y 4996   3.843   2.380  14.446  0.0485 -0.3163  0.8829
   39DOPE   C37 4997   3.752   2.536  14.551 -0.3901  0.1410 -0.6781
   39DOPE   H7X 4998   3.651   2.514  14.510 -1.7165  2.5561  1.0021
   39DOPE   H7Y 4999   3.773   2.477  14.643  3.7160  2.3225  0.0558
   39DOPE   C38 5000   3.765   2.688  14.583 -0.1603 -0.0518  0.5376
   39DOPE   H8X 5001   3.738   2.746  14.492  0.1607 -1.1496 -0.2706
   39DOPE   H8Y 5002   3.874   2.706  14.594  0.3117  0.2007 -3.2411
   39DOPE   C39 5003   3.688   2.731  14.699  0.5977  0.5692  0.1330
   39DOPE   H9X 5004   3.589   2.771  14.673 -0.8778 -2.5467  0.5877
   39DOPE  C310 5005   3.724   2.754  14.825  0.0270  0.4455  0.2933
   39DOPE  H10X 5006   3.650   2.788  14.900  2.1059  0.1110  2.6268
   39DOPE  C311 5007   3.855   2.692  14.884  0.6703 -0.0063 -0.3476
   39DOPE  H11X 5008   3.823   2.637  14.974  1.8320  0.2306  0.2221
   39DOPE  H11Y 5009   3.902   2.609  14.827 -0.7507 -1.3005  0.2972
   39DOPE  C312 5010   3.960   2.807  14.912  0.0342 -0.0324 -0.6445
   39DOPE  H12X 5011   3.905   2.896  14.949  1.4719  0.9545 -0.7963
   39DOPE  H12Y 5012   4.011   2.839  14.818  2.2022  2.4879  1.2483
   39DOPE  C313 5013   4.077   2.763  15.006 -0.4683 -0.1501  0.2783
   39DOPE  H13X 5014   4.137   2.852  15.034 -0.7761  0.0194  0.3967
   39DOPE  H13Y 5015   4.047   2.714  15.101  2.4692 -2.7994  0.0159
   39DOPE  C314 5016   4.165   2.660  14.948 -0.5014 -0.8466  0.3296
   39DOPE  H14X 5017   4.229   2.713  14.874 -0.5280  1.9029  2.1092
   39DOPE  H14Y 5018   4.099   2.589  14.893  0.8088 -0.4835 -1.7940
   39DOPE  C315 5019   4.247   2.594  15.051  0.3428 -0.2364  0.0569
   39DOPE  H15X 5020   4.296   2.509  14.997 -1.3969 -0.2373 -1.6309
   39DOPE  H15Y 5021   4.199   2.532  15.129  2.4822 -1.4271  0.5175
   39DOPE  C316 5022   4.343   2.689  15.120 -0.4292 -0.0883  0.2622
   39DOPE  H16X 5023   4.292   2.756  15.193  0.8282  0.2285  0.8750
   39DOPE  H16Y 5024   4.393   2.747  15.040  2.1521 -0.1138  1.7365
   39DOPE  C317 5025   4.458   2.615  15.200 -0.0308  0.6806  0.6488
   39DOPE  H17X 5026   4.501   2.538  15.132  0.1356  0.3655  1.0995
   39DOPE  H17Y 5027   4.536   2.687  15.232  0.8452 -0.5455  1.3952
   39DOPE  C318 5028   4.410   2.545  15.323  0.0461 -0.0890  0.0453
   39DOPE  H18X 5029   4.490   2.517  15.394  0.6630  0.2690 -0.5019
   39DOPE  H18Y 5030   4.337   2.615  15.369 -1.6615 -1.6523 -0.1646
   39DOPE  H18Z 5031   4.358   2.451  15.292  0.5140 -0.2601 -0.2406
   40DOPE     N 5032   5.356   6.123  12.983 -0.0193 -0.8345 -0.8222
   40DOPE   HN1 5033   5.413   6.090  13.063 -0.1297  1.2510  0.1626
   40DOPE   HN2 5034   5.324   6.217  13.013  1.6245 -1.0790  2.1352
   40DOPE   HN3 5035   5.270   6.066  12.969 -2.8448  2.1910  2.1861
   40DOPE   C12 5036   5.424   6.128  12.854  0.0269  0.1406 -1.1416
   40DOPE  H12A 5037   5.500   6.209  12.855 -0.1638  0.3283  0.7455
   40DOPE  H12B 5038   5.345   6.154  12.780 -2.4470 -1.1855  0.8764
   40DOPE   C11 5039   5.488   5.987  12.822  0.5791  0.1581 -0.3076
   40DOPE  H11A 5040   5.589   5.975  12.865  0.3537 -1.7030 -0.2166
   40DOPE  H11B 5041   5.499   5.979  12.712 -1.1153 -0.8151 -0.4503
   40DOPE     P 5042   5.438   5.723  12.823 -0.5763 -0.2779 -0.4823
   40DOPE   O13 5043   5.540   5.722  12.713  0.0364  0.0660 -0.0725
   40DOPE   O14 5044   5.303   5.669  12.810  0.1707 -0.4116  0.1553
   40DOPE   O11 5045   5.502   5.659  12.959  0.7021 -0.0565  0.4112
   40DOPE   O12 5046   5.410   5.873  12.868 -0.1711  0.1660 -0.3467
   40DOPE    C1 5047   5.568   5.741  13.052 -0.4756 -0.0920  0.2680
   40DOPE    HA 5048   5.611   5.835  13.010 -0.1641 -1.4401 -2.7560
   40DOPE    HB 5049   5.664   5.696  13.085 -1.7825 -1.2194  2.7405
   40DOPE    C2 5050   5.487   5.777  13.180  0.1695 -0.5862  0.2310
   40DOPE    HS 5051   5.411   5.848  13.141 -0.9751 -1.7015  0.3921
   40DOPE   O21 5052   5.571   5.850  13.267 -0.0099 -0.1602 -0.1008
   40DOPE   C21 5053   5.602   5.981  13.244 -0.2789  0.8112 -0.2807
   40DOPE   O22 5054   5.543   6.056  13.163  0.1085 -0.0031  0.0538
   40DOPE   C22 5055   5.708   6.037  13.343 -0.2562 -0.3510 -0.0363
   40DOPE   H2R 5056   5.715   6.145  13.319 -0.2718 -0.6276 -1.3291
   40DOPE   H2S 5057   5.798   5.975  13.319 -0.2437 -0.3577  0.0247
   40DOPE    C3 5058   5.420   5.661  13.254  0.6364 -0.3424 -0.2122
   40DOPE    HX 5059   5.494   5.579  13.237  0.5085 -0.2383 -1.3418
   40DOPE    HY 5060   5.330   5.633  13.195  0.3947 -1.4588  0.6350
   40DOPE   O31 5061   5.390   5.693  13.394 -0.1538 -0.5833  0.1106
   40DOPE   C31 5062   5.276   5.756  13.416 -0.0645 -1.0330 -0.4397
   40DOPE   O32 5063   5.205   5.798  13.327  0.1412  0.2061  0.1476
   40DOPE   C32 5064   5.236   5.761  13.567 -0.3326 -0.5378 -0.2375
   40DOPE   H2X 5065   5.182   5.666  13.585  0.4348 -0.7201  1.2486
   40DOPE   H2Y 5066   5.329   5.774  13.627 -0.9235  0.8049  0.4321
   40DOPE   C23 5067   5.674   6.016  13.495 -0.0895 -0.2409  0.0215
   40DOPE   H3R 5068   5.757   6.024  13.569 -0.7549 -1.4975  0.9402
   40DOPE   H3S 5069   5.640   5.910  13.497 -2.8621  0.4903 -2.2810
   40DOPE   C24 5070   5.560   6.115  13.542 -0.2770 -0.5664  0.3310
   40DOPE   H4R 5071   5.479   6.117  13.466 -2.0218 -0.6665  2.0979
   40DOPE   H4S 5072   5.603   6.215  13.561  2.9834 -1.8172  0.0654
   40DOPE   C25 5073   5.504   6.079  13.681  0.3258 -0.2230  0.2891
   40DOPE   H5R 5074   5.484   5.972  13.704 -2.1844  0.5436  2.2325
   40DOPE   H5S 5075   5.404   6.127  13.690  0.0168 -0.8485  0.1980
   40DOPE   C26 5076   5.599   6.126  13.801  0.0865 -0.1642  0.1544
   40DOPE   H6R 5077   5.663   6.208  13.764 -1.0530  0.4735 -0.4758
   40DOPE   H6S 5078   5.673   6.047  13.826 -0.5555 -1.6549 -2.2512
   40DOPE   C27 5079   5.526   6.165  13.931  0.4539 -0.1470 -0.4005
   40DOPE   H7R 5080   5.474   6.077  13.977  0.1600 -1.0917 -2.4421
   40DOPE   H7S 5081   5.455   6.241  13.893  1.1147  0.6681 -0.0135
   40DOPE   C28 5082   5.606   6.253  14.030  0.0681 -0.1797 -0.4221
   40DOPE   H8R 5083   5.538   6.272  14.116  0.8178 -0.7727  0.3173
   40DOPE   H8S 5084   5.630   6.351  13.983 -2.7982  0.0688 -1.5449
   40DOPE   C29 5085   5.722   6.164  14.082  0.0337  1.0530 -0.0447
   40DOPE   H9R 5086   5.820   6.183  14.038  1.2252 -2.8349  0.5826
   40DOPE  C210 5087   5.728   6.097  14.197 -0.0427  0.1046 -0.8022
   40DOPE  H10R 5088   5.825   6.063  14.235 -0.0957  1.9048  1.1597
   40DOPE  C211 5089   5.623   6.067  14.297 -0.5382  0.0705  0.4436
   40DOPE  H11R 5090   5.555   6.154  14.311 -0.5952  0.3650 -1.3692
   40DOPE  H11S 5091   5.678   6.056  14.393  0.6051  0.1582 -0.1878
   40DOPE  C212 5092   5.543   5.936  14.288  0.0395 -0.3376 -0.3110
   40DOPE  H12R 5093   5.626   5.863  14.273  0.5839  0.3260 -0.5818
   40DOPE  H12S 5094   5.493   5.938  14.188 -0.8280  1.5654  0.1216
   40DOPE  C213 5095   5.443   5.918  14.403 -0.2310 -0.4419 -0.0525
   40DOPE  H13R 5096   5.358   5.850  14.381 -1.9052  1.0451  1.4932
   40DOPE  H13S 5097   5.397   6.016  14.428  1.5004  0.1269  1.1188
   40DOPE  C214 5098   5.502   5.863  14.534 -0.1918 -0.2421  0.6367
   40DOPE  H14R 5099   5.601   5.909  14.555 -0.3270 -0.1384  1.0535
   40DOPE  H14S 5100   5.529   5.757  14.519  1.5876  0.1649  0.7365
   40DOPE  C215 5101   5.409   5.899  14.652 -0.0144 -0.3992  0.3490
   40DOPE  H15R 5102   5.433   5.823  14.730  2.6130  0.0641  0.0928
   40DOPE  H15S 5103   5.302   5.889  14.623 -0.0811  1.3191 -0.1129
   40DOPE  C216 5104   5.424   6.031  14.734 -0.2219 -0.3484 -0.0770
   40DOPE  H16R 5105   5.345   6.037  14.812 -0.6309 -0.5105 -0.4741
   40DOPE  H16S 5106   5.414   6.128  14.681  2.5772  0.2168  0.2644
   40DOPE  C217 5107   5.560   6.037  14.802  0.1412 -0.2328  0.0893
   40DOPE  H17R 5108   5.642   6.008  14.732 -1.1233 -1.9584 -0.7518
   40DOPE  H17S 5109   5.553   5.959  14.882 -1.3287  0.1412  0.3456
   40DOPE  C218 5110   5.594   6.170  14.883 -0.1517 -0.2548 -0.4527
   40DOPE  H18R 5111   5.568   6.265  14.832  2.0729  0.8239  0.2562
   40DOPE  H18S 5112   5.701   6.168  14.913 -0.1470 -0.9925 -0.4818
   40DOPE  H18T 5113   5.552   6.174  14.986  1.2718  3.0817  0.1397
   40DOPE   C33 5114   5.125   5.868  13.597 -0.0508  0.0361  0.8181
   40DOPE   H3X 5115   5.045   5.854  13.520 -0.3266  1.2445  0.8657
   40DOPE   H3Y 5116   5.159   5.966  13.558  0.5020 -0.8392 -1.0307
   40DOPE   C34 5117   5.057   5.864  13.728 -0.5202 -0.3629 -1.0104
   40DOPE   H4X 5118   4.967   5.929  13.736  0.0149  0.2606  0.1204
   40DOPE   H4Y 5119   5.029   5.761  13.759  1.0005  0.1813  2.7143
   40DOPE   C35 5120   5.160   5.919  13.837  0.2347  0.1271  0.3524
   40DOPE   H5X 5121   5.210   6.013  13.804 -1.5826  0.5981 -1.2629
   40DOPE   H5Y 5122   5.244   5.851  13.860 -0.1332  0.1069  1.7283
   40DOPE   C36 5123   5.097   5.927  13.973 -0.1192 -0.2039 -0.6467
   40DOPE   H6X 5124   5.093   5.828  14.022  0.1199 -0.1014 -0.4167
   40DOPE   H6Y 5125   5.000   5.980  13.964  0.3596  0.6959 -0.6701
   40DOPE   C37 5126   5.177   6.019  14.070  0.1243 -0.3980 -0.3812
   40DOPE   H7X 5127   5.280   5.978  14.077  0.2282 -0.2134 -0.8227
   40DOPE   H7Y 5128   5.186   6.115  14.014  0.7204 -1.4158 -2.0920
   40DOPE   C38 5129   5.116   6.049  14.208  0.7178  0.4206 -0.6078
   40DOPE   H8X 5130   5.010   6.076  14.188  0.8402  1.4499  0.0708
   40DOPE   H8Y 5131   5.168   6.128  14.266  2.0943  0.0525 -1.3252
   40DOPE   C39 5132   5.106   5.926  14.301  0.3596 -0.7483  0.2880
   40DOPE   H9X 5133   5.131   5.824  14.269  0.6680 -0.2259 -1.2076
   40DOPE  C310 5134   5.072   5.942  14.431 -0.3287  0.2925  0.3308
   40DOPE  H10X 5135   5.081   5.859  14.503 -2.0086  1.4965  2.0113
   40DOPE  C311 5136   5.059   6.067  14.504 -0.1395 -0.3840 -0.4901
   40DOPE  H11X 5137   5.159   6.113  14.512  0.3698 -1.7089  1.3606
   40DOPE  H11Y 5138   4.994   6.144  14.457  0.0036 -0.4105 -0.7304
   40DOPE  C312 5139   5.000   6.038  14.646  0.4082 -0.1939  0.2313
   40DOPE  H12X 5140   5.070   5.967  14.694  1.4713 -0.1651 -1.2097
   40DOPE  H12Y 5141   4.897   5.997  14.635 -0.2691  1.1685  1.2532
   40DOPE  C313 5142   4.988   6.165  14.723  0.2541 -0.2512 -0.2896
   40DOPE  H13X 5143   5.086   6.170  14.774 -0.2896  3.0393  0.6080
   40DOPE  H13Y 5144   4.963   6.248  14.653  2.6001  1.0096  0.2940
   40DOPE  C314 5145   4.891   6.156  14.839  0.4556  0.7766 -0.3683
   40DOPE  H14X 5146   4.911   6.061  14.893  1.1659  1.2295  0.1901
   40DOPE  H14Y 5147   4.782   6.161  14.820  0.6035  0.4041 -1.3608
   40DOPE  C315 5148   4.899   6.276  14.929 -0.5334 -0.0270  0.2326
   40DOPE  H15X 5149   4.822   6.267  15.009 -0.2940  3.5199  0.9832
   40DOPE  H15Y 5150   4.866   6.365  14.872 -3.2509  0.4780  2.3631
   40DOPE  C316 5151   5.033   6.313  14.993 -0.4166  0.0652 -0.1475
   40DOPE  H16X 5152   5.107   6.323  14.911  0.4471 -1.4024  0.4216
   40DOPE  H16Y 5153   5.072   6.225  15.048  0.3379  0.0061 -0.7625
   40DOPE  C317 5154   5.034   6.432  15.089  0.5001  0.1243  0.3726
   40DOPE  H17X 5155   5.131   6.476  15.119 -1.0569  1.9323  3.1833
   40DOPE  H17Y 5156   4.987   6.520  15.040 -0.8058 -1.2228 -0.9172
   40DOPE  C318 5157   4.964   6.388  15.219  0.4716  0.2635 -0.4848
   40DOPE  H18X 5158   4.855   6.387  15.200  0.3011  2.1149  0.2625
   40DOPE  H18Y 5159   4.995   6.285  15.248 -0.8568  0.4162  1.6743
   40DOPE  H18Z 5160   4.987   6.458  15.302  2.5634 -2.1171  1.0987
   41DOPE     N 5161   2.376   4.761  12.947  0.9180  0.3555  0.5289
   41DOPE   HN1 5162   2.466   4.798  12.910  0.6256 -1.4603 -2.3191
   41DOPE   HN2 5163   2.362   4.674  12.891 -1.7733  0.9077  0.2049
   41DOPE   HN3 5164   2.304   4.827  12.911  0.8277 -2.0095 -4.6034
   41DOPE   C12 5165   2.364   4.746  13.090 -0.0399  0.0323 -0.5652
   41DOPE  H12A 5166   2.262   4.710  13.112 -0.4103  0.6167 -1.2691
   41DOPE  H12B 5167   2.377   4.847  13.136  0.2755  0.1973 -1.0077
   41DOPE   C11 5168   2.486   4.661  13.136 -0.0624 -0.9718 -0.0002
   41DOPE  H11A 5169   2.483   4.557  13.097  2.8520 -1.4564  0.8144
   41DOPE  H11B 5170   2.473   4.641  13.244 -3.2869 -0.7425 -0.2565
   41DOPE     P 5171   2.691   4.827  13.194  0.1285  0.0805  0.1520
   41DOPE   O13 5172   2.588   4.886  13.286 -0.6890  0.0728  0.2425
   41DOPE   O14 5173   2.770   4.911  13.098 -0.0464 -0.5951  0.2800
   41DOPE   O11 5174   2.805   4.736  13.272 -0.6146  0.3121 -0.1079
   41DOPE   O12 5175   2.617   4.713  13.103 -0.2772 -0.6658  0.0984
   41DOPE    C1 5176   2.775   4.622  13.347  0.8041  0.5809 -0.3119
   41DOPE    HA 5177   2.854   4.546  13.333  0.1230 -0.2018  0.0189
   41DOPE    HB 5178   2.677   4.577  13.320  1.4083 -2.0298  1.4551
   41DOPE    C2 5179   2.751   4.658  13.496  0.2854 -0.3691  0.1163
   41DOPE    HS 5180   2.677   4.740  13.490  0.3544 -0.4109 -2.3842
   41DOPE   O21 5181   2.874   4.699  13.558  0.0402 -0.0455  0.4398
   41DOPE   C21 5182   2.867   4.806  13.630 -0.1154  0.5848  0.1235
   41DOPE   O22 5183   2.770   4.877  13.651 -0.4568 -0.1515 -0.2389
   41DOPE   C22 5184   3.013   4.840  13.685  0.6530  0.0428  0.1617
   41DOPE   H2R 5185   3.089   4.851  13.605  0.5620  0.4219  0.1258
   41DOPE   H2S 5186   3.050   4.755  13.747  0.0272  0.9025  1.7778
   41DOPE    C3 5187   2.706   4.540  13.581 -0.2127  0.6068  0.0298
   41DOPE    HX 5188   2.799   4.481  13.588  0.3983  1.5897  0.4988
   41DOPE    HY 5189   2.634   4.480  13.523 -2.1245  1.1475  1.7332
   41DOPE   O31 5190   2.661   4.567  13.718 -0.1690  1.3354  0.2618
   41DOPE   C31 5191   2.533   4.604  13.723  0.1979  0.5738  0.7723
   41DOPE   O32 5192   2.454   4.615  13.628  0.2824  0.1235  0.4561
   41DOPE   C32 5193   2.496   4.646  13.863  0.7650 -0.4317  0.5348
   41DOPE   H2X 5194   2.530   4.569  13.936  1.3058 -1.0051 -0.3034
   41DOPE   H2Y 5195   2.539   4.746  13.881  0.9390 -0.0275 -1.8801
   41DOPE   C23 5196   3.004   4.975  13.772  0.5984  0.4587  0.1227
   41DOPE   H3R 5197   3.107   4.984  13.811  1.4560  0.9533 -2.0746
   41DOPE   H3S 5198   2.929   4.958  13.852 -0.3881 -1.0434 -1.0618
   41DOPE   C24 5199   2.964   5.103  13.693  0.1056  0.2036 -0.5805
   41DOPE   H4R 5200   2.856   5.104  13.668 -0.4278  0.4039  1.5047
   41DOPE   H4S 5201   3.027   5.094  13.602  1.3831 -2.6812  0.4310
   41DOPE   C25 5202   3.006   5.231  13.773 -0.2677 -0.4990 -0.6238
   41DOPE   H5R 5203   3.114   5.227  13.802 -0.9921  0.0124  2.4360
   41DOPE   H5S 5204   2.953   5.238  13.870 -1.1410 -2.3384 -0.9151
   41DOPE   C26 5205   2.960   5.350  13.695 -0.2887 -0.2199  0.6810
   41DOPE   H6R 5206   2.853   5.354  13.668 -0.3471  0.0316  0.9431
   41DOPE   H6S 5207   3.015   5.359  13.599 -1.4756  0.3607  0.0327
   41DOPE   C27 5208   2.996   5.475  13.771  1.1314 -0.2128  0.0710
   41DOPE   H7R 5209   2.942   5.475  13.868  1.2676 -1.8988  0.1760
   41DOPE   H7S 5210   2.948   5.554  13.709 -0.8920 -1.1964  0.3003
   41DOPE   C28 5211   3.141   5.503  13.789 -0.5608  0.1670 -0.0060
   41DOPE   H8R 5212   3.182   5.420  13.851  1.1743  1.6837  0.9926
   41DOPE   H8S 5213   3.152   5.587  13.861 -0.6960  0.5053 -0.3742
   41DOPE   C29 5214   3.220   5.542  13.665 -0.0977 -0.3356 -0.3135
   41DOPE   H9R 5215   3.183   5.627  13.606 -0.1818  0.4236  0.8000
   41DOPE  C210 5216   3.343   5.489  13.626  0.5297  0.1387 -0.1248
   41DOPE  H10R 5217   3.387   5.530  13.534  0.2256  1.0064  0.1034
   41DOPE  C211 5218   3.413   5.372  13.691  0.0288 -0.0212 -0.5405
   41DOPE  H11R 5219   3.393   5.277  13.637  2.1678  0.0734 -1.5940
   41DOPE  H11S 5220   3.374   5.333  13.787  0.6922  0.9960  0.1584
   41DOPE  C212 5221   3.563   5.373  13.683 -0.0459 -0.3703  0.6605
   41DOPE  H12R 5222   3.605   5.278  13.722  1.1508 -0.2145 -0.2040
   41DOPE  H12S 5223   3.592   5.461  13.745 -2.5268  1.6557 -0.8682
   41DOPE  C213 5224   3.623   5.389  13.541  0.1605 -0.3796  0.1674
   41DOPE  H13R 5225   3.593   5.481  13.485  1.8430 -0.9268 -1.7621
   41DOPE  H13S 5226   3.573   5.312  13.478  0.6931  0.0021 -0.7576
   41DOPE  C214 5227   3.772   5.378  13.537 -0.1498  0.1821 -0.3097
   41DOPE  H14R 5228   3.809   5.300  13.607 -0.5510  0.4825  0.2464
   41DOPE  H14S 5229   3.801   5.476  13.580 -1.4706  1.4652 -2.1611
   41DOPE  C215 5230   3.835   5.363  13.399 -0.4332  0.1947  0.3319
   41DOPE  H15R 5231   3.943   5.390  13.403 -0.3153  0.0209 -1.0469
   41DOPE  H15S 5232   3.783   5.412  13.315  1.1362  1.8267  0.2514
   41DOPE  C216 5233   3.848   5.215  13.353 -0.6160 -0.7277  0.6460
   41DOPE  H16R 5234   3.749   5.194  13.307 -1.3036 -0.5724  2.0059
   41DOPE  H16S 5235   3.873   5.152  13.441 -0.3020  0.2282  1.2528
   41DOPE  C217 5236   3.950   5.185  13.242  0.1655 -0.1957  0.1030
   41DOPE  H17R 5237   4.050   5.217  13.279 -0.5454  1.2927  0.8119
   41DOPE  H17S 5238   3.928   5.251  13.156  0.0667  2.5312  2.0846
   41DOPE  C218 5239   3.955   5.035  13.202  0.6557 -0.2788  0.3881
   41DOPE  H18R 5240   3.856   4.998  13.168  1.0197 -1.4637  0.5524
   41DOPE  H18S 5241   3.965   4.985  13.301 -0.7523  2.4154  2.0000
   41DOPE  H18T 5242   4.035   5.004  13.132 -0.1750 -3.1602  0.5977
   41DOPE   C33 5243   2.342   4.640  13.887 -0.2174 -0.5590  0.2168
   41DOPE   H3X 5244   2.309   4.541  13.847 -0.9881  0.3346 -1.4586
   41DOPE   H3Y 5245   2.284   4.720  13.837  1.6501  1.0752  0.5236
   41DOPE   C34 5246   2.313   4.642  14.039  0.4563  0.4741 -0.2580
   41DOPE   H4X 5247   2.379   4.571  14.093  0.8890  1.9244  1.1918
   41DOPE   H4Y 5248   2.343   4.743  14.074 -0.0908  0.2381  0.9443
   41DOPE   C35 5249   2.164   4.618  14.077 -0.2946  0.6014  0.1086
   41DOPE   H5X 5250   2.136   4.515  14.046 -0.8297  0.3242  1.4393
   41DOPE   H5Y 5251   2.104   4.696  14.025 -0.8052  0.1154 -0.0372
   41DOPE   C36 5252   2.122   4.628  14.225  0.0569 -0.3905 -0.2810
   41DOPE   H6X 5253   2.133   4.731  14.266 -1.3783  0.0489 -0.9048
   41DOPE   H6Y 5254   2.176   4.559  14.292  0.6872  0.1465 -0.2255
   41DOPE   C37 5255   1.970   4.619  14.245 -0.1750 -0.1261 -1.2664
   41DOPE   H7X 5256   1.920   4.693  14.180 -0.2861 -0.6885 -1.8337
   41DOPE   H7Y 5257   1.934   4.523  14.202 -0.5077  1.1030 -3.8996
   41DOPE   C38 5258   1.928   4.629  14.396  0.0326 -0.7391  0.4440
   41DOPE   H8X 5259   1.820   4.606  14.385 -0.2936  1.6208 -2.6998
   41DOPE   H8Y 5260   1.947   4.733  14.432  0.3956 -0.3703 -0.7647
   41DOPE   C39 5261   1.995   4.519  14.480  0.2728 -0.3795 -0.6023
   41DOPE   H9X 5262   1.979   4.416  14.446 -0.5332 -0.5609  0.2996
   41DOPE  C310 5263   2.077   4.539  14.592  0.8098 -0.7630 -0.3517
   41DOPE  H10X 5264   2.122   4.449  14.636  1.9168 -0.5843 -1.0901
   41DOPE  C311 5265   2.105   4.674  14.651  0.6909 -0.1736  0.2286
   41DOPE  H11X 5266   2.216   4.681  14.657  0.8718 -0.2698 -2.0634
   41DOPE  H11Y 5267   2.067   4.754  14.584  0.8180 -0.0800  0.2670
   41DOPE  C312 5268   2.034   4.693  14.783  0.0875 -0.4858 -0.1404
   41DOPE  H12X 5269   2.053   4.611  14.855  0.7722  0.1008  0.3655
   41DOPE  H12Y 5270   1.925   4.704  14.766  0.2072 -1.4799 -1.7867
   41DOPE  C313 5271   2.073   4.826  14.856 -0.2435 -0.2531 -0.6053
   41DOPE  H13X 5272   2.048   4.810  14.963  1.7175 -1.2302 -0.2519
   41DOPE  H13Y 5273   2.183   4.838  14.845 -0.2826 -0.4377 -1.2824
   41DOPE  C314 5274   2.010   4.947  14.796  0.1514  0.1921 -0.6119
   41DOPE  H14X 5275   1.903   4.929  14.771  0.4124 -1.3411 -0.7301
   41DOPE  H14Y 5276   2.053   4.970  14.696 -1.8730  1.0726 -1.3443
   41DOPE  C315 5277   2.043   5.063  14.887  0.2824 -0.2213  0.5429
   41DOPE  H15X 5278   2.152   5.068  14.908  0.1416 -3.8246  3.0322
   41DOPE  H15Y 5279   2.021   5.031  14.991  0.0906 -1.4226  0.1524
   41DOPE  C316 5280   1.976   5.201  14.857  0.0316  0.5935  0.0549
   41DOPE  H16X 5281   1.995   5.213  14.748 -0.2872  0.4993 -0.0110
   41DOPE  H16Y 5282   2.040   5.276  14.908  4.1044 -2.7329  0.4022
   41DOPE  C317 5283   1.826   5.207  14.886  0.0845  0.2668 -0.4679
   41DOPE  H17X 5284   1.788   5.103  14.890  1.1012 -0.0844  2.7071
   41DOPE  H17Y 5285   1.801   5.256  14.983 -0.6513 -1.3191  0.1844
   41DOPE  C318 5286   1.738   5.286  14.784  0.1195 -0.4883  0.3961
   41DOPE  H18X 5287   1.772   5.391  14.771  1.9669 -0.8667  1.7760
   41DOPE  H18Y 5288   1.752   5.223  14.693 -1.6586  0.4455 -0.5874
   41DOPE  H18Z 5289   1.629   5.289  14.806 -0.3823  1.1428 -1.8887
   42DOPE     N 5290   3.336   3.704  13.262 -0.0436 -0.2523  0.0162
   42DOPE   HN1 5291   3.237   3.719  13.235  0.3343  1.3152 -0.5561
   42DOPE   HN2 5292   3.355   3.603  13.243  1.9931  0.2123 -0.6807
   42DOPE   HN3 5293   3.345   3.713  13.365 -1.5277  1.6078  0.0332
   42DOPE   C12 5294   3.430   3.797  13.184 -0.4910  0.5709  0.2378
   42DOPE  H12A 5295   3.420   3.762  13.080 -0.6401  2.7371 -0.5423
   42DOPE  H12B 5296   3.534   3.776  13.217 -0.6502 -1.1857 -0.3008
   42DOPE   C11 5297   3.396   3.945  13.205 -0.1921 -0.0336  0.3763
   42DOPE  H11A 5298   3.465   4.008  13.145  1.8386 -0.0222  2.5624
   42DOPE  H11B 5299   3.415   3.974  13.311 -0.5765 -0.0149  0.4405
   42DOPE     P 5300   3.180   4.089  13.229 -0.0783  0.0930  0.1367
   42DOPE   O13 5301   3.037   4.087  13.200  0.2793 -0.4571 -0.6060
   42DOPE   O14 5302   3.259   4.207  13.194 -0.3473  0.2597  0.0826
   42DOPE   O11 5303   3.190   4.082  13.384  0.0402  0.3977 -0.7805
   42DOPE   O12 5304   3.262   3.968  13.175  0.6639  0.2441 -0.0131
   42DOPE    C1 5305   3.127   3.970  13.452  0.1368 -0.2863  0.0986
   42DOPE    HA 5306   3.201   3.925  13.522 -0.1336 -0.8515  0.0216
   42DOPE    HB 5307   3.088   3.884  13.394  0.3933  0.2496 -0.8813
   42DOPE    C2 5308   3.007   4.021  13.534 -0.2111  0.1866 -0.0360
   42DOPE    HS 5309   2.929   4.059  13.465 -1.6602 -1.3673  0.6779
   42DOPE   O21 5310   3.058   4.120  13.630  0.0989 -0.2771  0.3813
   42DOPE   C21 5311   2.980   4.220  13.666  0.0802 -0.0329 -0.2145
   42DOPE   O22 5312   2.860   4.222  13.653  0.1960 -0.0652  0.8256
   42DOPE   C22 5313   3.060   4.319  13.744  0.6135  0.3732  0.4587
   42DOPE   H2R 5314   3.081   4.398  13.668 -0.7423  0.6826  0.3905
   42DOPE   H2S 5315   3.159   4.276  13.772  0.9653  0.7990 -0.1001
   42DOPE    C3 5316   2.939   3.906  13.612 -0.4485  0.7070 -0.3771
   42DOPE    HX 5317   2.917   3.833  13.532 -0.0160  0.0578  0.0836
   42DOPE    HY 5318   2.845   3.953  13.647 -0.0276  1.3730 -0.1032
   42DOPE   O31 5319   3.011   3.853  13.724 -0.0044  0.1136  0.6910
   42DOPE   C31 5320   2.953   3.741  13.758  0.1669  0.0603 -0.1113
   42DOPE   O32 5321   2.857   3.687  13.704  0.2580 -0.7308  0.0289
   42DOPE   C32 5322   3.017   3.690  13.894 -0.3888  0.0603 -0.5893
   42DOPE   H2X 5323   3.114   3.639  13.875 -0.3379 -0.3784  0.7606
   42DOPE   H2Y 5324   3.038   3.776  13.961 -0.3910  1.0185 -1.7827
   42DOPE   C23 5325   2.979   4.393  13.860 -1.4052  0.7504  0.1488
   42DOPE   H3R 5326   2.941   4.317  13.932 -0.0202  0.3300  0.4652
   42DOPE   H3S 5327   2.892   4.441  13.810 -1.9111 -0.6204 -0.3621
   42DOPE   C24 5328   3.065   4.506  13.930 -0.0066  0.4542 -0.1374
   42DOPE   H4R 5329   3.116   4.558  13.846 -0.1506  1.6418  0.4916
   42DOPE   H4S 5330   3.147   4.456  13.986  0.8101  0.4924 -1.2711
   42DOPE   C25 5331   2.995   4.596  14.031  0.0753 -0.3259  0.6427
   42DOPE   H5R 5332   3.050   4.690  14.055  0.5005 -0.7704  1.4289
   42DOPE   H5S 5333   2.969   4.537  14.121 -0.0747  0.9016  1.4235
   42DOPE   C26 5334   2.857   4.643  13.982  0.8153 -0.0074  0.1833
   42DOPE   H6R 5335   2.781   4.562  13.974 -1.7477  2.1643  1.1369
   42DOPE   H6S 5336   2.856   4.693  13.883 -1.5934 -0.1256  0.1057
   42DOPE   C27 5337   2.774   4.736  14.082 -0.3490 -0.3033  0.3399
   42DOPE   H7R 5338   2.701   4.789  14.017 -0.3958 -0.2313  0.4510
   42DOPE   H7S 5339   2.846   4.811  14.120 -0.0532  0.4942 -1.6397
   42DOPE   C28 5340   2.699   4.668  14.200  0.4833  0.6053  0.1875
   42DOPE   H8R 5341   2.774   4.632  14.273  0.4425  0.4910  0.1739
   42DOPE   H8S 5342   2.644   4.575  14.172 -0.3894  0.8908  0.9125
   42DOPE   C29 5343   2.590   4.757  14.253  0.8643  0.2233 -0.3701
   42DOPE   H9R 5344   2.581   4.856  14.207 -0.6105 -0.5630 -1.9056
   42DOPE  C210 5345   2.500   4.727  14.348 -0.7451 -0.3392 -0.0309
   42DOPE  H10R 5346   2.418   4.796  14.373 -0.6315  0.2112 -1.1431
   42DOPE  C211 5347   2.504   4.602  14.429 -0.0955 -0.4312  0.1542
   42DOPE  H11R 5348   2.530   4.517  14.362 -0.6758 -0.9219  0.5399
   42DOPE  H11S 5349   2.405   4.574  14.471 -0.6878 -0.9966 -1.5421
   42DOPE  C212 5350   2.597   4.607  14.556  0.3230 -0.7543 -0.7585
   42DOPE  H12R 5351   2.555   4.693  14.612 -0.6800 -2.3147  1.0062
   42DOPE  H12S 5352   2.702   4.622  14.523  0.9567  0.8432  1.7379
   42DOPE  C213 5353   2.582   4.474  14.634 -0.1516  0.5910 -0.4065
   42DOPE  H13R 5354   2.580   4.386  14.566 -0.0762  0.3680 -0.1191
   42DOPE  H13S 5355   2.488   4.466  14.692 -1.2657 -4.7991 -2.4055
   42DOPE  C214 5356   2.698   4.455  14.739  0.0087 -0.9210  0.4335
   42DOPE  H14R 5357   2.700   4.536  14.815  0.2139 -0.0137 -0.4970
   42DOPE  H14S 5358   2.787   4.476  14.676 -0.0498 -3.1305 -0.4810
   42DOPE  C215 5359   2.716   4.315  14.805  0.2650 -0.1949 -0.1868
   42DOPE  H15R 5360   2.805   4.312  14.871  0.3172  1.0366 -0.1761
   42DOPE  H15S 5361   2.738   4.241  14.726  1.1632 -0.3538  0.2016
   42DOPE  C216 5362   2.594   4.270  14.877 -0.5234  0.6826  0.2349
   42DOPE  H16R 5363   2.509   4.262  14.805 -1.4144  1.8370  1.1320
   42DOPE  H16S 5364   2.554   4.343  14.950 -3.2718  0.2818 -0.7295
   42DOPE  C217 5365   2.611   4.137  14.952 -0.3483 -0.0682 -0.4048
   42DOPE  H17R 5366   2.666   4.165  15.044  2.6025  1.3316 -2.4214
   42DOPE  H17S 5367   2.679   4.063  14.906  0.5999 -0.2417  1.2040
   42DOPE  C218 5368   2.480   4.065  14.974  0.2545  0.0206  0.3970
   42DOPE  H18R 5369   2.481   3.965  15.023  1.5866 -0.9549 -1.4907
   42DOPE  H18S 5370   2.440   4.042  14.873 -0.8577 -0.4117  0.9114
   42DOPE  H18T 5371   2.409   4.136  15.022 -0.5866 -1.0803  0.8300
   42DOPE   C33 5372   2.919   3.599  13.973 -0.1434  0.3536  0.0524
   42DOPE   H3X 5373   2.890   3.504  13.924  0.9403  0.7190 -1.3428
   42DOPE   H3Y 5374   2.825   3.655  13.987 -0.3297  0.4981 -1.6784
   42DOPE   C34 5375   2.966   3.553  14.112  0.4056  0.0110 -0.0012
   42DOPE   H4X 5376   2.978   3.648  14.167 -1.0671  0.2598 -0.0709
   42DOPE   H4Y 5377   2.884   3.493  14.159  1.4719 -0.1580  1.7446
   42DOPE   C35 5378   3.089   3.462  14.121 -0.5839 -0.5569  0.6125
   42DOPE   H5X 5379   3.182   3.517  14.096 -1.1777 -0.5406 -1.8193
   42DOPE   H5Y 5380   3.081   3.379  14.047  2.4479  0.3099 -0.8367
   42DOPE   C36 5381   3.108   3.410  14.265  0.6022 -0.4543 -0.2826
   42DOPE   H6X 5382   3.014   3.353  14.283  0.3209  0.5517  1.6921
   42DOPE   H6Y 5383   3.109   3.495  14.336  2.3513  0.0857 -0.8951
   42DOPE   C37 5384   3.231   3.328  14.299 -0.4332  0.5497 -0.2187
   42DOPE   H7X 5385   3.232   3.242  14.227  2.0942  0.1253  0.2319
   42DOPE   H7Y 5386   3.328   3.377  14.277  0.8494 -1.2188  1.1704
   42DOPE   C38 5387   3.222   3.274  14.437  0.4439 -0.7165  0.5461
   42DOPE   H8X 5388   3.127   3.218  14.449  0.2548 -0.8186 -1.1909
   42DOPE   H8Y 5389   3.199   3.362  14.502 -2.6476 -0.8549 -0.2314
   42DOPE   C39 5390   3.341   3.196  14.479 -0.5626 -0.2416  0.3448
   42DOPE   H9X 5391   3.428   3.248  14.522  0.5017 -0.8871 -0.9781
   42DOPE  C310 5392   3.353   3.060  14.476  0.3943  0.1108  0.2201
   42DOPE  H10X 5393   3.441   3.010  14.518 -0.1446  0.2035  1.5129
   42DOPE  C311 5394   3.251   2.970  14.412 -0.0460 -0.1573 -0.5447
   42DOPE  H11X 5395   3.151   3.006  14.445 -0.1229 -0.8990  0.0495
   42DOPE  H11Y 5396   3.262   2.978  14.301  1.6980  1.2806 -0.3013
   42DOPE  C312 5397   3.271   2.830  14.463 -0.3881  1.3599  0.1723
   42DOPE  H12X 5398   3.175   2.774  14.461  0.9721 -1.1250 -1.7208
   42DOPE  H12Y 5399   3.296   2.831  14.571  0.3133 -0.8910  0.0947
   42DOPE  C313 5400   3.377   2.740  14.392 -0.3304 -0.0499 -0.0568
   42DOPE  H13X 5401   3.369   2.744  14.281  1.3328 -3.9804 -0.4966
   42DOPE  H13Y 5402   3.478   2.782  14.409  0.2704  0.1989 -3.5754
   42DOPE  C314 5403   3.373   2.590  14.421  0.1134 -0.3234 -0.6110
   42DOPE  H14X 5404   3.465   2.538  14.388  1.1280  1.0462 -0.0015
   42DOPE  H14Y 5405   3.273   2.557  14.383 -0.4060  0.0162  0.4189
   42DOPE  C315 5406   3.368   2.559  14.574  0.1495 -0.5833 -0.3425
   42DOPE  H15X 5407   3.284   2.606  14.628 -1.0267 -1.9006 -0.9592
   42DOPE  H15Y 5408   3.465   2.596  14.615  0.4386 -2.4589  0.8373
   42DOPE  C316 5409   3.355   2.412  14.620  0.1881 -0.8122 -0.3351
   42DOPE  H16X 5410   3.457   2.371  14.600 -0.0852 -1.2196 -0.9284
   42DOPE  H16Y 5411   3.295   2.344  14.555  0.2073 -1.4361  0.2925
   42DOPE  C317 5412   3.316   2.388  14.765 -0.9877  0.2481 -1.0082
   42DOPE  H17X 5413   3.218   2.434  14.789 -0.9896  0.2061 -0.9358
   42DOPE  H17Y 5414   3.325   2.278  14.774  1.3109  0.5916  3.2586
   42DOPE  C318 5415   3.419   2.448  14.866 -0.4087  0.2148 -0.2235
   42DOPE  H18X 5416   3.518   2.412  14.830 -1.1552 -2.2503  0.0100
   42DOPE  H18Y 5417   3.420   2.559  14.859  0.3354  0.1261 -2.0430
   42DOPE  H18Z 5418   3.404   2.404  14.967  1.3359 -1.1873 -0.5298
   43DOPE     N 5419   1.285   1.114  13.017  0.5044  1.1564 -0.1066
   43DOPE   HN1 5420   1.355   1.106  12.941 -2.2546 -0.0431 -2.7584
   43DOPE   HN2 5421   1.253   1.015  13.021  0.8766  1.0092 -0.6649
   43DOPE   HN3 5422   1.207   1.177  12.986  0.5723  0.7369 -1.1529
   43DOPE   C12 5423   1.337   1.162  13.150 -0.0847 -0.0167  0.7869
   43DOPE  H12A 5424   1.434   1.111  13.164 -1.0715 -2.4782 -0.7469
   43DOPE  H12B 5425   1.269   1.135  13.234  2.1642  0.3905  2.8270
   43DOPE   C11 5426   1.368   1.310  13.152 -0.0230 -0.0322 -0.2849
   43DOPE  H11A 5427   1.442   1.334  13.073 -0.0883  3.2901  0.5169
   43DOPE  H11B 5428   1.415   1.329  13.251 -0.4158 -0.1371 -0.0759
   43DOPE     P 5429   1.171   1.462  13.238 -0.1649 -0.2648  0.1256
   43DOPE   O13 5430   1.101   1.365  13.322  0.4346 -0.4396  0.0038
   43DOPE   O14 5431   1.087   1.571  13.184  0.0847  0.8914  0.2534
   43DOPE   O11 5432   1.289   1.532  13.313 -0.1134 -0.2015  0.1504
   43DOPE   O12 5433   1.253   1.391  13.120 -0.3966  0.1384  0.3389
   43DOPE    C1 5434   1.358   1.640  13.248  0.0517  0.0628  0.3639
   43DOPE    HA 5435   1.281   1.707  13.203 -2.0675 -0.9274  2.3363
   43DOPE    HB 5436   1.427   1.601  13.171  0.5920 -0.9740  1.3509
   43DOPE    C2 5437   1.421   1.725  13.358 -0.0085  1.0523  0.1241
   43DOPE    HS 5438   1.462   1.813  13.304  1.5280  1.4938  1.9294
   43DOPE   O21 5439   1.523   1.643  13.418 -0.8897 -0.0339  0.4932
   43DOPE   C21 5440   1.633   1.707  13.458 -0.3070 -1.0410  0.1655
   43DOPE   O22 5441   1.651   1.827  13.433 -0.8971 -0.1898 -0.0844
   43DOPE   C22 5442   1.729   1.616  13.526 -0.0797  0.1106 -0.4866
   43DOPE   H2R 5443   1.810   1.601  13.451 -0.9833  2.1424 -1.9528
   43DOPE   H2S 5444   1.677   1.521  13.552 -1.2693  0.5137 -1.3155
   43DOPE    C3 5445   1.311   1.766  13.453 -0.4696 -0.7806 -0.9145
   43DOPE    HX 5446   1.276   1.676  13.507 -0.2289 -0.9269 -1.0001
   43DOPE    HY 5447   1.229   1.812  13.394  2.5916  1.2042 -4.0031
   43DOPE   O31 5448   1.360   1.870  13.540  0.3418 -0.1848  0.5297
   43DOPE   C31 5449   1.270   1.907  13.636 -0.6213  0.2021  0.4479
   43DOPE   O32 5450   1.161   1.862  13.642  0.5844 -0.2715 -0.2540
   43DOPE   C32 5451   1.332   1.989  13.744  0.1577  0.3238 -0.4567
   43DOPE   H2X 5452   1.427   2.036  13.711  1.0644 -1.1597 -0.0697
   43DOPE   H2Y 5453   1.251   2.061  13.766 -2.1401 -1.8472 -1.2452
   43DOPE   C23 5454   1.784   1.671  13.660 -0.0007  0.3004  0.2711
   43DOPE   H3R 5455   1.825   1.774  13.653 -0.1116  0.2236 -2.6583
   43DOPE   H3S 5456   1.870   1.609  13.691 -0.9048 -1.5011 -0.6890
   43DOPE   C24 5457   1.680   1.681  13.778 -0.2223 -0.2611  0.0581
   43DOPE   H4R 5458   1.631   1.582  13.791 -1.0208  0.3260  1.7194
   43DOPE   H4S 5459   1.599   1.753  13.753  1.1878  1.2925 -0.2474
   43DOPE   C25 5460   1.738   1.705  13.920  0.3309 -0.3533 -0.7002
   43DOPE   H5R 5461   1.820   1.633  13.945  0.3511  0.4628  1.8392
   43DOPE   H5S 5462   1.658   1.703  13.996 -0.2979  0.6506 -1.3163
   43DOPE   C26 5463   1.804   1.843  13.938  0.0544 -0.2380 -0.6191
   43DOPE   H6R 5464   1.727   1.915  13.905 -0.2447  0.7156  1.9603
   43DOPE   H6S 5465   1.894   1.839  13.873 -0.2625 -3.0985 -1.0312
   43DOPE   C27 5466   1.837   1.868  14.086  0.3950  0.2705 -0.3500
   43DOPE   H7R 5467   1.907   1.791  14.126  0.4848  2.4207  4.2400
   43DOPE   H7S 5468   1.746   1.849  14.146  0.0398  2.1129 -0.2685
   43DOPE   C28 5469   1.892   2.008  14.120 -0.6198 -0.1719  0.1437
   43DOPE   H8R 5470   2.001   2.002  14.098 -0.6498 -0.8672  0.1527
   43DOPE   H8S 5471   1.873   2.018  14.229 -1.0946 -1.3731  0.1823
   43DOPE   C29 5472   1.827   2.125  14.048  0.3540 -0.0566  0.2038
   43DOPE   H9R 5473   1.849   2.124  13.940 -0.7847 -0.7618 -0.0455
   43DOPE  C210 5474   1.773   2.237  14.102 -0.2698 -0.7264  0.4379
   43DOPE  H10R 5475   1.739   2.319  14.037 -1.4180 -0.9088  0.7786
   43DOPE  C211 5476   1.752   2.271  14.248  0.1280  0.0268 -0.3282
   43DOPE  H11R 5477   1.841   2.328  14.282 -0.6733  0.0763  1.9123
   43DOPE  H11S 5478   1.738   2.178  14.307 -1.1586 -0.5627 -1.4947
   43DOPE  C212 5479   1.630   2.361  14.275  0.8746 -0.8821 -0.2171
   43DOPE  H12R 5480   1.608   2.441  14.201 -1.3371  0.4309  1.7095
   43DOPE  H12S 5481   1.635   2.409  14.375  1.4951 -0.7607 -0.3076
   43DOPE  C213 5482   1.492   2.284  14.263 -1.4067 -0.8562  0.0281
   43DOPE  H13R 5483   1.500   2.208  14.344  0.8160  1.9038  2.6470
   43DOPE  H13S 5484   1.484   2.232  14.166 -2.3169  0.5201 -0.6791
   43DOPE  C214 5485   1.380   2.388  14.277 -0.1806  0.0104 -0.1530
   43DOPE  H14R 5486   1.367   2.451  14.187 -2.8504 -0.9890 -0.5635
   43DOPE  H14S 5487   1.386   2.452  14.368 -0.3748  0.5826 -0.5419
   43DOPE  C215 5488   1.240   2.322  14.294 -0.6473 -0.3586  0.6044
   43DOPE  H15R 5489   1.230   2.249  14.212  3.0745  0.4738 -0.7827
   43DOPE  H15S 5490   1.156   2.395  14.288 -0.6835 -0.4775 -0.4879
   43DOPE  C216 5491   1.235   2.246  14.428 -0.4219 -0.0453 -0.2357
   43DOPE  H16R 5492   1.321   2.182  14.457 -0.2138  0.2909 -0.1049
   43DOPE  H16S 5493   1.141   2.188  14.420 -1.2524  0.7956  2.2518
   43DOPE  C217 5494   1.205   2.339  14.552 -0.6602 -0.8452 -0.4440
   43DOPE  H17R 5495   1.126   2.409  14.518  0.2499  0.6486  0.4429
   43DOPE  H17S 5496   1.295   2.400  14.570 -1.6069  0.1127  1.3205
   43DOPE  C218 5497   1.174   2.265  14.687 -0.0180  0.5828 -0.3633
   43DOPE  H18R 5498   1.153   2.324  14.779 -2.0654 -0.2972 -0.2226
   43DOPE  H18S 5499   1.256   2.195  14.713 -1.6957 -1.0951  0.7006
   43DOPE  H18T 5500   1.088   2.194  14.680  0.5911 -0.3650  1.3741
   43DOPE   C33 5501   1.340   1.898  13.871  0.1914  0.2511 -0.4504
   43DOPE   H3X 5502   1.410   1.813  13.861 -0.0323  0.0601 -0.3982
   43DOPE   H3Y 5503   1.238   1.859  13.891  0.0851  1.2316  1.0885
   43DOPE   C34 5504   1.385   1.972  13.994  0.0829 -0.1326 -0.3562
   43DOPE   H4X 5505   1.495   1.982  13.978  0.0728  2.9860  0.9119
   43DOPE   H4Y 5506   1.344   2.075  13.998  0.0242 -0.1737  0.1216
   43DOPE   C35 5507   1.369   1.887  14.128  0.5471 -0.3877  0.3604
   43DOPE   H5X 5508   1.426   1.793  14.116  2.0800  0.5627 -0.2066
   43DOPE   H5Y 5509   1.262   1.867  14.150  0.0550 -0.7169 -2.0007
   43DOPE   C36 5510   1.420   1.967  14.242  0.4569  0.3343 -0.4817
   43DOPE   H6X 5511   1.359   2.060  14.242  0.6951  0.4912 -0.7286
   43DOPE   H6Y 5512   1.518   2.013  14.216  0.9802 -0.3998  0.1358
   43DOPE   C37 5513   1.440   1.901  14.379  0.4296 -0.4486  0.1125
   43DOPE   H7X 5514   1.417   1.973  14.460  0.1571  0.4106 -0.7045
   43DOPE   H7Y 5515   1.371   1.815  14.384 -1.6641  1.0549 -1.2345
   43DOPE   C38 5516   1.585   1.862  14.408  0.3735  0.0136  0.2295
   43DOPE   H8X 5517   1.642   1.949  14.370  0.1203 -0.2808 -0.8728
   43DOPE   H8Y 5518   1.621   1.779  14.343  0.6761 -0.5456  1.0823
   43DOPE   C39 5519   1.611   1.832  14.548  0.0795 -0.9550 -0.5859
   43DOPE   H9X 5520   1.606   1.724  14.567  0.7003 -1.5305 -3.3646
   43DOPE  C310 5521   1.652   1.914  14.649  0.1372 -0.0377 -0.0992
   43DOPE  H10X 5522   1.678   1.866  14.745  1.8295 -0.4926 -0.7311
   43DOPE  C311 5523   1.660   2.061  14.647 -0.0948 -0.4946  0.0960
   43DOPE  H11X 5524   1.592   2.106  14.572 -1.6220 -1.1434  1.0456
   43DOPE  H11Y 5525   1.631   2.114  14.740 -2.2061 -0.0542 -0.7660
   43DOPE  C312 5526   1.806   2.106  14.621  0.4593 -0.1057 -0.4783
   43DOPE  H12X 5527   1.812   2.201  14.563  0.2355 -0.7822 -1.6468
   43DOPE  H12Y 5528   1.858   2.031  14.557  0.2069 -1.1724  0.5284
   43DOPE  C313 5529   1.885   2.128  14.755  0.4559  0.3222  0.8724
   43DOPE  H13X 5530   1.832   2.201  14.820  1.5773  0.6201  1.4685
   43DOPE  H13Y 5531   1.885   2.035  14.815 -0.7099 -0.2711 -0.0042
   43DOPE  C314 5532   2.030   2.181  14.741  0.0289 -0.4222  0.2111
   43DOPE  H14X 5533   2.020   2.277  14.687 -1.2159 -0.0612  1.0522
   43DOPE  H14Y 5534   2.089   2.112  14.677 -1.1915 -0.8722 -0.4693
   43DOPE  C315 5535   2.098   2.190  14.875  0.1834 -0.0049  0.2919
   43DOPE  H15X 5536   2.104   2.083  14.902  0.4677  0.0127  0.2954
   43DOPE  H15Y 5537   2.041   2.248  14.950  0.8405  1.8203 -0.5530
   43DOPE  C316 5538   2.247   2.228  14.867  0.3551 -0.8830  0.9526
   43DOPE  H16X 5539   2.258   2.325  14.815 -1.1985 -2.3506 -2.3704
   43DOPE  H16Y 5540   2.289   2.153  14.797 -1.0043 -1.2270  0.4942
   43DOPE  C317 5541   2.324   2.232  15.004  0.7879  0.7114 -0.1963
   43DOPE  H17X 5542   2.432   2.223  14.980  0.8305  2.4056 -0.7605
   43DOPE  H17Y 5543   2.318   2.338  15.037 -1.3742  0.9320 -1.1262
   43DOPE  C318 5544   2.288   2.128  15.108  0.0921  0.3487  0.3552
   43DOPE  H18X 5545   2.336   2.155  15.205 -0.2170  1.9758  0.0835
   43DOPE  H18Y 5546   2.179   2.129  15.129 -0.5002 -0.7975 -2.3379
   43DOPE  H18Z 5547   2.310   2.026  15.070 -3.1170  0.5349 -2.4578
   44DOPE     N 5548   4.618   0.430  13.026  0.3961 -0.2834  0.1991
   44DOPE   HN1 5549   4.704   0.479  13.054  0.2300 -0.5286  1.1497
   44DOPE   HN2 5550   4.607   0.333  13.063 -0.4681  0.0818  0.9469
   44DOPE   HN3 5551   4.612   0.423  12.922  0.7660  0.2673  0.1393
   44DOPE   C12 5552   4.489   0.503  13.075  0.0029  0.0638 -0.0483
   44DOPE  H12A 5553   4.503   0.535  13.181 -1.2498  1.6771 -0.3183
   44DOPE  H12B 5554   4.409   0.427  13.076 -0.2206  0.2092  2.9035
   44DOPE   C11 5555   4.460   0.634  12.999  0.5642  0.3558 -0.4901
   44DOPE  H11A 5556   4.454   0.603  12.893 -0.5211  1.2662 -0.7155
   44DOPE  H11B 5557   4.539   0.711  13.015  0.4637  0.5911 -1.0989
   44DOPE     P 5558   4.204   0.664  12.946 -0.3685  0.0211 -0.1663
   44DOPE   O13 5559   4.232   0.545  12.859  0.8628  0.3446  0.7060
   44DOPE   O14 5560   4.170   0.791  12.877 -0.2634 -0.0195  0.3259
   44DOPE   O11 5561   4.085   0.629  13.040  0.6934 -0.1306 -0.3518
   44DOPE   O12 5562   4.330   0.685  13.037  0.3848  0.0411 -0.0840
   44DOPE    C1 5563   4.070   0.684  13.172  0.2159 -0.0826 -0.1047
   44DOPE    HA 5564   3.968   0.679  13.214 -0.1122  0.7134 -0.7787
   44DOPE    HB 5565   4.105   0.790  13.171 -2.0708  0.7139 -1.1345
   44DOPE    C2 5566   4.147   0.607  13.290 -0.5400  0.2931  0.6299
   44DOPE    HS 5567   4.250   0.632  13.257 -0.1393 -1.5542  0.3649
   44DOPE   O21 5568   4.132   0.463  13.277 -0.0817  0.1278 -0.6362
   44DOPE   C21 5569   4.228   0.386  13.330  0.8831  0.1446  0.3497
   44DOPE   O22 5570   4.334   0.433  13.370 -0.1215 -0.4541  0.0751
   44DOPE   C22 5571   4.188   0.243  13.312 -0.1948  0.0877 -0.0466
   44DOPE   H2R 5572   4.190   0.233  13.201 -1.1285  0.8871 -0.1462
   44DOPE   H2S 5573   4.085   0.233  13.351 -0.3732  0.8218 -0.3141
   44DOPE    C3 5574   4.108   0.676  13.419 -0.3864 -0.6820 -0.2373
   44DOPE    HX 5575   4.006   0.642  13.444 -0.4205  0.5671  1.4298
   44DOPE    HY 5576   4.100   0.786  13.409 -0.0937 -0.6924 -0.6814
   44DOPE   O31 5577   4.200   0.659  13.534 -1.0085 -0.2008 -0.1099
   44DOPE   C31 5578   4.181   0.551  13.604  0.1712 -0.4875 -0.0229
   44DOPE   O32 5579   4.096   0.466  13.578  0.2882 -0.1077  0.3182
   44DOPE   C32 5580   4.271   0.543  13.721 -0.1676  0.2661 -0.4778
   44DOPE   H2X 5581   4.360   0.601  13.687  0.5293 -0.2935  0.3413
   44DOPE   H2Y 5582   4.219   0.598  13.801  0.5882  0.4362 -0.0908
   44DOPE   C23 5583   4.286   0.149  13.378  0.2007 -0.0375  0.2315
   44DOPE   H3R 5584   4.280   0.163  13.488  1.3529  0.6944  0.2276
   44DOPE   H3S 5585   4.392   0.182  13.371 -0.1097  0.8526 -0.2816
   44DOPE   C24 5586   4.301   0.008  13.321  0.2058 -0.0197 -0.2806
   44DOPE   H4R 5587   4.365   0.010  13.231 -0.1795 -0.1513 -0.5559
   44DOPE   H4S 5588   4.198  -0.022  13.293 -0.3917  1.5479  0.1205
   44DOPE   C25 5589   4.365  -0.099  13.416  0.8997  0.3911  0.1272
   44DOPE   H5R 5590   4.449  -0.038  13.455 -0.1783  2.5805 -0.7510
   44DOPE   H5S 5591   4.403  -0.188  13.362 -2.5786 -0.6782 -0.8235
   44DOPE   C26 5592   4.274  -0.157  13.530 -0.2323 -0.7489  0.1980
   44DOPE   H6R 5593   4.328  -0.247  13.568  0.6302 -0.7376 -0.9877
   44DOPE   H6S 5594   4.172  -0.185  13.496 -0.3340  0.9549 -0.9944
   44DOPE   C27 5595   4.273  -0.061  13.655 -0.2212  0.6078 -0.2858
   44DOPE   H7R 5596   4.232   0.039  13.632  0.1373  1.0851  1.0541
   44DOPE   H7S 5597   4.380  -0.042  13.680 -0.0174  2.0072 -2.0115
   44DOPE   C28 5598   4.198  -0.131  13.776  0.2431 -0.3910  0.4646
   44DOPE   H8R 5599   4.271  -0.212  13.800  0.0305 -0.9508 -0.7064
   44DOPE   H8S 5600   4.101  -0.178  13.748 -0.8217  1.1811  1.3508
   44DOPE   C29 5601   4.180  -0.048  13.902 -0.2086  0.5097  0.1099
   44DOPE   H9R 5602   4.121   0.044  13.892 -2.8730 -0.8199  2.1710
   44DOPE  C210 5603   4.238  -0.070  14.023 -0.1726 -0.5394  0.0891
   44DOPE  H10R 5604   4.220   0.006  14.100 -0.3595 -0.9386  0.4446
   44DOPE  C211 5605   4.317  -0.186  14.066  0.0860  0.6671  0.0379
   44DOPE  H11R 5606   4.300  -0.278  14.006  0.9978  1.1231 -0.9533
   44DOPE  H11S 5607   4.277  -0.217  14.165 -0.3762 -0.0537 -0.3653
   44DOPE  C212 5608   4.468  -0.173  14.078 -0.0222 -0.1914  0.1995
   44DOPE  H12R 5609   4.514  -0.250  14.143 -0.1640  0.8861  1.6263
   44DOPE  H12S 5610   4.468  -0.080  14.139 -0.5125 -0.2489  0.2875
   44DOPE  C213 5611   4.536  -0.156  13.943  0.1795  0.7001 -0.6765
   44DOPE  H13R 5612   4.510  -0.058  13.897 -0.4260  0.2588 -1.3132
   44DOPE  H13S 5613   4.505  -0.236  13.872  1.6673 -0.3626 -0.1921
   44DOPE  C214 5614   4.686  -0.164  13.966  0.3721  0.1771 -0.6923
   44DOPE  H14R 5615   4.723  -0.247  14.029  0.3619  2.0987  2.0212
   44DOPE  H14S 5616   4.718  -0.077  14.028 -0.9534 -0.9209  1.6442
   44DOPE  C215 5617   4.765  -0.160  13.834  0.0885 -0.3047 -0.2100
   44DOPE  H15R 5618   4.722  -0.077  13.775  1.7042  0.2443 -0.6886
   44DOPE  H15S 5619   4.757  -0.249  13.768  0.8858  0.1628 -0.9597
   44DOPE  C216 5620   4.914  -0.140  13.857  0.1430  0.4184  0.3255
   44DOPE  H16R 5621   4.951  -0.218  13.927  0.2829 -0.4311 -0.6710
   44DOPE  H16S 5622   4.927  -0.037  13.898 -1.8721  0.4856  0.9290
   44DOPE  C217 5623   4.984  -0.146  13.726 -0.0659 -0.3177 -0.6278
   44DOPE  H17R 5624   4.939  -0.068  13.661 -0.0595  0.1825 -0.0279
   44DOPE  H17S 5625   4.970  -0.247  13.680 -3.6511  1.0006 -2.8831
   44DOPE  C218 5626   5.136  -0.109  13.730  0.3746  0.0002  0.5118
   44DOPE  H18R 5627   5.150  -0.004  13.763  0.1922  0.7170 -1.5381
   44DOPE  H18S 5628   5.174  -0.118  13.626  0.1516  1.3353  0.2956
   44DOPE  H18T 5629   5.203  -0.169  13.795  3.2741  2.1551 -0.2829
   44DOPE   C33 5630   4.301   0.398  13.778  0.4772 -0.0964 -0.5626
   44DOPE   H3X 5631   4.410   0.386  13.795  0.6574  1.2980 -0.5555
   44DOPE   H3Y 5632   4.256   0.339  13.695 -2.3602 -0.7615  1.2947
   44DOPE   C34 5633   4.235   0.368  13.908 -0.3136  0.6951 -0.5138
   44DOPE   H4X 5634   4.281   0.277  13.950 -0.2395 -0.1804 -2.4015
   44DOPE   H4Y 5635   4.263   0.451  13.977 -0.3602  0.2575  0.0316
   44DOPE   C35 5636   4.079   0.367  13.905  0.7807 -0.0585  0.6108
   44DOPE   H5X 5637   4.053   0.292  13.827  1.4133 -1.0430  1.3253
   44DOPE   H5Y 5638   4.037   0.460  13.861 -0.9349 -1.7696 -1.6183
   44DOPE   C36 5639   4.022   0.337  14.045 -0.0201  0.5411  0.2870
   44DOPE   H6X 5640   4.044   0.430  14.102  0.6393  1.0221 -0.7295
   44DOPE   H6Y 5641   4.078   0.259  14.100 -1.0303 -0.9686 -0.7173
   44DOPE   C37 5642   3.876   0.319  14.031  0.2367  0.3462  0.3125
   44DOPE   H7X 5643   3.834   0.333  14.133 -2.7349 -1.7472 -0.4685
   44DOPE   H7Y 5644   3.838   0.392  13.956  0.9793 -0.3731 -0.7948
   44DOPE   C38 5645   3.826   0.178  13.991 -0.1147 -0.0863 -0.6489
   44DOPE   H8X 5646   3.865   0.149  13.891  0.0421 -1.0410 -0.3185
   44DOPE   H8Y 5647   3.715   0.183  13.991 -0.0970  3.1032 -2.3944
   44DOPE   C39 5648   3.891   0.071  14.078 -0.3456 -0.4610 -0.7515
   44DOPE   H9X 5649   3.981   0.023  14.038  1.8717  0.9597  2.1413
   44DOPE  C310 5650   3.849   0.041  14.204  0.3185 -0.0697 -0.3034
   44DOPE  H10X 5651   3.916  -0.023  14.263 -0.1853  0.9435  1.4358
   44DOPE  C311 5652   3.739   0.116  14.283 -0.9370 -0.0248 -0.0053
   44DOPE  H11X 5653   3.710   0.201  14.218  1.9333 -1.0192 -2.8795
   44DOPE  H11Y 5654   3.648   0.053  14.294 -1.0354  0.0638 -0.3094
   44DOPE  C312 5655   3.764   0.176  14.424 -0.8345  0.0762 -0.9529
   44DOPE  H12X 5656   3.867   0.217  14.426 -1.2937  1.2522 -0.1202
   44DOPE  H12Y 5657   3.764   0.093  14.498 -0.1084  0.0719 -0.9470
   44DOPE  C313 5658   3.669   0.283  14.476  0.0239  0.2516  0.3270
   44DOPE  H13X 5659   3.667   0.358  14.394  1.0312 -2.1164 -2.0177
   44DOPE  H13Y 5660   3.568   0.241  14.495  0.5663 -0.5867  1.4729
   44DOPE  C314 5661   3.708   0.352  14.605  0.3158 -0.0003 -0.8616
   44DOPE  H14X 5662   3.651   0.446  14.622 -0.1034 -0.2273 -1.0020
   44DOPE  H14Y 5663   3.814   0.384  14.604  0.9914 -2.0595 -2.7446
   44DOPE  C315 5664   3.686   0.277  14.735 -0.5746 -0.0734  0.1685
   44DOPE  H15X 5665   3.689   0.167  14.718 -0.2657 -0.0994  0.3897
   44DOPE  H15Y 5666   3.587   0.301  14.780 -1.0380  0.5217 -1.1032
   44DOPE  C316 5667   3.787   0.314  14.839 -0.5335 -0.3483 -0.5542
   44DOPE  H16X 5668   3.770   0.420  14.869  1.6452  0.5425 -2.1360
   44DOPE  H16Y 5669   3.894   0.312  14.809 -0.0809  3.1360  0.3241
   44DOPE  C317 5670   3.777   0.214  14.960 -0.2165 -0.3536  0.9503
   44DOPE  H17X 5671   3.670   0.186  14.970  0.2773 -2.9521 -0.2332
   44DOPE  H17Y 5672   3.832   0.123  14.930  1.3423  0.8263  0.0990
   44DOPE  C318 5673   3.825   0.264  15.090  0.6030 -0.5798  0.0239
   44DOPE  H18X 5674   3.930   0.301  15.085  0.5826 -0.7035 -1.5537
   44DOPE  H18Y 5675   3.772   0.357  15.119  2.1652 -0.1253  1.5919
   44DOPE  H18Z 5676   3.820   0.193  15.176  1.2007  0.2432  0.7634
   45DOPE     N 5677   4.957   1.222  12.772  0.0854 -0.5331  0.2511
   45DOPE   HN1 5678   4.986   1.122  12.768  0.2525 -0.4650 -0.4722
   45DOPE   HN2 5679   5.006   1.285  12.705  1.3551 -0.9758  0.7369
   45DOPE   HN3 5680   5.001   1.253  12.860  0.3775  0.2412 -0.1603
   45DOPE   C12 5681   4.805   1.227  12.758 -0.2829  0.3918  0.3220
   45DOPE  H12A 5682   4.774   1.176  12.664  0.0334  1.4557 -0.3815
   45DOPE  H12B 5683   4.768   1.332  12.752 -1.9882 -0.2312 -0.7561
   45DOPE   C11 5684   4.741   1.143  12.864  0.2277  0.1884  0.2161
   45DOPE  H11A 5685   4.633   1.143  12.838  0.3273 -2.1448 -0.4767
   45DOPE  H11B 5686   4.750   1.195  12.962 -1.9982 -1.2116  1.2391
   45DOPE     P 5687   4.906   0.945  12.954 -0.1350  0.7269 -0.0574
   45DOPE   O13 5688   5.042   0.979  12.898  0.1955  0.3093 -0.3137
   45DOPE   O14 5689   4.869   0.802  12.989  0.5283  0.1293 -0.8000
   45DOPE   O11 5690   4.906   1.031  13.077 -0.1485  0.1769 -0.2651
   45DOPE   O12 5691   4.793   1.011  12.858 -0.8560  0.1810 -0.3270
   45DOPE    C1 5692   4.803   1.018  13.185 -0.5600 -0.0429 -0.6551
   45DOPE    HA 5693   4.710   0.968  13.151 -0.7359 -1.4652  1.6742
   45DOPE    HB 5694   4.772   1.118  13.221 -2.1561 -1.1949  1.3970
   45DOPE    C2 5695   4.848   0.935  13.309 -0.4305 -0.6938  0.5375
   45DOPE    HS 5696   4.837   0.830  13.275 -0.8936 -0.4403 -0.1228
   45DOPE   O21 5697   4.776   0.965  13.426  0.5459  0.2924 -0.1538
   45DOPE   C21 5698   4.652   0.910  13.421 -0.4687 -0.5394 -0.0441
   45DOPE   O22 5699   4.619   0.828  13.335 -0.2228 -0.1249  0.3071
   45DOPE   C22 5700   4.562   0.943  13.538  0.1334  0.3620  0.9254
   45DOPE   H2R 5701   4.462   0.909  13.505  0.0458  2.0324 -0.7139
   45DOPE   H2S 5702   4.560   1.054  13.548  1.5512  0.3596  1.6175
   45DOPE    C3 5703   4.999   0.957  13.340  0.2317 -0.1671  0.2367
   45DOPE    HX 5704   4.999   1.058  13.388 -3.8600 -0.2469  0.7680
   45DOPE    HY 5705   5.068   0.963  13.253 -0.2697 -0.2876 -0.1718
   45DOPE   O31 5706   5.039   0.862  13.441 -0.8153 -0.2518  0.4517
   45DOPE   C31 5707   5.170   0.858  13.462  0.8135 -0.4713  0.5039
   45DOPE   O32 5708   5.253   0.914  13.401 -0.2532  0.6008 -0.3218
   45DOPE   C32 5709   5.200   0.784  13.592  0.6994  0.3359  0.3192
   45DOPE   H2X 5710   5.100   0.765  13.636  1.5752 -1.9474  1.4765
   45DOPE   H2Y 5711   5.239   0.684  13.563  2.2118  0.6375  1.2445
   45DOPE   C23 5712   4.593   0.874  13.674 -0.6977  1.2218  0.4722
   45DOPE   H3R 5713   4.694   0.902  13.711 -0.7217  2.6322 -0.4607
   45DOPE   H3S 5714   4.599   0.765  13.657  0.7061  1.1051  1.5077
   45DOPE   C24 5715   4.485   0.913  13.772  0.4549  0.4208 -0.1884
   45DOPE   H4R 5716   4.384   0.888  13.734 -0.0317 -0.9397  1.8972
   45DOPE   H4S 5717   4.488   1.024  13.781  2.5370  0.3216  1.0662
   45DOPE   C25 5718   4.520   0.842  13.901 -0.2340  0.2820 -0.7983
   45DOPE   H5R 5719   4.631   0.841  13.914 -0.0870  1.0462 -1.8571
   45DOPE   H5S 5720   4.482   0.738  13.894 -0.2735  0.1006  1.3171
   45DOPE   C26 5721   4.473   0.908  14.030 -0.1530 -0.4392 -0.0258
   45DOPE   H6R 5722   4.362   0.911  14.030 -0.1645 -0.3079 -1.2352
   45DOPE   H6S 5723   4.526   1.005  14.023  0.4124 -0.7498 -0.0913
   45DOPE   C27 5724   4.525   0.844  14.161 -0.3905 -0.0742  1.4330
   45DOPE   H7R 5725   4.493   0.910  14.246  0.1695  0.4927  1.2099
   45DOPE   H7S 5726   4.636   0.845  14.158 -0.3828 -0.4305 -2.0643
   45DOPE   C28 5727   4.482   0.698  14.187  0.2545 -0.1037 -0.2383
   45DOPE   H8R 5728   4.527   0.670  14.285 -1.0780 -1.4013  0.0382
   45DOPE   H8S 5729   4.520   0.637  14.103 -0.2257  0.6430 -1.0143
   45DOPE   C29 5730   4.330   0.688  14.196  0.5741 -0.5224  0.3056
   45DOPE   H9R 5731   4.277   0.781  14.174  1.0686 -0.0989  0.8598
   45DOPE  C210 5732   4.265   0.581  14.243  0.1265  0.2541  0.1931
   45DOPE  H10R 5733   4.157   0.579  14.264  0.1218 -1.6973  0.1456
   45DOPE  C211 5734   4.321   0.457  14.293  0.2476  0.0264 -0.1807
   45DOPE  H11R 5735   4.413   0.477  14.351  1.1523 -0.7465 -1.3030
   45DOPE  H11S 5736   4.354   0.391  14.210  0.1550  0.9651 -0.9803
   45DOPE  C212 5737   4.215   0.368  14.371  0.0374 -0.2325  0.2669
   45DOPE  H12R 5738   4.125   0.360  14.306 -0.7984  0.5835  1.3010
   45DOPE  H12S 5739   4.190   0.405  14.472 -0.8730  2.4125 -0.8338
   45DOPE  C213 5740   4.276   0.230  14.400  0.2640  0.1536 -0.0353
   45DOPE  H13R 5741   4.377   0.228  14.447  1.2331 -0.2898 -2.0472
   45DOPE  H13S 5742   4.292   0.175  14.305 -1.1811 -2.4507  1.1250
   45DOPE  C214 5743   4.189   0.148  14.499  0.1456 -0.0571 -0.3782
   45DOPE  H14R 5744   4.080   0.152  14.474 -0.0665 -1.8801  0.1297
   45DOPE  H14S 5745   4.199   0.193  14.600 -2.2569  0.8030 -0.4443
   45DOPE  C215 5746   4.227   0.001  14.500 -0.9086 -0.1722  0.1661
   45DOPE  H15R 5747   4.325   0.001  14.552 -0.3010  2.2466 -0.8344
   45DOPE  H15S 5748   4.232  -0.053  14.403 -2.4960  0.5429 -0.3543
   45DOPE  C216 5749   4.129  -0.068  14.589 -0.1206 -0.4855 -0.3930
   45DOPE  H16R 5750   4.032  -0.086  14.537 -0.5199  3.3995 -1.2521
   45DOPE  H16S 5751   4.099  -0.003  14.674 -1.0808 -1.4287  0.0284
   45DOPE  C217 5752   4.177  -0.198  14.660 -0.5009  0.0710 -0.1428
   45DOPE  H17R 5753   4.107  -0.223  14.742 -0.1524  0.1089  0.1678
   45DOPE  H17S 5754   4.277  -0.183  14.706  1.1692 -3.1318 -2.3065
   45DOPE  C218 5755   4.188  -0.317  14.567  0.4206 -0.3511 -1.0236
   45DOPE  H18R 5756   4.268  -0.313  14.491  0.3360  0.1676 -1.0963
   45DOPE  H18S 5757   4.090  -0.334  14.517 -1.1880  1.4492  1.2773
   45DOPE  H18T 5758   4.200  -0.412  14.624 -1.7881  0.7806  1.5966
   45DOPE   C33 5759   5.300   0.860  13.677  1.0003 -0.1291  0.2029
   45DOPE   H3X 5760   5.263   0.964  13.692 -3.9176 -1.7183  1.0027
   45DOPE   H3Y 5761   5.395   0.860  13.619  1.5175 -0.5300  1.0394
   45DOPE   C34 5762   5.308   0.801  13.822 -0.1438  0.0867 -0.1238
   45DOPE   H4X 5763   5.373   0.711  13.821 -0.0363  0.1680 -0.5149
   45DOPE   H4Y 5764   5.361   0.888  13.866 -0.7248  0.2196  0.3288
   45DOPE   C35 5765   5.182   0.786  13.906 -0.3230 -0.2808 -0.0811
   45DOPE   H5X 5766   5.117   0.703  13.870  1.3995 -1.8466  0.2983
   45DOPE   H5Y 5767   5.123   0.880  13.894 -0.2834 -0.3670 -1.0433
   45DOPE   C36 5768   5.217   0.780  14.059  0.2177  0.4877 -0.5379
   45DOPE   H6X 5769   5.279   0.865  14.094 -1.9761  1.7223  0.5922
   45DOPE   H6Y 5770   5.275   0.690  14.088  0.6224  1.0788  0.5619
   45DOPE   C37 5771   5.087   0.796  14.136 -0.8370  0.0444  0.2090
   45DOPE   H7X 5772   5.026   0.880  14.094 -0.8710 -0.7082 -1.3298
   45DOPE   H7Y 5773   5.029   0.706  14.106  0.0292 -0.8687  1.2040
   45DOPE   C38 5774   5.095   0.789  14.291 -0.5867  0.3558  0.5607
   45DOPE   H8X 5775   4.994   0.787  14.337 -1.9429 -0.3087 -2.1959
   45DOPE   H8Y 5776   5.147   0.878  14.331 -1.5999  2.3085 -2.2267
   45DOPE   C39 5777   5.165   0.657  14.336  0.3070 -0.2989 -0.4231
   45DOPE   H9X 5778   5.270   0.678  14.358  0.4921  1.6029 -2.7361
   45DOPE  C310 5779   5.106   0.536  14.358 -0.0922  0.8325  0.0432
   45DOPE  H10X 5780   5.172   0.459  14.400  0.1599 -0.2781 -2.2654
   45DOPE  C311 5781   4.957   0.499  14.345  0.5683  0.1932 -0.2916
   45DOPE  H11X 5782   4.897   0.583  14.305  1.0999  0.3967 -0.6776
   45DOPE  H11Y 5783   4.940   0.416  14.273 -1.1486  0.7680 -0.5829
   45DOPE  C312 5784   4.886   0.481  14.480  0.2147  0.0884 -0.5035
   45DOPE  H12X 5785   4.922   0.391  14.535 -0.5951  2.0488  3.6221
   45DOPE  H12Y 5786   4.781   0.450  14.461 -0.1451  0.2999  1.0305
   45DOPE  C313 5787   4.890   0.608  14.570  0.0037 -0.2861 -0.2071
   45DOPE  H13X 5788   4.992   0.646  14.588  0.1016  0.6627 -2.3821
   45DOPE  H13Y 5789   4.845   0.692  14.513 -0.7715  0.3495  1.2981
   45DOPE  C314 5790   4.816   0.597  14.698  0.3433 -0.4949  0.4946
   45DOPE  H14X 5791   4.715   0.580  14.654  0.0604  1.7893  0.1177
   45DOPE  H14Y 5792   4.811   0.688  14.762  0.4379  0.0069 -0.1936
   45DOPE  C315 5793   4.851   0.481  14.785 -0.2876  0.5654  0.7661
   45DOPE  H15X 5794   4.961   0.466  14.774 -0.7748 -1.7808 -1.8218
   45DOPE  H15Y 5795   4.801   0.398  14.732  0.8400 -0.3051  1.0387
   45DOPE  C316 5796   4.827   0.489  14.938  0.8124 -0.2674 -0.5942
   45DOPE  H16X 5797   4.719   0.486  14.961  0.5477  0.0725 -1.6929
   45DOPE  H16Y 5798   4.862   0.590  14.968 -1.4847  1.3564 -2.8895
   45DOPE  C317 5799   4.903   0.371  15.018  0.0391  0.3547  1.0500
   45DOPE  H17X 5800   4.863   0.272  14.986  0.6463 -0.4295  2.6415
   45DOPE  H17Y 5801   5.008   0.376  14.984  0.1413  0.7297  1.4135
   45DOPE  C318 5802   4.911   0.391  15.166 -0.3650  0.7170  0.4276
   45DOPE  H18X 5803   4.957   0.485  15.204 -0.8525  1.5469 -0.9505
   45DOPE  H18Y 5804   4.807   0.388  15.206 -1.8436  1.6324 -2.9659
   45DOPE  H18Z 5805   4.972   0.303  15.194 -1.6270  0.0133  1.0623
   46DOPE     N 5806   5.126   6.773  12.826 -0.3526 -0.8892 -0.1317
   46DOPE   HN1 5807   5.196   6.706  12.790 -0.3993 -0.4457 -1.0746
   46DOPE   HN2 5808   5.043   6.773  12.765 -1.0470 -1.2287  0.7811
   46DOPE   HN3 5809   5.162   6.869  12.843 -0.4723 -0.4926 -1.9854
   46DOPE   C12 5810   5.080   6.728  12.963  0.4384 -0.1073 -0.3689
   46DOPE  H12A 5811   5.027   6.630  12.956  0.8999 -0.4872  1.0782
   46DOPE  H12B 5812   5.017   6.809  13.004 -0.5587 -0.4363 -1.1958
   46DOPE   C11 5813   5.201   6.711  13.060 -0.0805 -0.0325  0.9064
   46DOPE  H11A 5814   5.166   6.684  13.162 -0.6949  3.1344  1.6386
   46DOPE  H11B 5815   5.257   6.806  13.071 -0.3616  0.2358  0.0667
   46DOPE     P 5816   5.369   6.506  13.056  0.1727 -0.3823  0.6036
   46DOPE   O13 5817   5.509   6.513  13.009 -0.3660 -0.0158  0.1436
   46DOPE   O14 5818   5.292   6.378  13.025  0.0215 -0.6158 -0.1157
   46DOPE   O11 5819   5.358   6.542  13.212 -0.1735 -0.5747 -0.9756
   46DOPE   O12 5820   5.281   6.616  12.994  0.0218 -0.1484  0.5620
   46DOPE    C1 5821   5.304   6.443  13.312  0.1219 -0.4677  0.1133
   46DOPE    HA 5822   5.373   6.356  13.318  1.0230  0.3193  2.3264
   46DOPE    HB 5823   5.210   6.403  13.269  0.7841 -0.4232 -1.4409
   46DOPE    C2 5824   5.304   6.494  13.457 -0.3028 -0.1670  0.2358
   46DOPE    HS 5825   5.240   6.585  13.460  2.4353  1.8783  1.0300
   46DOPE   O21 5826   5.441   6.527  13.488 -0.7950 -0.2325  0.1056
   46DOPE   C21 5827   5.468   6.642  13.549 -0.2403 -0.3207  0.4550
   46DOPE   O22 5828   5.391   6.736  13.561  0.5746  0.0771 -0.2061
   46DOPE   C22 5829   5.606   6.644  13.621  0.2986  0.3917  0.4816
   46DOPE   H2R 5830   5.680   6.641  13.538 -1.2295 -1.2873 -0.9124
   46DOPE   H2S 5831   5.622   6.553  13.683  1.7312  1.0359  1.0950
   46DOPE    C3 5832   5.250   6.389  13.556 -0.3297  0.2926  0.3018
   46DOPE    HX 5833   5.312   6.300  13.535 -1.0146 -0.1872  0.2858
   46DOPE    HY 5834   5.146   6.369  13.523 -0.1623 -0.8137  0.4034
   46DOPE   O31 5835   5.261   6.431  13.691  0.3623 -0.7490  0.5930
   46DOPE   C31 5836   5.163   6.377  13.768 -0.1190 -0.1268  0.4682
   46DOPE   O32 5837   5.065   6.313  13.723 -0.4992  0.2108  0.1148
   46DOPE   C32 5838   5.193   6.388  13.920  0.7615  0.3469  0.3780
   46DOPE   H2X 5839   5.263   6.305  13.943  0.1490  0.4091  2.6392
   46DOPE   H2Y 5840   5.240   6.486  13.942  1.1842  0.6027 -1.4678
   46DOPE   C23 5841   5.611   6.761  13.711 -0.8897 -0.3094  0.6613
   46DOPE   H3R 5842   5.563   6.856  13.678  2.5519  0.5435 -2.6099
   46DOPE   H3S 5843   5.713   6.788  13.745 -1.4054 -0.1205  2.1445
   46DOPE   C24 5844   5.544   6.742  13.851  0.3571  0.5386 -0.7091
   46DOPE   H4R 5845   5.442   6.706  13.824  1.5216 -1.5560 -2.5702
   46DOPE   H4S 5846   5.551   6.837  13.908 -2.3057  0.3822  0.0432
   46DOPE   C25 5847   5.615   6.630  13.929  0.1666 -0.5431  0.0936
   46DOPE   H5R 5848   5.723   6.645  13.908 -0.0382  0.1607 -0.4842
   46DOPE   H5S 5849   5.578   6.535  13.886  0.6589 -0.2463 -1.0245
   46DOPE   C26 5850   5.590   6.637  14.076 -0.5836 -0.2887 -0.4194
   46DOPE   H6R 5851   5.632   6.735  14.108  0.3423 -0.0180 -2.3370
   46DOPE   H6S 5852   5.655   6.562  14.126 -1.1245 -1.0442 -0.8325
   46DOPE   C27 5853   5.442   6.627  14.119 -0.4076  0.4154 -0.0665
   46DOPE   H7R 5854   5.391   6.533  14.088  0.4977  0.0419 -0.4654
   46DOPE   H7S 5855   5.377   6.700  14.068 -0.5539  1.2750  1.2944
   46DOPE   C28 5856   5.433   6.641  14.271  0.5588  0.7782  0.3620
   46DOPE   H8R 5857   5.327   6.648  14.305  0.4376 -1.7614  0.6743
   46DOPE   H8S 5858   5.487   6.735  14.295  1.0277  1.0592 -1.6088
   46DOPE   C29 5859   5.483   6.509  14.331 -0.3998  0.2208  0.0474
   46DOPE   H9R 5860   5.418   6.421  14.324  0.8479 -0.6360 -1.2072
   46DOPE  C210 5861   5.597   6.491  14.405 -0.6556 -0.4428  0.2704
   46DOPE  H10R 5862   5.616   6.389  14.441 -0.6214 -1.1960 -1.7927
   46DOPE  C211 5863   5.707   6.592  14.443 -0.1094 -0.4650 -0.7079
   46DOPE  H11R 5864   5.675   6.696  14.420 -0.4848  0.4409  3.2238
   46DOPE  H11S 5865   5.800   6.562  14.389  0.7765  0.9270 -0.0036
   46DOPE  C212 5866   5.741   6.604  14.593  0.3208 -0.2250  0.3832
   46DOPE  H12R 5867   5.645   6.624  14.646  1.4229  0.3033  2.2955
   46DOPE  H12S 5868   5.804   6.695  14.602 -0.2499  0.1419  0.7132
   46DOPE  C213 5869   5.814   6.485  14.664  0.5909  0.2207  0.3125
   46DOPE  H13R 5870   5.915   6.487  14.618  0.4214  2.0872 -0.0756
   46DOPE  H13S 5871   5.763   6.389  14.643  1.2344  0.2913 -1.8861
   46DOPE  C214 5872   5.831   6.507  14.815 -0.4221  0.5450  0.4299
   46DOPE  H14R 5873   5.743   6.488  14.880 -0.5116 -0.0550  0.1360
   46DOPE  H14S 5874   5.876   6.606  14.836  2.3982 -0.6103  0.3919
   46DOPE  C215 5875   5.935   6.405  14.864 -0.1055  0.1326 -0.3597
   46DOPE  H15R 5876   5.917   6.300  14.833  1.5726  0.0032 -0.9823
   46DOPE  H15S 5877   5.929   6.404  14.975 -1.7719 -1.2636 -0.4165
   46DOPE  C216 5878   6.079   6.442  14.829 -0.5363 -0.3175  0.2795
   46DOPE  H16R 5879   6.090   6.450  14.719 -3.4008  0.9352 -0.0067
   46DOPE  H16S 5880   6.154   6.366  14.859  1.4448  0.8753 -1.4090
   46DOPE  C217 5881   6.128   6.572  14.877 -0.2272 -0.0991  0.5559
   46DOPE  H17R 5882   6.082   6.658  14.824 -0.0633  0.3326  1.1083
   46DOPE  H17S 5883   6.235   6.590  14.853  0.4617 -2.9520  1.1354
   46DOPE  C218 5884   6.112   6.598  15.031 -0.0140 -0.5027  0.1305
   46DOPE  H18R 5885   6.178   6.532  15.091 -1.4379  1.1154  3.8162
   46DOPE  H18S 5886   6.010   6.573  15.068 -0.0872 -0.2029  0.1382
   46DOPE  H18T 5887   6.139   6.703  15.056  1.7658 -1.1351  1.0233
   46DOPE   C33 5888   5.072   6.384  14.013  0.4799 -0.3047  0.5898
   46DOPE   H3X 5889   5.028   6.282  14.023 -2.1293  0.9335  3.4622
   46DOPE   H3Y 5890   4.990   6.435  13.957 -0.7891 -1.4514  1.3319
   46DOPE   C34 5891   5.093   6.449  14.147  0.5803 -0.0844  0.0888
   46DOPE   H4X 5892   5.186   6.411  14.196  0.7342  0.0148 -0.1269
   46DOPE   H4Y 5893   5.098   6.559  14.135 -0.6886 -0.1570 -1.3115
   46DOPE   C35 5894   4.984   6.417  14.242 -0.3270 -0.4093 -0.5275
   46DOPE   H5X 5895   4.986   6.308  14.266  0.5371 -0.4468 -0.7465
   46DOPE   H5Y 5896   4.882   6.434  14.200 -1.2693 -0.1197  1.7383
   46DOPE   C36 5897   5.005   6.481  14.382 -0.2755  0.3672 -0.2495
   46DOPE   H6X 5898   4.911   6.465  14.438  0.7671 -0.4369  1.3221
   46DOPE   H6Y 5899   5.016   6.590  14.363  0.1952  0.4607  0.5452
   46DOPE   C37 5900   5.127   6.428  14.458  0.1625 -0.2387  0.9454
   46DOPE   H7X 5901   5.095   6.323  14.473 -0.1107 -0.6245 -1.8158
   46DOPE   H7Y 5902   5.216   6.428  14.391 -0.8455  1.7903 -0.4969
   46DOPE   C38 5903   5.149   6.492  14.597 -0.2462  0.2081  0.4943
   46DOPE   H8X 5904   5.055   6.490  14.656  0.5321  1.4886  1.8807
   46DOPE   H8Y 5905   5.169   6.601  14.586  1.4178  0.1235  2.1619
   46DOPE   C39 5906   5.258   6.421  14.677 -0.3230 -0.1878 -0.2830
   46DOPE   H9X 5907   5.267   6.312  14.665 -0.3407 -0.4208  1.5447
   46DOPE  C310 5908   5.338   6.479  14.767 -0.3391 -0.5304 -0.8845
   46DOPE  H10X 5909   5.389   6.416  14.842  0.2595 -0.5226 -1.2792
   46DOPE  C311 5910   5.342   6.629  14.809 -0.3034  1.1089  0.1510
   46DOPE  H11X 5911   5.410   6.682  14.739  0.5051 -0.1233 -0.0145
   46DOPE  H11Y 5912   5.239   6.670  14.802 -0.4253  0.8543  0.4486
   46DOPE  C312 5913   5.387   6.646  14.961  0.2719  0.3946 -0.0416
   46DOPE  H12X 5914   5.317   6.588  15.025  0.9982 -1.7702 -1.1194
   46DOPE  H12Y 5915   5.384   6.755  14.981  1.9637  0.1570  1.8151
   46DOPE  C313 5916   5.527   6.601  14.994  0.1215  0.2525  0.6083
   46DOPE  H13X 5917   5.526   6.491  14.982  1.5924  0.2216  0.6443
   46DOPE  H13Y 5918   5.605   6.647  14.931 -0.6166  2.8060  1.4190
   46DOPE  C314 5919   5.558   6.620  15.145 -0.0404 -0.0828  0.5792
   46DOPE  H14X 5920   5.508   6.538  15.201 -0.5356  0.6987  1.3105
   46DOPE  H14Y 5921   5.511   6.709  15.192  0.6522  0.2025  0.7319
   46DOPE  C315 5922   5.702   6.621  15.173 -1.1599  0.5800 -0.2147
   46DOPE  H15X 5923   5.752   6.708  15.127  0.8800 -0.0788  0.6547
   46DOPE  H15Y 5924   5.754   6.534  15.126  1.1821  2.9484 -2.2887
   46DOPE  C316 5925   5.737   6.622  15.316 -0.0916 -0.0455 -0.6851
   46DOPE  H16X 5926   5.673   6.543  15.362 -1.3988  1.7200  0.6508
   46DOPE  H16Y 5927   5.704   6.723  15.349 -0.1763  0.7371 -2.9503
   46DOPE  C317 5928   5.879   6.598  15.357 -0.4426 -0.2140 -0.5515
   46DOPE  H17X 5929   5.907   6.494  15.331 -1.3806 -0.3274 -1.1309
   46DOPE  H17Y 5930   5.955   6.650  15.294  1.0227 -0.2510  1.1180
   46DOPE  C318 5931   5.909   6.626  15.505  0.3102 -0.3958 -0.8521
   46DOPE  H18X 5932   6.013   6.590  15.524  0.7804  0.6619 -1.3063
   46DOPE  H18Y 5933   5.898   6.733  15.531  1.8706 -1.1448  4.0510
   46DOPE  H18Z 5934   5.848   6.553  15.563  0.9496 -0.3946 -0.1622
   47DOPE     N 5935   2.427   5.027  13.428  0.1326  0.0953 -0.1397
   47DOPE   HN1 5936   2.378   5.096  13.367  0.6552  1.8455  1.3408
   47DOPE   HN2 5937   2.483   5.079  13.498  0.3928  0.8655 -0.8958
   47DOPE   HN3 5938   2.487   4.965  13.371 -0.0171 -0.7075  0.5533
   47DOPE   C12 5939   2.326   4.948  13.503 -0.2416  0.0670 -0.0147
   47DOPE  H12A 5940   2.253   5.021  13.543 -0.8728  1.6222 -3.5890
   47DOPE  H12B 5941   2.387   4.900  13.582  1.2720  0.8013 -0.6835
   47DOPE   C11 5942   2.253   4.837  13.424 -0.4299 -0.1729  0.2784
   47DOPE  H11A 5943   2.187   4.790  13.500 -0.5845  0.8350  0.7864
   47DOPE  H11B 5944   2.331   4.766  13.388  0.8820  0.4937  1.6612
   47DOPE     P 5945   2.029   4.913  13.296 -0.4888  0.2253 -0.2750
   47DOPE   O13 5946   1.976   4.806  13.210 -0.1604  0.2539  0.1684
   47DOPE   O14 5947   2.010   5.054  13.256 -0.0629  0.2366  0.6141
   47DOPE   O11 5948   1.984   4.905  13.443  0.4252  0.5217  0.4877
   47DOPE   O12 5949   2.180   4.901  13.312  0.3558  0.0907 -0.7279
   47DOPE    C1 5950   1.868   4.986  13.487  0.2902 -0.2156 -0.0405
   47DOPE    HA 5951   1.791   4.918  13.529  1.1560 -1.1023  0.1347
   47DOPE    HB 5952   1.830   5.051  13.405  0.1038  0.8659  0.8914
   47DOPE    C2 5953   1.911   5.086  13.603  0.1574  0.2931  0.3605
   47DOPE    HS 5954   2.001   5.146  13.578  1.6414 -2.0204 -0.2343
   47DOPE   O21 5955   1.938   5.019  13.713  0.1683  0.5783 -0.1046
   47DOPE   C21 5956   2.034   5.073  13.792  0.8926  0.0953 -0.5552
   47DOPE   O22 5957   2.113   5.163  13.766 -0.1103  0.4046 -0.2145
   47DOPE   C22 5958   2.044   4.997  13.924 -0.4019  1.1101  0.4692
   47DOPE   H2R 5959   2.131   4.929  13.917 -0.7255  0.8725 -3.1731
   47DOPE   H2S 5960   1.954   4.933  13.929  0.4328 -0.0528  0.8846
   47DOPE    C3 5961   1.798   5.181  13.628 -0.4665  0.2713  0.5692
   47DOPE    HX 5962   1.708   5.123  13.656 -0.6266  0.6126  0.7639
   47DOPE    HY 5963   1.772   5.238  13.536  0.0083 -1.5017 -0.7165
   47DOPE   O31 5964   1.820   5.278  13.727 -0.4931  0.2871 -0.0410
   47DOPE   C31 5965   1.911   5.374  13.711  0.3572 -0.1416  0.1502
   47DOPE   O32 5966   1.977   5.384  13.610 -0.5654 -0.4906  0.0285
   47DOPE   C32 5967   1.896   5.476  13.815 -0.0766  0.1098 -0.1971
   47DOPE   H2X 5968   1.917   5.573  13.765 -1.2482 -0.8637 -2.7512
   47DOPE   H2Y 5969   1.788   5.479  13.840  0.1509  1.7499  0.7240
   47DOPE   C23 5970   2.054   5.085  14.050  0.7118 -0.1562  0.2579
   47DOPE   H3R 5971   1.960   5.140  14.069  2.3221  3.2940 -0.9120
   47DOPE   H3S 5972   2.128   5.167  14.044  0.1523  0.2395 -2.6711
   47DOPE   C24 5973   2.093   4.993  14.169  0.2439  0.4175  0.2070
   47DOPE   H4R 5974   2.183   4.930  14.153 -0.3777 -0.7161  1.0579
   47DOPE   H4S 5975   2.007   4.931  14.202  0.2380 -0.2923 -1.1052
   47DOPE   C25 5976   2.126   5.082  14.287 -0.4076  0.3659 -0.1365
   47DOPE   H5R 5977   2.039   5.121  14.343 -0.7568  1.2083 -1.2444
   47DOPE   H5S 5978   2.188   5.167  14.251  1.1775 -1.8465 -3.0683
   47DOPE   C26 5979   2.207   4.988  14.386  0.0111 -0.6944  0.3666
   47DOPE   H6R 5980   2.301   4.949  14.342 -0.5720 -2.2066  0.4156
   47DOPE   H6S 5981   2.145   4.902  14.419 -2.2385  0.5157 -0.4830
   47DOPE   C27 5982   2.246   5.064  14.517 -0.1784 -0.4441  0.8641
   47DOPE   H7R 5983   2.303   4.990  14.579  1.2179 -0.3084 -0.2079
   47DOPE   H7S 5984   2.146   5.087  14.560  0.3878 -0.5385  2.2989
   47DOPE   C28 5985   2.326   5.187  14.488 -0.2283 -0.2258  0.5686
   47DOPE   H8R 5986   2.293   5.254  14.406  0.6386  0.3331  0.6643
   47DOPE   H8S 5987   2.420   5.136  14.455 -0.4464 -1.9149  2.3528
   47DOPE   C29 5988   2.350   5.267  14.610 -0.1066 -0.0343  0.3184
   47DOPE   H9R 5989   2.294   5.360  14.624 -1.6785 -0.7822 -0.5848
   47DOPE  C210 5990   2.445   5.244  14.700  0.4394  0.0260  0.1951
   47DOPE  H10R 5991   2.440   5.309  14.789  0.3551  1.1817 -0.6278
   47DOPE  C211 5992   2.538   5.124  14.698  0.6034  0.0048 -0.2490
   47DOPE  H11R 5993   2.592   5.111  14.602 -0.2222 -0.3302 -0.6813
   47DOPE  H11S 5994   2.473   5.035  14.710 -1.0640  0.7243 -2.9320
   47DOPE  C212 5995   2.642   5.128  14.812 -0.1575 -0.0732 -0.2181
   47DOPE  H12R 5996   2.687   5.026  14.807  1.1533  0.4352  0.7108
   47DOPE  H12S 5997   2.590   5.128  14.910  2.2786  0.1059  1.1500
   47DOPE  C213 5998   2.751   5.232  14.796 -0.3142 -0.0153  0.2647
   47DOPE  H13R 5999   2.706   5.334  14.792 -0.0089  0.1044 -0.2217
   47DOPE  H13S 6000   2.812   5.224  14.704  1.8413  0.7206  1.5435
   47DOPE  C214 6001   2.870   5.224  14.899  0.6824 -0.2890 -0.0628
   47DOPE  H14R 6002   2.963   5.195  14.845  0.7762 -1.9272  0.8947
   47DOPE  H14S 6003   2.842   5.139  14.966  0.8542 -0.2348  0.0777
   47DOPE  C215 6004   2.892   5.361  14.972  0.3078 -0.3635 -0.3399
   47DOPE  H15R 6005   2.909   5.433  14.889 -0.4628 -0.3307 -0.4730
   47DOPE  H15S 6006   2.986   5.353  15.031 -1.0302  4.8958  3.1828
   47DOPE  C216 6007   2.777   5.394  15.079 -0.4862  0.3040  0.3990
   47DOPE  H16R 6008   2.767   5.298  15.134  2.4761 -1.1506 -1.3253
   47DOPE  H16S 6009   2.685   5.404  15.017  1.1174  3.0798 -1.7614
   47DOPE  C217 6010   2.821   5.495  15.174  0.1668 -1.0940 -0.0021
   47DOPE  H17R 6011   2.832   5.589  15.116 -0.2172 -0.5252  0.8295
   47DOPE  H17S 6012   2.919   5.455  15.205  2.1026  1.7583 -1.9334
   47DOPE  C218 6013   2.718   5.516  15.282  0.5380  0.6825  0.7179
   47DOPE  H18R 6014   2.622   5.545  15.235 -1.6951 -3.2353  2.3622
   47DOPE  H18S 6015   2.764   5.590  15.351  0.9723  0.5147  0.6079
   47DOPE  H18T 6016   2.700   5.420  15.336  1.2174 -0.1878 -0.5457
   47DOPE   C33 6017   1.988   5.443  13.941  0.2727 -0.3118  1.0199
   47DOPE   H3X 6018   2.097   5.452  13.919  0.7363 -3.7691  1.4541
   47DOPE   H3Y 6019   1.963   5.338  13.968 -1.3180 -0.5756 -1.2476
   47DOPE   C34 6020   1.952   5.522  14.069  0.4922  0.9819  0.6271
   47DOPE   H4X 6021   1.982   5.629  14.063  0.7793  0.8952  0.5009
   47DOPE   H4Y 6022   1.841   5.516  14.072  0.5330  0.3677  0.9822
   47DOPE   C35 6023   2.006   5.448  14.196 -0.2529  0.1073  0.6412
   47DOPE   H5X 6024   2.114   5.428  14.182 -0.0687  2.4425 -2.2016
   47DOPE   H5Y 6025   1.954   5.351  14.210 -1.3635  0.1565 -2.4015
   47DOPE   C36 6026   1.991   5.533  14.316  0.0915  0.6134 -0.3216
   47DOPE   H6X 6027   1.884   5.560  14.330 -0.4878 -1.0701 -1.2824
   47DOPE   H6Y 6028   2.036   5.634  14.301  2.6834 -0.0604  2.0837
   47DOPE   C37 6029   2.067   5.473  14.436  0.7614  0.0537 -0.7643
   47DOPE   H7X 6030   2.034   5.368  14.446 -0.2677  0.6063  4.1077
   47DOPE   H7Y 6031   2.177   5.476  14.419  0.8676 -1.9836 -0.6345
   47DOPE   C38 6032   2.032   5.545  14.570 -0.2549 -0.3249 -0.1336
   47DOPE   H8X 6033   2.095   5.503  14.652  1.0293 -0.1448 -0.9919
   47DOPE   H8Y 6034   1.925   5.535  14.597 -0.8481  0.9362 -1.9121
   47DOPE   C39 6035   2.052   5.694  14.568 -0.0910 -0.3278 -0.3772
   47DOPE   H9X 6036   1.989   5.749  14.497  0.9228 -0.8203 -1.7062
   47DOPE  C310 6037   2.134   5.771  14.649 -0.1322  0.0883  0.2806
   47DOPE  H10X 6038   2.106   5.877  14.649 -1.4391 -0.2112 -1.3367
   47DOPE  C311 6039   2.237   5.739  14.753  0.3230  1.3191 -0.5287
   47DOPE  H11X 6040   2.281   5.638  14.737  2.0616  1.9618 -0.1298
   47DOPE  H11Y 6041   2.316   5.817  14.747  0.2763  1.6494  1.9710
   47DOPE  C312 6042   2.176   5.744  14.897  0.1874 -0.4314  0.5821
   47DOPE  H12X 6043   2.071   5.708  14.890  0.6904 -2.1695  1.5140
   47DOPE  H12Y 6044   2.185   5.851  14.925  0.6087  0.4025 -2.4024
   47DOPE  C313 6045   2.253   5.655  15.001  0.2489  0.0561  0.4133
   47DOPE  H13X 6046   2.356   5.693  14.984  0.4642 -0.6409  0.1386
   47DOPE  H13Y 6047   2.229   5.686  15.105  0.4869 -0.4840  0.6312
   47DOPE  C314 6048   2.235   5.507  14.987 -0.1556 -0.2965  1.3402
   47DOPE  H14X 6049   2.286   5.463  14.899 -2.3876 -1.1776  0.3859
   47DOPE  H14Y 6050   2.130   5.470  14.997 -1.4529  2.7787  0.3057
   47DOPE  C315 6051   2.304   5.442  15.105 -0.0929 -0.5074 -0.9704
   47DOPE  H15X 6052   2.263   5.477  15.202  1.6263  1.5312 -0.9069
   47DOPE  H15Y 6053   2.411   5.472  15.102 -0.6638  2.6281  2.3007
   47DOPE  C316 6054   2.289   5.294  15.101 -0.1548 -0.2981 -0.4243
   47DOPE  H16X 6055   2.322   5.246  15.006  1.5958 -3.9269  1.7838
   47DOPE  H16Y 6056   2.180   5.273  15.095 -0.0617 -0.7698 -0.5496
   47DOPE  C317 6057   2.349   5.221  15.221  0.2582 -0.1316  0.0027
   47DOPE  H17X 6058   2.302   5.272  15.308  1.0585  0.4424  0.1107
   47DOPE  H17Y 6059   2.317   5.115  15.211 -0.3574  0.0504  0.0038
   47DOPE  C318 6060   2.496   5.224  15.224 -0.1673  0.2043  0.5847
   47DOPE  H18X 6061   2.532   5.326  15.198 -0.9264  0.1121 -0.9130
   47DOPE  H18Y 6062   2.538   5.208  15.326 -1.5808  1.9179  1.4844
   47DOPE  H18Z 6063   2.533   5.147  15.153  0.1985  0.7275  0.2027
   48DOPE     N 6064   7.495   3.183  12.755 -0.0563  0.0026  0.4504
   48DOPE   HN1 6065   7.459   3.154  12.848 -0.3352 -1.4110 -0.0783
   48DOPE   HN2 6066   7.563   3.111  12.723  1.0995  0.6611  1.3424
   48DOPE   HN3 6067   7.545   3.274  12.764 -0.0183 -0.0854  1.2246
   48DOPE   C12 6068   7.388   3.203  12.650  0.1502  0.5484  0.3588
   48DOPE  H12A 6069   7.428   3.209  12.547  2.6334 -1.3494  1.0995
   48DOPE  H12B 6070   7.320   3.286  12.677 -1.1045 -0.2585 -0.2104
   48DOPE   C11 6071   7.284   3.083  12.649 -0.9119  0.0105  0.6838
   48DOPE  H11A 6072   7.334   2.984  12.645 -0.8607  0.0707 -0.9112
   48DOPE  H11B 6073   7.219   3.084  12.559  0.4065 -1.7953 -0.3651
   48DOPE     P 6074   7.083   2.988  12.780  0.2919 -0.0906 -0.0838
   48DOPE   O13 6075   7.113   2.859  12.710 -0.2844  0.1799 -0.1596
   48DOPE   O14 6076   6.955   3.058  12.750  0.4199 -0.0732  0.0375
   48DOPE   O11 6077   7.095   2.963  12.932  0.2539 -0.6057 -0.3260
   48DOPE   O12 6078   7.194   3.092  12.762 -0.1983 -0.2943  0.2830
   48DOPE    C1 6079   7.044   3.066  13.017 -0.1210  0.2694 -0.5821
   48DOPE    HA 6080   6.944   3.104  12.985  0.2844  1.6826 -0.2781
   48DOPE    HB 6081   7.121   3.147  13.022  3.0473 -2.5964  2.4537
   48DOPE    C2 6082   7.025   3.015  13.164  0.6417 -0.2042 -0.1340
   48DOPE    HS 6083   7.127   3.013  13.209  0.4962  0.9819  0.2723
   48DOPE   O21 6084   6.972   2.880  13.164  0.1364  0.2434  0.3579
   48DOPE   C21 6085   7.063   2.783  13.145  0.5362  0.1108 -0.5354
   48DOPE   O22 6086   7.184   2.793  13.140 -0.4138 -0.6450  0.0712
   48DOPE   C22 6087   6.997   2.644  13.145  0.3460 -0.8195 -0.2340
   48DOPE   H2R 6088   7.081   2.571  13.150  1.2162  0.1964  0.3539
   48DOPE   H2S 6089   6.943   2.627  13.050 -1.1025 -0.6403  0.5230
   48DOPE    C3 6090   6.938   3.106  13.259 -0.0662 -0.6855 -0.3911
   48DOPE    HX 6091   6.836   3.116  13.216 -0.7372 -2.5627  0.6807
   48DOPE    HY 6092   6.974   3.211  13.259  3.6588 -1.8164 -0.7244
   48DOPE   O31 6093   6.930   3.048  13.398 -0.1259 -0.1906  0.2158
   48DOPE   C31 6094   6.820   2.979  13.422  0.4621 -0.2606  0.1936
   48DOPE   O32 6095   6.716   2.986  13.355  0.9120 -0.1489  0.0327
   48DOPE   C32 6096   6.826   2.925  13.568 -0.7120  0.2137 -0.3081
   48DOPE   H2X 6097   6.887   2.833  13.579  0.5708  0.5821 -3.4321
   48DOPE   H2Y 6098   6.875   3.001  13.633 -2.3344 -0.1996  1.4863
   48DOPE   C23 6099   6.907   2.626  13.267 -0.9878 -0.3185 -0.5552
   48DOPE   H3R 6100   6.843   2.536  13.257  0.7476 -1.4907 -1.6399
   48DOPE   H3S 6101   6.842   2.715  13.279 -2.1560 -1.3286  0.8749
   48DOPE   C24 6102   6.989   2.606  13.394 -0.2145 -0.4509  0.8507
   48DOPE   H4R 6103   7.045   2.696  13.427  1.4908 -1.1921  0.1103
   48DOPE   H4S 6104   7.064   2.527  13.372 -0.0405 -0.2766  0.8207
   48DOPE   C25 6105   6.911   2.567  13.515  0.7227  0.2761 -0.0917
   48DOPE   H5R 6106   6.877   2.462  13.500  2.2218 -0.1896 -0.3724
   48DOPE   H5S 6107   6.819   2.629  13.522 -1.1102 -2.2794  0.1679
   48DOPE   C26 6108   6.989   2.569  13.648  0.9520 -0.1056 -0.6744
   48DOPE   H6R 6109   7.027   2.669  13.679  0.3469 -0.5711  1.7292
   48DOPE   H6S 6110   7.087   2.519  13.633  1.8302  0.3995  2.6877
   48DOPE   C27 6111   6.917   2.505  13.764  0.8522 -0.5646  0.0021
   48DOPE   H7R 6112   6.881   2.406  13.728  0.1294  0.4520 -2.1719
   48DOPE   H7S 6113   6.827   2.559  13.799 -0.3040 -1.8817 -0.8085
   48DOPE   C28 6114   7.007   2.485  13.885  0.1634 -0.2596  0.1286
   48DOPE   H8R 6115   7.059   2.579  13.913 -0.8777  0.1777  0.6827
   48DOPE   H8S 6116   7.084   2.410  13.861  0.7599 -0.9034  3.5544
   48DOPE   C29 6117   6.913   2.427  13.993 -0.7344  0.5122  0.4775
   48DOPE   H9R 6118   6.806   2.453  13.984 -0.7454  0.1782 -0.5998
   48DOPE  C210 6119   6.953   2.363  14.104 -0.1639 -0.3040 -0.4544
   48DOPE  H10R 6120   6.866   2.337  14.166 -0.4860 -0.3605 -0.9181
   48DOPE  C211 6121   7.094   2.346  14.151 -0.1039 -0.2539  0.2750
   48DOPE  H11R 6122   7.146   2.443  14.135  1.6071 -1.0071  1.0451
   48DOPE  H11S 6123   7.148   2.262  14.103  1.1399  0.1907  0.8436
   48DOPE  C212 6124   7.108   2.323  14.307  0.2563  0.0051  0.3232
   48DOPE  H12R 6125   7.215   2.307  14.331  1.3441  1.7808 -2.7829
   48DOPE  H12S 6126   7.052   2.232  14.339  0.7195  0.3049  2.0961
   48DOPE  C213 6127   7.055   2.447  14.388 -0.5002 -0.2895 -0.3641
   48DOPE  H13R 6128   6.945   2.453  14.373 -0.3444  0.2781 -1.3297
   48DOPE  H13S 6129   7.109   2.536  14.350  0.3553  0.2924  2.0106
   48DOPE  C214 6130   7.075   2.430  14.540  0.6531  0.1363  0.3315
   48DOPE  H14R 6131   7.069   2.531  14.585  2.7103 -0.4819  2.1368
   48DOPE  H14S 6132   7.175   2.383  14.553 -0.4890 -2.4971  0.4062
   48DOPE  C215 6133   6.968   2.341  14.598 -0.2881  0.0860 -0.4512
   48DOPE  H15R 6134   7.007   2.238  14.596 -0.4472 -0.0348  1.0374
   48DOPE  H15S 6135   6.878   2.344  14.532  1.3224 -1.8347 -2.8827
   48DOPE  C216 6136   6.938   2.381  14.744 -0.4073  0.4510 -1.1837
   48DOPE  H16R 6137   6.924   2.491  14.744 -1.6511  0.3239  0.3839
   48DOPE  H16S 6138   7.022   2.356  14.812 -1.2080 -3.1363 -1.3301
   48DOPE  C217 6139   6.820   2.306  14.809  0.5653  0.7193  0.6585
   48DOPE  H17R 6140   6.833   2.301  14.919  1.1658 -0.6015  0.5532
   48DOPE  H17S 6141   6.815   2.198  14.784 -0.9940  1.2027 -1.4241
   48DOPE  C218 6142   6.679   2.370  14.790  0.0577 -0.0783 -0.6182
   48DOPE  H18R 6143   6.691   2.466  14.844  2.9487  0.8483 -2.6536
   48DOPE  H18S 6144   6.598   2.311  14.836  0.0891  1.1434  1.0756
   48DOPE  H18T 6145   6.652   2.376  14.682 -0.7540  0.2851 -0.3999
   48DOPE   C33 6146   6.687   2.906  13.632  0.0533 -0.2931 -0.0716
   48DOPE   H3X 6147   6.640   2.814  13.590 -2.0557  0.8474 -0.3781
   48DOPE   H3Y 6148   6.612   2.985  13.609  1.4537  0.4849 -2.1926
   48DOPE   C34 6149   6.690   2.881  13.785 -0.0253  0.2146  0.1164
   48DOPE   H4X 6150   6.754   2.793  13.809 -1.4221 -0.6363  0.8511
   48DOPE   H4Y 6151   6.729   2.975  13.830  0.0706  0.4602 -0.4700
   48DOPE   C35 6152   6.547   2.866  13.842 -0.5143  0.2787 -0.0076
   48DOPE   H5X 6153   6.498   2.793  13.773  0.1536 -2.6366  2.3733
   48DOPE   H5Y 6154   6.494   2.962  13.861 -0.8739 -0.2682  2.0029
   48DOPE   C36 6155   6.542   2.805  13.983 -0.6473  0.1207 -0.1669
   48DOPE   H6X 6156   6.578   2.700  13.975 -0.8809  0.1662 -2.9504
   48DOPE   H6Y 6157   6.432   2.794  13.994 -0.4012 -0.9832  1.3663
   48DOPE   C37 6158   6.608   2.896  14.082 -0.3646 -0.0297  0.2044
   48DOPE   H7X 6159   6.716   2.915  14.063 -0.4972  1.0971  0.4845
   48DOPE   H7Y 6160   6.567   2.998  14.068  0.9341  0.3770 -0.8885
   48DOPE   C38 6161   6.595   2.852  14.228 -0.9217 -0.3628  0.4179
   48DOPE   H8X 6162   6.487   2.834  14.246 -1.2696  0.5080 -0.6155
   48DOPE   H8Y 6163   6.625   2.944  14.282 -0.7650  1.8146 -3.0093
   48DOPE   C39 6164   6.675   2.729  14.261 -0.3396 -0.8008 -0.4634
   48DOPE   H9X 6165   6.719   2.669  14.181  2.6701  1.2006 -0.4504
   48DOPE  C310 6166   6.690   2.687  14.386 -0.2575  0.2167  1.1775
   48DOPE  H10X 6167   6.750   2.597  14.408  1.8678  1.7662  1.9612
   48DOPE  C311 6168   6.639   2.755  14.512  0.0393 -0.0683 -0.4177
   48DOPE  H11X 6169   6.724   2.800  14.567 -0.8281 -0.7351  1.5897
   48DOPE  H11Y 6170   6.565   2.834  14.487 -1.7768 -0.9220  1.8518
   48DOPE  C312 6171   6.560   2.655  14.596 -0.4444 -0.4181  0.0028
   48DOPE  H12X 6172   6.634   2.584  14.639 -2.0915 -2.4614 -0.3645
   48DOPE  H12Y 6173   6.486   2.603  14.532  0.3439  0.2994 -1.5374
   48DOPE  C313 6174   6.487   2.718  14.712 -0.2905 -0.3306 -0.7291
   48DOPE  H13X 6175   6.566   2.733  14.789  1.3407  0.4315 -2.4573
   48DOPE  H13Y 6176   6.447   2.813  14.670  1.5508  1.5627  1.5416
   48DOPE  C314 6177   6.385   2.625  14.779  0.1554 -0.4834  0.0053
   48DOPE  H14X 6178   6.355   2.677  14.872 -0.5177 -0.7696 -0.0447
   48DOPE  H14Y 6179   6.429   2.529  14.813 -1.8692 -1.0030  1.2957
   48DOPE  C315 6180   6.254   2.596  14.694 -0.6298  0.4223 -0.1920
   48DOPE  H15X 6181   6.280   2.581  14.587  0.9162 -1.2147  0.3574
   48DOPE  H15Y 6182   6.171   2.666  14.719 -0.9776 -0.7425  2.1554
   48DOPE  C316 6183   6.193   2.454  14.740  0.5795  0.8504 -0.0263
   48DOPE  H16X 6184   6.207   2.440  14.850 -2.9286  0.1650  0.4503
   48DOPE  H16Y 6185   6.259   2.384  14.684 -0.8807 -0.5567 -0.0458
   48DOPE  C317 6186   6.051   2.417  14.705  0.5098 -1.0389 -0.9127
   48DOPE  H17X 6187   6.037   2.432  14.596 -1.3016 -1.6364 -0.7922
   48DOPE  H17Y 6188   6.033   2.310  14.727 -0.4399 -0.6037  0.6195
   48DOPE  C318 6189   5.950   2.504  14.772 -0.0416  0.0172 -0.4964
   48DOPE  H18X 6190   5.964   2.613  14.754  1.5557 -0.3793 -1.9335
   48DOPE  H18Y 6191   5.847   2.477  14.740  0.3488  0.0299 -1.7943
   48DOPE  H18Z 6192   5.956   2.490  14.882 -2.6724  0.2432 -0.2585
   49DOPE     N 6193   2.709   5.824  13.089 -0.0164  0.2827 -0.0880
   49DOPE   HN1 6194   2.703   5.888  13.171 -0.4028 -0.9059  0.8386
   49DOPE   HN2 6195   2.615   5.779  13.086 -0.4315  1.1150 -0.0685
   49DOPE   HN3 6196   2.777   5.749  13.110  0.5324 -0.0240 -2.6667
   49DOPE   C12 6197   2.745   5.893  12.960 -0.1935 -0.3986 -0.3876
   49DOPE  H12A 6198   2.685   5.986  12.971  1.6446  0.6338  1.8523
   49DOPE  H12B 6199   2.710   5.828  12.877 -0.8018 -1.7454  0.8870
   49DOPE   C11 6200   2.896   5.938  12.944  0.2563  0.4033 -0.8900
   49DOPE  H11A 6201   2.926   5.985  13.040  0.7095 -0.4332 -0.6061
   49DOPE  H11B 6202   2.919   6.003  12.858 -0.5344  1.9315  0.0210
   49DOPE     P 6203   3.060   5.750  13.043 -0.0756 -0.1960  0.1964
   49DOPE   O13 6204   3.126   5.854  13.121  0.1957 -0.1461 -0.2437
   49DOPE   O14 6205   3.145   5.642  12.989  0.4298 -0.1204  0.1964
   49DOPE   O11 6206   2.939   5.696  13.129 -0.4660  0.0995  0.2531
   49DOPE   O12 6207   2.973   5.818  12.929  0.4398  0.1348  0.5065
   49DOPE    C1 6208   2.962   5.595  13.233  0.8007  0.3580 -0.1054
   49DOPE    HA 6209   3.070   5.571  13.229  1.2496  1.8924  1.5171
   49DOPE    HB 6210   2.904   5.502  13.214  3.7218 -1.5246 -0.3322
   49DOPE    C2 6211   2.920   5.659  13.370 -0.6278  0.5899 -0.1610
   49DOPE    HS 6212   2.943   5.588  13.453  0.2112 -0.8435 -1.5622
   49DOPE   O21 6213   2.785   5.695  13.376  0.5139 -0.4219 -0.3119
   49DOPE   C21 6214   2.706   5.598  13.418 -0.2916 -0.3319 -0.3029
   49DOPE   O22 6215   2.739   5.480  13.436 -0.0970  0.8932  0.2990
   49DOPE   C22 6216   2.565   5.657  13.450 -0.1639 -0.0735  0.2134
   49DOPE   H2R 6217   2.521   5.674  13.350  3.1568 -2.7191 -1.9399
   49DOPE   H2S 6218   2.580   5.751  13.506  1.3961  0.7622 -1.5049
   49DOPE    C3 6219   3.005   5.785  13.401 -0.3755  0.2500 -0.2809
   49DOPE    HX 6220   2.979   5.855  13.319 -1.4457 -0.9471 -1.0019
   49DOPE    HY 6221   3.113   5.764  13.386 -0.2537 -0.0996  0.9394
   49DOPE   O31 6222   2.980   5.833  13.535 -0.6332  0.2068  0.3887
   49DOPE   C31 6223   2.920   5.945  13.548 -0.5961 -0.1752  0.1869
   49DOPE   O32 6224   2.889   6.024  13.456  0.1990  0.3953  0.3161
   49DOPE   C32 6225   2.895   5.973  13.692 -0.2890 -0.6314 -0.5105
   49DOPE   H2X 6226   2.955   5.908  13.759 -0.4487  0.8512  1.1172
   49DOPE   H2Y 6227   2.930   6.077  13.708 -1.5989  0.1929 -2.5977
   49DOPE   C23 6228   2.471   5.569  13.529 -0.4559 -0.6046  0.2420
   49DOPE   H3R 6229   2.472   5.469  13.481  3.0535 -0.9538  0.8157
   49DOPE   H3S 6230   2.370   5.616  13.531 -0.2959 -0.2150 -0.5004
   49DOPE   C24 6231   2.519   5.551  13.674  0.4930 -0.2443  0.3851
   49DOPE   H4R 6232   2.503   5.652  13.717 -1.8996 -0.5850  0.4293
   49DOPE   H4S 6233   2.628   5.528  13.679  0.8844  1.4824  0.4692
   49DOPE   C25 6234   2.435   5.449  13.758  0.0810  0.0287  0.0246
   49DOPE   H5R 6235   2.411   5.362  13.692 -2.0322  0.4678  0.1317
   49DOPE   H5S 6236   2.337   5.497  13.778  0.2605  0.0608  0.8432
   49DOPE   C26 6237   2.505   5.399  13.880 -0.6200 -0.1704 -0.2332
   49DOPE   H6R 6238   2.533   5.474  13.957 -2.8716  0.4591  0.0410
   49DOPE   H6S 6239   2.602   5.357  13.845 -0.3202 -0.5493  0.9961
   49DOPE   C27 6240   2.435   5.284  13.951 -0.0011  0.4763 -0.1508
   49DOPE   H7R 6241   2.402   5.194  13.896 -0.0292 -1.8882  3.4152
   49DOPE   H7S 6242   2.341   5.330  13.990 -0.2289  1.1052 -1.3872
   49DOPE   C28 6243   2.517   5.219  14.070  0.1805  0.2328 -0.2121
   49DOPE   H8R 6244   2.442   5.152  14.118  0.7239 -0.4250 -0.2647
   49DOPE   H8S 6245   2.532   5.306  14.137  3.8943 -1.1411  0.9898
   49DOPE   C29 6246   2.634   5.145  14.027 -0.6843 -0.3213  0.1466
   49DOPE   H9R 6247   2.618   5.075  13.943 -1.9259  0.9170 -0.7038
   49DOPE  C210 6248   2.756   5.169  14.069 -1.2213  0.0560 -0.1156
   49DOPE  H10R 6249   2.832   5.108  14.018 -1.2340  1.5553 -2.0341
   49DOPE  C211 6250   2.806   5.258  14.179 -0.7072 -0.2877  0.2951
   49DOPE  H11R 6251   2.738   5.270  14.266 -0.2049  1.3215  0.4846
   49DOPE  H11S 6252   2.832   5.360  14.143 -1.2965 -0.7732 -1.6712
   49DOPE  C212 6253   2.930   5.194  14.243 -0.6516  0.0293  0.2845
   49DOPE  H12R 6254   2.981   5.267  14.310  0.1926 -1.3083  1.1618
   49DOPE  H12S 6255   2.998   5.169  14.159 -0.2717 -0.4666  0.7337
   49DOPE  C213 6256   2.903   5.065  14.321  0.3178 -0.9275  0.0330
   49DOPE  H13R 6257   2.850   4.994  14.255 -1.1095  0.9002 -0.8676
   49DOPE  H13S 6258   2.844   5.086  14.413 -1.8820  0.6938 -1.6436
   49DOPE  C214 6259   3.036   4.996  14.355  0.0608  0.2236  0.0854
   49DOPE  H14R 6260   3.092   5.058  14.429  0.3976 -1.7366  1.5486
   49DOPE  H14S 6261   3.098   4.983  14.264  0.4853  1.3517  0.1853
   49DOPE  C215 6262   3.012   4.855  14.424  0.2665  0.0119  0.0218
   49DOPE  H15R 6263   3.110   4.823  14.464 -0.2603  0.2301  1.5562
   49DOPE  H15S 6264   2.969   4.794  14.341 -0.1560  1.2196 -0.6757
   49DOPE  C216 6265   2.923   4.857  14.546 -0.2198  0.0920  0.3799
   49DOPE  H16R 6266   2.819   4.831  14.518 -0.6717 -0.2094  2.2138
   49DOPE  H16S 6267   2.915   4.963  14.579 -0.9583  0.1154  0.1351
   49DOPE  C217 6268   2.964   4.759  14.647 -0.1759 -0.1036 -0.0015
   49DOPE  H17R 6269   3.073   4.774  14.660 -0.1707  0.4599 -0.6318
   49DOPE  H17S 6270   2.951   4.652  14.622  0.0092 -0.3040  0.7500
   49DOPE  C218 6271   2.891   4.769  14.789 -0.1590 -0.1469  0.1297
   49DOPE  H18R 6272   2.792   4.718  14.790  1.2293 -3.1117 -0.2964
   49DOPE  H18S 6273   2.884   4.874  14.824  2.8820  0.1221  0.1734
   49DOPE  H18T 6274   2.952   4.711  14.862 -1.2884 -0.1913  1.0681
   49DOPE   C33 6275   2.747   5.949  13.718  0.1132  0.4258 -0.0366
   49DOPE   H3X 6276   2.714   5.854  13.670 -0.7041  0.0760  1.1730
   49DOPE   H3Y 6277   2.689   6.031  13.670  0.6819  0.1512 -1.2405
   49DOPE   C34 6278   2.725   5.926  13.869  0.3174  0.3523  0.1165
   49DOPE   H4X 6279   2.785   5.981  13.944  0.5696 -1.0743  0.9960
   49DOPE   H4Y 6280   2.621   5.959  13.887 -0.4414 -1.9689  0.3622
   49DOPE   C35 6281   2.748   5.781  13.907  0.0318  0.6898  0.4620
   49DOPE   H5X 6282   2.841   5.753  13.854 -1.0945 -0.3991 -1.0323
   49DOPE   H5Y 6283   2.668   5.721  13.858  0.6656  0.9531 -0.9302
   49DOPE   C36 6284   2.757   5.749  14.057 -0.2290 -0.7258  0.0843
   49DOPE   H6X 6285   2.761   5.638  14.048  0.5798 -0.6681 -0.3264
   49DOPE   H6Y 6286   2.662   5.769  14.111  0.0802  2.1425 -0.2989
   49DOPE   C37 6287   2.884   5.801  14.130  0.0582 -0.4177 -0.5596
   49DOPE   H7X 6288   2.889   5.911  14.114 -3.1825 -0.1399 -0.1961
   49DOPE   H7Y 6289   2.862   5.789  14.238  0.4539 -0.9223 -0.5314
   49DOPE   C38 6290   3.017   5.738  14.089 -0.3972  0.1348  0.3595
   49DOPE   H8X 6291   3.045   5.776  13.988 -1.2707 -0.6733 -0.2004
   49DOPE   H8Y 6292   2.988   5.631  14.085 -1.1302  0.2896  1.1652
   49DOPE   C39 6293   3.119   5.769  14.194  0.2508 -0.3717 -0.0957
   49DOPE   H9X 6294   3.091   5.852  14.261 -0.2850 -0.6972  0.0875
   49DOPE  C310 6295   3.240   5.708  14.197  0.9484 -0.1940 -0.2612
   49DOPE  H10X 6296   3.309   5.741  14.277 -1.8165  0.8839  1.8385
   49DOPE  C311 6297   3.284   5.583  14.117 -0.1952 -0.1370 -0.0508
   49DOPE  H11X 6298   3.209   5.501  14.119  1.5690 -1.8378  0.6257
   49DOPE  H11Y 6299   3.306   5.615  14.013  1.2616  0.0029  0.2802
   49DOPE  C312 6300   3.415   5.504  14.158  0.0892  0.4013 -0.2827
   49DOPE  H12X 6301   3.376   5.444  14.242 -0.4688  0.9641 -0.1283
   49DOPE  H12Y 6302   3.499   5.572  14.185  2.1877 -2.5185  1.0453
   49DOPE  C313 6303   3.469   5.413  14.050  0.1850  0.0283  0.3435
   49DOPE  H13X 6304   3.387   5.343  14.023 -0.1815  1.9574 -4.3948
   49DOPE  H13Y 6305   3.489   5.465  13.954 -1.9264 -0.9769 -0.7058
   49DOPE  C314 6306   3.589   5.343  14.096 -0.2092 -0.1452 -0.3949
   49DOPE  H14X 6307   3.625   5.284  14.009  0.0211  1.0406 -1.1243
   49DOPE  H14Y 6308   3.563   5.271  14.177  1.1790 -0.6504 -0.3694
   49DOPE  C315 6309   3.716   5.429  14.131  0.0794 -0.5193  0.0670
   49DOPE  H15X 6310   3.703   5.471  14.233  3.8011 -0.4675  0.6648
   49DOPE  H15Y 6311   3.707   5.517  14.064  0.9570 -0.0672  0.5346
   49DOPE  C316 6312   3.846   5.352  14.103 -0.3582 -0.1561 -0.8036
   49DOPE  H16X 6313   3.828   5.285  14.017 -0.6139 -1.2256  0.0594
   49DOPE  H16Y 6314   3.863   5.293  14.196  2.8108  0.9842 -0.5167
   49DOPE  C317 6315   3.972   5.444  14.078  0.4734 -0.3517  0.9049
   49DOPE  H17X 6316   3.988   5.505  14.169  0.6645  0.9390  0.0361
   49DOPE  H17Y 6317   4.056   5.373  14.063  3.4717  3.3047 -1.2600
   49DOPE  C318 6318   3.962   5.535  13.956 -0.2754  0.3912 -0.4757
   49DOPE  H18X 6319   4.062   5.577  13.930 -0.3464  0.8889  0.0361
   49DOPE  H18Y 6320   3.939   5.472  13.868 -0.1036 -0.0300 -0.2248
   49DOPE  H18Z 6321   3.885   5.613  13.971  1.5628  2.2463 -0.1894
   50DOPE     N 6322   2.071   2.711  13.226  0.1423  0.5905 -0.4931
   50DOPE   HN1 6323   2.120   2.721  13.135  0.7492  1.7430 -0.0581
   50DOPE   HN2 6324   2.131   2.654  13.289  1.1847  0.8866 -1.1867
   50DOPE   HN3 6325   1.978   2.666  13.212  0.1961  0.5050 -0.5786
   50DOPE   C12 6326   2.046   2.843  13.294 -0.4889 -0.5473  0.3564
   50DOPE  H12A 6327   2.139   2.867  13.351  0.5823  0.1725 -1.6110
   50DOPE  H12B 6328   1.969   2.817  13.370 -2.0654 -0.6636 -1.2242
   50DOPE   C11 6329   1.991   2.947  13.199  0.6934  0.0066 -0.3791
   50DOPE  H11A 6330   1.913   2.903  13.133 -0.5150  0.8777  0.4113
   50DOPE  H11B 6331   2.074   2.969  13.129  0.0353 -0.5415 -1.3501
   50DOPE     P 6332   2.028   3.178  13.325 -0.1754 -0.1579  0.2247
   50DOPE   O13 6333   1.944   3.281  13.378 -0.0234 -0.6092 -0.1233
   50DOPE   O14 6334   2.134   3.211  13.227 -0.6561 -0.1373 -0.4672
   50DOPE   O11 6335   2.090   3.114  13.456 -0.6377 -0.0331 -0.0151
   50DOPE   O12 6336   1.936   3.064  13.265 -0.4844  0.4623  0.1544
   50DOPE    C1 6337   2.007   3.054  13.553  0.4544 -0.6767  0.4879
   50DOPE    HA 6338   2.068   2.973  13.600 -0.4657 -0.5721  1.8930
   50DOPE    HB 6339   1.923   2.994  13.512 -1.0823 -0.1044  2.6657
   50DOPE    C2 6340   1.958   3.152  13.667 -0.1787 -0.0916  1.0673
   50DOPE    HS 6341   1.897   3.228  13.612  1.2023  1.2533  1.3332
   50DOPE   O21 6342   2.068   3.218  13.726 -0.3804 -0.1742 -0.4055
   50DOPE   C21 6343   2.048   3.345  13.766  0.9122  0.1240 -0.2873
   50DOPE   O22 6344   1.938   3.403  13.778 -0.0404  0.3600  0.2099
   50DOPE   C22 6345   2.186   3.414  13.797 -0.2788  0.2892  0.0914
   50DOPE   H2R 6346   2.158   3.522  13.804 -0.9751  0.3395 -2.3644
   50DOPE   H2S 6347   2.232   3.406  13.696  0.5380  0.2674  0.4566
   50DOPE    C3 6348   1.877   3.086  13.781 -0.3303  0.5397 -0.7279
   50DOPE    HX 6349   1.801   3.012  13.749 -1.3233  0.1436  2.2400
   50DOPE    HY 6350   1.824   3.169  13.832 -0.5055 -1.3094  2.3063
   50DOPE   O31 6351   1.963   3.021  13.877 -0.2232  0.4385  0.3874
   50DOPE   C31 6352   1.983   3.079  13.991 -0.1965  0.2803  0.1468
   50DOPE   O32 6353   1.949   3.189  14.022 -0.7175 -0.6874 -0.1093
   50DOPE   C32 6354   2.062   2.980  14.083  0.1219 -0.2579  0.6386
   50DOPE   H2X 6355   1.989   2.905  14.121 -0.0346 -0.4201  0.0341
   50DOPE   H2Y 6356   2.138   2.926  14.022  0.1742 -0.5688  0.9784
   50DOPE   C23 6357   2.269   3.363  13.917  0.0183 -0.8163  0.0846
   50DOPE   H3R 6358   2.297   3.256  13.911  1.8803 -0.4340  1.1524
   50DOPE   H3S 6359   2.211   3.375  14.010 -0.8372 -1.2743 -0.3788
   50DOPE   C24 6360   2.394   3.451  13.929  0.8479 -1.1308  0.2410
   50DOPE   H4R 6361   2.358   3.552  13.959  1.8882 -1.5407  3.1689
   50DOPE   H4S 6362   2.456   3.451  13.837 -0.2211 -0.9883 -0.5063
   50DOPE   C25 6363   2.491   3.422  14.047 -0.1356 -0.1634  0.0082
   50DOPE   H5R 6364   2.428   3.441  14.137 -1.0902 -0.3635 -0.6041
   50DOPE   H5S 6365   2.572   3.498  14.047 -0.7160  0.4674  0.3262
   50DOPE   C26 6366   2.540   3.279  14.053 -0.2385 -0.1577  0.1503
   50DOPE   H6R 6367   2.569   3.252  13.949  0.2323  0.4191  0.1238
   50DOPE   H6S 6368   2.460   3.212  14.088 -1.0241 -0.4890 -2.0901
   50DOPE   C27 6369   2.668   3.267  14.140 -0.4111 -0.0437 -0.4048
   50DOPE   H7R 6370   2.640   3.264  14.247  1.0474 -1.7605 -0.0344
   50DOPE   H7S 6371   2.734   3.356  14.132 -0.6853  0.1507 -0.5554
   50DOPE   C28 6372   2.749   3.137  14.096  0.3731 -0.4441  0.1281
   50DOPE   H8R 6373   2.761   3.142  13.985 -2.7239 -2.3950 -0.4219
   50DOPE   H8S 6374   2.682   3.052  14.122  0.2415 -0.5012 -0.3887
   50DOPE   C29 6375   2.883   3.127  14.165  0.1719 -0.1612  0.2839
   50DOPE   H9R 6376   2.963   3.180  14.111 -0.7270  2.0066  0.9665
   50DOPE  C210 6377   2.912   3.056  14.277  0.2473 -0.0531 -0.0403
   50DOPE  H10R 6378   3.018   3.054  14.305  0.7726 -2.0939 -1.9011
   50DOPE  C211 6379   2.812   2.982  14.365  0.4975  0.2188  0.1420
   50DOPE  H11R 6380   2.830   2.874  14.347  2.3832  0.1742  1.9003
   50DOPE  H11S 6381   2.707   3.010  14.342 -0.2895 -1.8622  0.9052
   50DOPE  C212 6382   2.850   3.028  14.506  0.1972  0.1857 -0.0547
   50DOPE  H12R 6383   2.956   2.998  14.519  0.4667  0.6454 -1.0643
   50DOPE  H12S 6384   2.790   2.968  14.578  0.2128 -3.6644 -2.9313
   50DOPE  C213 6385   2.832   3.179  14.536  0.6950 -0.7928  0.2759
   50DOPE  H13R 6386   2.729   3.216  14.519  1.4312  1.5141  0.4585
   50DOPE  H13S 6387   2.891   3.235  14.460 -1.1698  0.6310 -0.1980
   50DOPE  C214 6388   2.869   3.218  14.681 -0.6735  0.2588 -0.2875
   50DOPE  H14R 6389   2.829   3.148  14.757  2.5838 -0.1873  1.1895
   50DOPE  H14S 6390   2.836   3.321  14.707  2.5558  1.0600  1.2401
   50DOPE  C215 6391   3.026   3.217  14.715  0.3557 -0.0330  0.3014
   50DOPE  H15R 6392   3.076   3.285  14.643 -1.1968  0.5060 -0.2883
   50DOPE  H15S 6393   3.066   3.113  14.720 -1.4114 -0.8086 -0.9483
   50DOPE  C216 6394   3.051   3.280  14.852  0.7847  0.6482  0.5720
   50DOPE  H16R 6395   3.001   3.228  14.937  1.7638  1.6470  1.7985
   50DOPE  H16S 6396   2.998   3.378  14.858 -1.5290 -0.5492  1.1614
   50DOPE  C217 6397   3.196   3.308  14.884  0.0092 -0.6948  0.8879
   50DOPE  H17R 6398   3.226   3.400  14.830 -1.3653  0.3964  1.9012
   50DOPE  H17S 6399   3.264   3.229  14.845 -0.7165 -0.3710 -1.1605
   50DOPE  C218 6400   3.202   3.336  15.032 -0.6107 -0.2933  0.0009
   50DOPE  H18R 6401   3.297   3.384  15.062 -1.2162  0.3637  0.9133
   50DOPE  H18S 6402   3.179   3.240  15.083 -1.3250 -0.8498 -1.2923
   50DOPE  H18T 6403   3.127   3.414  15.057  1.8279  1.8200  1.2103
   50DOPE   C33 6404   2.122   3.054  14.203 -0.1615 -0.0923  0.1165
   50DOPE   H3X 6405   2.030   3.080  14.260 -1.1441 -2.5945 -0.1911
   50DOPE   H3Y 6406   2.165   3.152  14.174 -3.1877  0.7166 -2.1462
   50DOPE   C34 6407   2.201   2.951  14.275 -0.7077  0.3957 -0.9458
   50DOPE   H4X 6408   2.127   2.869  14.282  0.2861 -0.6200 -1.8740
   50DOPE   H4Y 6409   2.287   2.916  14.214  0.0675 -0.7587  0.7357
   50DOPE   C35 6410   2.237   2.994  14.418  0.0739  0.0019  0.1973
   50DOPE   H5X 6411   2.272   2.909  14.481  0.7959  0.8852  0.9970
   50DOPE   H5Y 6412   2.139   3.024  14.462 -0.1670 -0.6822  0.1583
   50DOPE   C36 6413   2.350   3.094  14.417 -0.1323  0.6872  0.2481
   50DOPE   H6X 6414   2.320   3.187  14.362  2.2075  1.6712  0.5278
   50DOPE   H6Y 6415   2.440   3.052  14.368 -0.7729 -0.7459  0.2490
   50DOPE   C37 6416   2.393   3.143  14.554  0.2743  0.5987 -0.0477
   50DOPE   H7X 6417   2.448   3.239  14.541 -1.3172  1.5411 -0.0690
   50DOPE   H7Y 6418   2.312   3.170  14.626  1.3081  0.6418  1.1399
   50DOPE   C38 6419   2.482   3.052  14.639 -0.4005  0.2451 -0.0967
   50DOPE   H8X 6420   2.560   3.022  14.566 -0.1599 -0.3304  0.3854
   50DOPE   H8Y 6421   2.433   2.955  14.663  2.2319 -0.8251  1.4816
   50DOPE   C39 6422   2.532   3.109  14.766 -0.1476 -0.1997 -0.3767
   50DOPE   H9X 6423   2.562   3.215  14.760  3.5007 -1.1103 -0.5973
   50DOPE  C310 6424   2.541   3.041  14.889 -0.3218 -0.5250  0.0933
   50DOPE  H10X 6425   2.564   3.103  14.978 -0.4354  0.8543 -0.8080
   50DOPE  C311 6426   2.519   2.895  14.921  0.8970 -0.8507 -0.1030
   50DOPE  H11X 6427   2.458   2.847  14.842 -0.0070 -1.7797  1.1251
   50DOPE  H11Y 6428   2.617   2.842  14.922  0.8077 -1.0463 -0.7973
   50DOPE  C312 6429   2.465   2.851  15.064 -0.5018 -0.2684 -0.1989
   50DOPE  H12X 6430   2.433   2.745  15.068  0.7372 -0.6265  0.8398
   50DOPE  H12Y 6431   2.373   2.913  15.064  0.2921  0.9626  0.5008
   50DOPE  C313 6432   2.561   2.882  15.173  0.6768  0.1487  0.5482
   50DOPE  H13X 6433   2.646   2.814  15.150  1.2835  1.3172 -0.7601
   50DOPE  H13Y 6434   2.601   2.985  15.167  0.3301  0.2795  0.4517
   50DOPE  C314 6435   2.504   2.851  15.312  0.1729 -0.1257  0.1300
   50DOPE  H14X 6436   2.588   2.832  15.382 -0.9311  0.3193  1.6342
   50DOPE  H14Y 6437   2.437   2.762  15.312 -0.6786  0.4675  1.3868
   50DOPE  C315 6438   2.424   2.978  15.372 -0.5972  0.4605 -0.4302
   50DOPE  H15X 6439   2.325   2.998  15.326 -0.3790  1.1697 -0.5991
   50DOPE  H15Y 6440   2.480   3.073  15.356 -1.6927  1.5081  1.5898
   50DOPE  C316 6441   2.414   2.961  15.525 -0.2620 -0.2062  0.2835
   50DOPE  H16X 6442   2.520   2.942  15.554  1.1378  2.4856 -2.4892
   50DOPE  H16Y 6443   2.346   2.876  15.548  0.7178 -0.7032  1.5441
   50DOPE  C317 6444   2.359   3.090  15.600 -0.4586  0.1726  0.0175
   50DOPE  H17X 6445   2.403   3.114  15.699 -0.5247  1.3716 -0.2256
   50DOPE  H17Y 6446   2.398   3.179  15.546  0.9997  1.3671  2.8335
   50DOPE  C318 6447   2.213   3.103  15.598 -0.3158  0.0063 -0.1701
   50DOPE  H18X 6448   2.160   3.033  15.666  1.3603 -1.0356  0.1072
   50DOPE  H18Y 6449   2.174   3.206  15.609  1.6499  0.9751 -1.6966
   50DOPE  H18Z 6450   2.177   3.066  15.499  3.1148 -0.7152 -1.2888
   51DOPE     N 6451   5.557   7.145  12.950  0.8323 -0.0634 -0.1651
   51DOPE   HN1 6452   5.581   7.246  12.959  2.7839 -0.3371 -1.7601
   51DOPE   HN2 6453   5.643   7.095  12.920  2.2930  2.2359 -0.0983
   51DOPE   HN3 6454   5.483   7.138  12.877 -0.3823  1.4336  0.8579
   51DOPE   C12 6455   5.507   7.084  13.077  0.2043  0.5648 -0.0708
   51DOPE  H12A 6456   5.592   7.097  13.147  3.3884 -0.7784 -3.3404
   51DOPE  H12B 6457   5.490   6.980  13.043  0.6980  0.8978 -1.4318
   51DOPE   C11 6458   5.377   7.141  13.136 -0.5384  0.3695 -0.3497
   51DOPE  H11A 6459   5.414   7.225  13.199 -0.5219  1.1702 -1.3931
   51DOPE  H11B 6460   5.315   7.078  13.204 -1.8892  0.7645 -1.1769
   51DOPE     P 6461   5.164   7.135  12.979 -0.1603  0.3639 -0.2658
   51DOPE   O13 6462   5.199   7.005  12.917 -0.1943  0.5207  0.1555
   51DOPE   O14 6463   5.100   7.230  12.890  0.4096 -0.2250  0.4232
   51DOPE   O11 6464   5.084   7.107  13.107 -0.0519  0.2804 -0.2649
   51DOPE   O12 6465   5.293   7.203  13.035 -0.7229 -0.1052  0.2102
   51DOPE    C1 6466   5.002   7.196  13.186  0.0962 -0.0178 -0.1647
   51DOPE    HA 6467   4.926   7.132  13.236  0.8613  0.8026  2.1870
   51DOPE    HB 6468   4.944   7.269  13.126  0.1364  0.6260  0.5555
   51DOPE    C2 6469   5.076   7.280  13.293 -0.1241  1.0659  0.3395
   51DOPE    HS 6470   5.134   7.356  13.235 -0.5975  1.6109  0.5667
   51DOPE   O21 6471   5.155   7.192  13.371  0.5635  0.4152  0.5037
   51DOPE   C21 6472   5.248   7.253  13.437  0.0426 -0.2315  0.0965
   51DOPE   O22 6473   5.292   7.367  13.416 -0.7675  0.3812 -0.4709
   51DOPE   C22 6474   5.300   7.155  13.537  0.7014 -0.3488 -0.4626
   51DOPE   H2R 6475   5.410   7.172  13.537  0.6821  0.8264  3.1678
   51DOPE   H2S 6476   5.288   7.052  13.499  1.1383  0.2806 -2.4128
   51DOPE    C3 6477   4.980   7.360  13.387 -0.5358  0.4057  0.7208
   51DOPE    HX 6478   4.931   7.431  13.317 -0.4356 -0.2878 -0.0728
   51DOPE    HY 6479   5.043   7.415  13.460  3.5765 -2.5236 -0.2823
   51DOPE   O31 6480   4.878   7.272  13.450  0.3620 -0.0975  0.4764
   51DOPE   C31 6481   4.757   7.330  13.469  0.2465 -0.3170 -0.0866
   51DOPE   O32 6482   4.724   7.440  13.433  0.3735 -0.1074  0.2951
   51DOPE   C32 6483   4.658   7.223  13.506 -0.1906 -0.0874 -0.4292
   51DOPE   H2X 6484   4.592   7.215  13.417 -0.2716  2.3732 -0.6730
   51DOPE   H2Y 6485   4.716   7.128  13.513  0.7621  0.2879 -2.3584
   51DOPE   C23 6486   5.249   7.189  13.685  0.3655 -0.2581  0.7504
   51DOPE   H3R 6487   5.138   7.197  13.680  0.2744 -1.8170 -0.8813
   51DOPE   H3S 6488   5.286   7.288  13.718 -1.5044  1.5872 -2.2515
   51DOPE   C24 6489   5.275   7.074  13.779  0.4822 -0.3663 -0.1134
   51DOPE   H4R 6490   5.381   7.044  13.761  0.1279 -1.1115 -1.0640
   51DOPE   H4S 6491   5.212   6.984  13.759 -1.5503  0.9276  0.2248
   51DOPE   C25 6492   5.280   7.125  13.924  0.9503 -0.3535  0.1838
   51DOPE   H5R 6493   5.182   7.163  13.959  0.7097 -0.9990  0.2272
   51DOPE   H5S 6494   5.366   7.195  13.929 -0.1891  1.0811  0.3749
   51DOPE   C26 6495   5.306   6.998  14.013 -0.1280 -0.5852 -0.3707
   51DOPE   H6R 6496   5.405   6.956  13.986  0.3433  1.9880 -3.1409
   51DOPE   H6S 6497   5.217   6.932  14.002 -0.7894 -0.7203  3.9709
   51DOPE   C27 6498   5.318   7.053  14.154  0.9320 -0.2386  0.3676
   51DOPE   H7R 6499   5.313   6.967  14.225 -2.5100  1.4349  2.3840
   51DOPE   H7S 6500   5.234   7.123  14.171 -0.0519 -1.3694  0.2337
   51DOPE   C28 6501   5.444   7.138  14.189  0.1982 -0.3718 -0.0177
   51DOPE   H8R 6502   5.436   7.230  14.127 -0.1476 -0.7618 -0.5591
   51DOPE   H8S 6503   5.538   7.084  14.164  0.0417 -0.7984  0.3012
   51DOPE   C29 6504   5.442   7.153  14.347 -0.4435  0.1637 -0.1108
   51DOPE   H9R 6505   5.384   7.075  14.398  0.0162  1.4540  2.5652
   51DOPE  C210 6506   5.485   7.253  14.424  0.5644  0.6751  0.1882
   51DOPE  H10R 6507   5.472   7.234  14.532 -0.8005 -2.2121 -0.3805
   51DOPE  C211 6508   5.549   7.382  14.381 -0.7298 -0.2975 -0.6409
   51DOPE  H11R 6509   5.590   7.367  14.279  0.8562  0.2990 -0.1141
   51DOPE  H11S 6510   5.643   7.404  14.435 -1.6070  1.2767  0.3180
   51DOPE  C212 6511   5.468   7.516  14.361 -0.4224  0.3520 -0.4580
   51DOPE  H12R 6512   5.534   7.605  14.349  0.7714 -0.4691 -0.2325
   51DOPE  H12S 6513   5.407   7.535  14.452  2.0431  0.4829  1.2697
   51DOPE  C213 6514   5.379   7.517  14.237  0.3001 -0.3502  0.0980
   51DOPE  H13R 6515   5.285   7.459  14.253  0.3178 -0.6698 -0.9194
   51DOPE  H13S 6516   5.427   7.461  14.155 -2.2730 -0.5669 -1.3848
   51DOPE  C214 6517   5.345   7.652  14.199  0.1309 -0.0566 -0.4503
   51DOPE  H14R 6518   5.418   7.699  14.129 -0.6931  1.6387 -0.2172
   51DOPE  H14S 6519   5.334   7.706  14.296 -0.4726 -1.7065  0.4393
   51DOPE  C215 6520   5.203   7.662  14.134  0.2569  0.2750 -0.4021
   51DOPE  H15R 6521   5.120   7.646  14.205 -1.4019  2.4318 -1.7219
   51DOPE  H15S 6522   5.185   7.588  14.053  0.9795 -0.6331  0.2439
   51DOPE  C216 6523   5.183   7.795  14.063 -0.4586 -0.5631  0.7326
   51DOPE  H16R 6524   5.089   7.817  14.008 -1.5279 -0.3785  2.5588
   51DOPE  H16S 6525   5.258   7.805  13.981 -2.8554  0.7104 -1.4454
   51DOPE  C217 6526   5.219   7.917  14.150  0.1304  0.2253  0.7950
   51DOPE  H17R 6527   5.327   7.898  14.171  0.5351 -0.3798 -1.5962
   51DOPE  H17S 6528   5.164   7.923  14.246  0.2585  1.9967  0.7915
   51DOPE  C218 6529   5.201   8.046  14.061 -0.1780  0.6770 -0.7490
   51DOPE  H18R 6530   5.093   8.055  14.036 -1.0057 -2.3112  1.2740
   51DOPE  H18S 6531   5.258   8.054  13.966 -1.7033 -0.6906 -1.8276
   51DOPE  H18T 6532   5.223   8.136  14.122 -1.1833  0.6439 -0.3179
   51DOPE   C33 6533   4.570   7.246  13.629  0.1392 -0.0050 -0.3659
   51DOPE   H3X 6534   4.499   7.331  13.625 -2.2590 -1.6915  2.3371
   51DOPE   H3Y 6535   4.631   7.263  13.720 -1.1660  1.3184  0.3133
   51DOPE   C34 6536   4.481   7.132  13.673 -0.2366  0.1434  0.6696
   51DOPE   H4X 6537   4.392   7.135  13.606 -0.9944  0.0444  1.6441
   51DOPE   H4Y 6538   4.535   7.037  13.655  0.1256  0.5471 -0.4249
   51DOPE   C35 6539   4.423   7.156  13.812 -0.6243 -0.1235  0.5744
   51DOPE   H5X 6540   4.365   7.250  13.824 -0.6879 -0.1890  0.7881
   51DOPE   H5Y 6541   4.512   7.159  13.879  1.7273 -0.6659 -2.3377
   51DOPE   C36 6542   4.333   7.046  13.862 -0.7323  0.3500  0.2424
   51DOPE   H6X 6543   4.390   6.950  13.865  1.3216  1.5393  1.3506
   51DOPE   H6Y 6544   4.237   7.029  13.808 -0.9598 -0.3546  0.8422
   51DOPE   C37 6545   4.281   7.068  14.005 -0.1341  0.5582  0.2198
   51DOPE   H7X 6546   4.369   7.098  14.066  0.2914  2.3880 -1.2067
   51DOPE   H7Y 6547   4.212   7.155  14.010  0.8570  1.3540  0.2530
   51DOPE   C38 6548   4.230   6.946  14.078  0.6967  0.3257  0.1286
   51DOPE   H8X 6549   4.313   6.873  14.088 -0.8611 -1.4732  0.3802
   51DOPE   H8Y 6550   4.162   6.893  14.008  1.7166 -0.8925  0.0114
   51DOPE   C39 6551   4.165   6.969  14.214 -0.3919  0.2057  0.2574
   51DOPE   H9X 6552   4.058   6.995  14.207 -0.2024  1.4634  1.7407
   51DOPE  C310 6553   4.223   6.959  14.339 -0.1309 -0.4796 -0.2568
   51DOPE  H10X 6554   4.166   6.996  14.425 -0.1402 -1.6094  0.2433
   51DOPE  C311 6555   4.370   6.926  14.366 -0.0564  0.3571  0.4730
   51DOPE  H11X 6556   4.440   6.975  14.295 -1.2061  1.5399  0.1001
   51DOPE  H11Y 6557   4.396   6.973  14.463 -0.2049 -0.8694  1.1286
   51DOPE  C312 6558   4.404   6.784  14.377 -0.2276  0.1242 -0.6634
   51DOPE  H12X 6559   4.505   6.752  14.411 -0.7072 -0.4262  0.3063
   51DOPE  H12Y 6560   4.387   6.757  14.270 -3.7869 -2.9114  0.4262
   51DOPE  C313 6561   4.304   6.688  14.452  0.4571  0.7535 -0.2578
   51DOPE  H13X 6562   4.203   6.734  14.460 -0.0586 -0.5705  1.3669
   51DOPE  H13Y 6563   4.292   6.595  14.393  0.0838 -1.3532  2.8863
   51DOPE  C314 6564   4.329   6.647  14.601 -0.1178  1.4658  0.1796
   51DOPE  H14X 6565   4.430   6.600  14.603 -1.3457 -1.3167 -0.0996
   51DOPE  H14Y 6566   4.259   6.570  14.639  0.6117  0.5706 -0.2535
   51DOPE  C315 6567   4.327   6.768  14.700  0.2244 -0.5978  0.1078
   51DOPE  H15X 6568   4.236   6.830  14.684  0.3705 -0.1180  1.0571
   51DOPE  H15Y 6569   4.415   6.830  14.670  1.0380 -0.2536  2.9090
   51DOPE  C316 6570   4.335   6.729  14.845  0.2952 -0.0579  0.6626
   51DOPE  H16X 6571   4.244   6.669  14.866  0.6336 -0.0696  2.1709
   51DOPE  H16Y 6572   4.331   6.820  14.909  0.0416  1.4010 -1.3370
   51DOPE  C317 6573   4.473   6.670  14.874  0.3858 -0.0040 -0.1553
   51DOPE  H17X 6574   4.535   6.662  14.783  0.5311  0.0776 -0.0651
   51DOPE  H17Y 6575   4.520   6.746  14.941 -1.3312  2.2296 -1.3288
   51DOPE  C318 6576   4.461   6.538  14.959 -0.2548  0.0954 -0.3106
   51DOPE  H18X 6577   4.396   6.458  14.920 -0.1506 -1.1889  1.9853
   51DOPE  H18Y 6578   4.563   6.496  14.973 -0.3303 -0.0806 -0.2961
   51DOPE  H18Z 6579   4.420   6.562  15.059  0.1051  0.3444 -0.2210
   52DOPE     N 6580   1.680   3.039  13.174 -0.4266 -0.1052  0.1430
   52DOPE   HN1 6581   1.651   2.948  13.214 -1.2655 -0.1568 -0.5494
   52DOPE   HN2 6582   1.680   3.024  13.071 -2.2534 -1.9975  0.3597
   52DOPE   HN3 6583   1.780   3.053  13.202 -0.4531  1.4011 -0.4091
   52DOPE   C12 6584   1.604   3.161  13.220 -0.5201  0.3261  0.0332
   52DOPE  H12A 6585   1.512   3.164  13.158 -1.7108 -0.7831  1.6871
   52DOPE  H12B 6586   1.668   3.251  13.209 -0.0485  0.3102  2.1758
   52DOPE   C11 6587   1.575   3.136  13.368 -0.0775 -0.5458 -0.1593
   52DOPE  H11A 6588   1.524   3.232  13.391  0.4205  0.2406 -2.1204
   52DOPE  H11B 6589   1.670   3.121  13.422 -0.5598  2.3925  1.7213
   52DOPE     P 6590   1.337   3.029  13.407 -0.3498  0.0783  0.6062
   52DOPE   O13 6591   1.293   2.894  13.453  0.5882 -0.2531  0.1237
   52DOPE   O14 6592   1.272   3.073  13.284 -0.2457  0.0553  0.8586
   52DOPE   O11 6593   1.315   3.134  13.516  0.0284 -0.7727 -0.0123
   52DOPE   O12 6594   1.498   3.024  13.385 -0.2038  0.1076  1.0159
   52DOPE    C1 6595   1.399   3.157  13.630 -0.0501 -0.0855 -0.1684
   52DOPE    HA 6596   1.364   3.251  13.677  0.0165  0.2154 -0.7149
   52DOPE    HB 6597   1.507   3.164  13.604 -0.1548 -1.3254 -1.0332
   52DOPE    C2 6598   1.383   3.038  13.734  0.2199  0.2079  0.1966
   52DOPE    HS 6599   1.383   2.945  13.673 -0.6330  1.1758 -1.3416
   52DOPE   O21 6600   1.256   3.062  13.800  0.3107 -0.0219 -0.6239
   52DOPE   C21 6601   1.217   2.952  13.847  0.4352 -0.2245 -0.0367
   52DOPE   O22 6602   1.262   2.837  13.823  0.2888 -0.1000 -0.6573
   52DOPE   C22 6603   1.091   2.973  13.929 -0.0508 -0.6764  0.4132
   52DOPE   H2R 6604   1.018   2.927  13.859  1.4229 -2.3724 -0.0845
   52DOPE   H2S 6605   1.067   3.080  13.940 -3.3794 -1.0427 -1.8430
   52DOPE    C3 6606   1.497   3.031  13.837  0.0221  0.2656 -0.5266
   52DOPE    HX 6607   1.583   2.989  13.781  1.1595  2.4703 -0.5161
   52DOPE    HY 6608   1.476   2.954  13.914  2.7722 -1.6062 -1.5182
   52DOPE   O31 6609   1.521   3.167  13.893 -0.0332  0.1165 -0.1111
   52DOPE   C31 6610   1.458   3.204  14.005 -0.0839 -0.2572  0.0616
   52DOPE   O32 6611   1.388   3.142  14.079 -0.4428  0.1195 -1.0609
   52DOPE   C32 6612   1.493   3.351  14.023 -0.2453 -0.3281 -0.1854
   52DOPE   H2X 6613   1.547   3.355  14.119  1.1994  0.1409 -0.9828
   52DOPE   H2Y 6614   1.567   3.389  13.949 -0.9038  0.2582 -0.5581
   52DOPE   C23 6615   1.094   2.880  14.048 -0.4319  0.6692  0.1825
   52DOPE   H3R 6616   1.094   2.775  14.012 -0.8690  0.8764 -0.4490
   52DOPE   H3S 6617   0.991   2.890  14.089 -0.4104 -1.5046  0.8982
   52DOPE   C24 6618   1.191   2.909  14.158  0.0873 -0.0901  1.2645
   52DOPE   H4R 6619   1.208   3.017  14.180  4.4880 -0.1422 -0.7833
   52DOPE   H4S 6620   1.293   2.876  14.127 -0.1810  1.5578 -1.8379
   52DOPE   C25 6621   1.149   2.834  14.288 -0.0007 -0.1700 -0.1879
   52DOPE   H5R 6622   1.088   2.742  14.273  1.0608 -1.1305  1.0882
   52DOPE   H5S 6623   1.099   2.910  14.352  2.5952  2.8364 -1.4347
   52DOPE   C26 6624   1.263   2.784  14.371 -0.1124 -0.3065 -0.0722
   52DOPE   H6R 6625   1.343   2.861  14.370  1.3375 -1.7492 -0.0425
   52DOPE   H6S 6626   1.318   2.706  14.314  0.6370  0.1649 -0.0020
   52DOPE   C27 6627   1.235   2.726  14.500 -0.4322 -0.5276  0.1374
   52DOPE   H7R 6628   1.176   2.633  14.486  2.4222 -1.8827 -6.3496
   52DOPE   H7S 6629   1.181   2.791  14.573  0.1735 -1.5912  1.5803
   52DOPE   C28 6630   1.368   2.677  14.576 -0.4370  0.1106  0.4885
   52DOPE   H8R 6631   1.414   2.590  14.524  0.9784  0.6130  0.8401
   52DOPE   H8S 6632   1.337   2.637  14.674 -0.1021  0.9153  0.9370
   52DOPE   C29 6633   1.473   2.778  14.594 -0.3305  0.3393 -0.0237
   52DOPE   H9R 6634   1.439   2.871  14.642  4.2830  2.7983 -0.9104
   52DOPE  C210 6635   1.607   2.771  14.564  0.0425  0.3093 -0.5268
   52DOPE  H10R 6636   1.669   2.862  14.565  3.1272 -1.6102  2.1638
   52DOPE  C211 6637   1.681   2.664  14.495  0.4258  0.5294  1.0948
   52DOPE  H11R 6638   1.666   2.667  14.385  0.7372 -1.6178  0.9462
   52DOPE  H11S 6639   1.646   2.568  14.539 -0.5952  0.1987 -0.3410
   52DOPE  C212 6640   1.827   2.673  14.540 -0.1707  0.3955  0.9042
   52DOPE  H12R 6641   1.845   2.648  14.646  2.8805  0.8247  0.5776
   52DOPE  H12S 6642   1.864   2.776  14.520  2.5323 -1.1483 -3.4652
   52DOPE  C213 6643   1.912   2.579  14.454 -0.3302 -0.2962 -0.0822
   52DOPE  H13R 6644   1.884   2.587  14.347 -0.9267 -0.7299  0.0405
   52DOPE  H13S 6645   1.881   2.476  14.478 -2.1123  0.2847  0.2132
   52DOPE  C214 6646   2.067   2.599  14.460 -0.5622 -0.3075 -0.5582
   52DOPE  H14R 6647   2.095   2.592  14.567  0.7297  1.5195 -0.7271
   52DOPE  H14S 6648   2.099   2.696  14.417  0.4012 -0.7289 -0.8212
   52DOPE  C215 6649   2.139   2.487  14.389  0.8849 -0.1089  0.3465
   52DOPE  H15R 6650   2.238   2.511  14.343 -0.4126  0.1364 -2.5796
   52DOPE  H15S 6651   2.090   2.463  14.292  2.7065  0.9927 -0.9178
   52DOPE  C216 6652   2.152   2.361  14.470 -0.1999  0.7008  0.5020
   52DOPE  H16R 6653   2.057   2.309  14.494 -0.1692  1.5687  2.7442
   52DOPE  H16S 6654   2.190   2.379  14.573 -2.1011  0.3895  1.2942
   52DOPE  C217 6655   2.255   2.253  14.414 -1.1633  0.1331 -0.0390
   52DOPE  H17R 6656   2.264   2.170  14.488  0.7559 -1.9284 -2.4189
   52DOPE  H17S 6657   2.355   2.300  14.399  0.7022 -3.0519  1.3972
   52DOPE  C218 6658   2.213   2.199  14.277  0.2243 -0.6259  0.1389
   52DOPE  H18R 6659   2.284   2.128  14.230  1.6350  1.6950 -1.5173
   52DOPE  H18S 6660   2.103   2.181  14.269  0.1634 -0.1224 -0.2752
   52DOPE  H18T 6661   2.230   2.288  14.212  0.9207 -0.7036  0.2113
   52DOPE   C33 6662   1.368   3.443  14.012  0.5068 -0.5082  0.0430
   52DOPE   H3X 6663   1.288   3.404  14.079 -1.3787  1.2917 -1.0322
   52DOPE   H3Y 6664   1.329   3.440  13.908  1.9051  1.7325 -0.6049
   52DOPE   C34 6665   1.404   3.589  14.047  0.0541  0.1972 -0.0537
   52DOPE   H4X 6666   1.437   3.587  14.153 -2.3804  1.1112  0.7736
   52DOPE   H4Y 6667   1.486   3.622  13.979  0.5282 -0.6048  0.1159
   52DOPE   C35 6668   1.283   3.689  14.049  1.1233 -0.3036  0.1900
   52DOPE   H5X 6669   1.199   3.659  14.114  1.4211 -1.4912  0.0552
   52DOPE   H5Y 6670   1.243   3.696  13.945 -0.2611  1.5579  0.8042
   52DOPE   C36 6671   1.339   3.823  14.089  0.6623  0.2154  0.1352
   52DOPE   H6X 6672   1.419   3.855  14.019  0.6174  1.0811  0.4704
   52DOPE   H6Y 6673   1.372   3.825  14.196 -0.2265 -1.6132  0.4957
   52DOPE   C37 6674   1.236   3.942  14.059 -0.1321  0.6133  0.1761
   52DOPE   H7X 6675   1.292   4.038  14.069  1.8155 -0.5606  1.1126
   52DOPE   H7Y 6676   1.212   3.937  13.950 -0.9920 -0.5563  0.3999
   52DOPE   C38 6677   1.102   3.957  14.134 -0.2988  0.4903  0.0506
   52DOPE   H8X 6678   1.040   3.876  14.090 -0.2758  1.3324 -1.6257
   52DOPE   H8Y 6679   1.061   4.054  14.098 -1.2589 -0.5483 -1.8014
   52DOPE   C39 6680   1.122   3.946  14.282  0.5426 -0.1387 -0.6252
   52DOPE   H9X 6681   1.165   3.852  14.321  1.9144  1.2543  1.3734
   52DOPE  C310 6682   1.107   4.053  14.369  1.1094  0.5408 -0.3386
   52DOPE  H10X 6683   1.153   4.040  14.469 -0.3553 -0.3972  0.2512
   52DOPE  C311 6684   1.048   4.186  14.353 -0.2692  0.4239 -0.1537
   52DOPE  H11X 6685   1.130   4.253  14.317  0.5703 -1.2282 -1.4260
   52DOPE  H11Y 6686   0.980   4.195  14.266  2.4068  1.1527 -2.3176
   52DOPE  C312 6687   1.000   4.249  14.489 -0.0469 -0.5575  0.7665
   52DOPE  H12X 6688   0.968   4.353  14.466  0.9338 -0.6512 -1.3046
   52DOPE  H12Y 6689   1.087   4.256  14.558  0.9666  1.7855 -0.6109
   52DOPE  C313 6690   0.880   4.183  14.557  0.0087  0.3031 -0.1315
   52DOPE  H13X 6691   0.794   4.160  14.490 -0.1983  0.5826  0.0320
   52DOPE  H13Y 6692   0.917   4.085  14.591 -0.8516  0.2182  0.6077
   52DOPE  C314 6693   0.823   4.269  14.676  0.4395  0.6526 -0.1118
   52DOPE  H14X 6694   0.783   4.365  14.636 -0.1437  0.4641  0.0157
   52DOPE  H14Y 6695   0.916   4.296  14.731  2.0715  2.2450 -3.3081
   52DOPE  C315 6696   0.724   4.181  14.750 -0.1253  0.2710 -0.3586
   52DOPE  H15X 6697   0.775   4.086  14.777  1.7263  1.1933 -0.4185
   52DOPE  H15Y 6698   0.636   4.166  14.685  2.0137  0.0165 -3.3752
   52DOPE  C316 6699   0.685   4.246  14.886  0.7474 -0.6253  0.3722
   52DOPE  H16X 6700   0.666   4.352  14.860 -0.7664 -1.1417 -0.8319
   52DOPE  H16Y 6701   0.778   4.238  14.946  2.2762 -1.3188 -1.9352
   52DOPE  C317 6702   0.560   4.186  14.957 -0.7399 -0.2940  0.1903
   52DOPE  H17X 6703   0.472   4.222  14.899  0.4441 -0.0756 -1.5392
   52DOPE  H17Y 6704   0.563   4.075  14.958 -2.2306 -0.3738  2.1453
   52DOPE  C318 6705   0.546   4.242  15.103 -0.4206 -0.0342 -0.3872
   52DOPE  H18X 6706   0.639   4.228  15.162  0.1981 -1.4600 -1.6291
   52DOPE  H18Y 6707   0.526   4.351  15.108  0.1189  0.0233  1.6352
   52DOPE  H18Z 6708   0.462   4.185  15.148 -1.6958  2.5851  0.7637
   53DOPE     N 6709   6.589   5.695  12.874 -0.1335 -0.2424  0.2508
   53DOPE   HN1 6710   6.565   5.640  12.960  2.1667 -0.6849  0.6714
   53DOPE   HN2 6711   6.663   5.762  12.902  1.1111 -1.6641  0.5050
   53DOPE   HN3 6712   6.510   5.753  12.839  1.6649  1.1190 -1.7880
   53DOPE   C12 6713   6.635   5.608  12.758 -0.1564  0.6319 -0.3543
   53DOPE  H12A 6714   6.632   5.670  12.666 -0.1647  1.1356 -0.0194
   53DOPE  H12B 6715   6.561   5.528  12.741  0.6846 -0.4219  0.7316
   53DOPE   C11 6716   6.775   5.558  12.782  0.1143  0.0303  0.1810
   53DOPE  H11A 6717   6.813   5.494  12.700  0.9853  0.9077 -0.1175
   53DOPE  H11B 6718   6.770   5.484  12.864 -2.0108 -0.3102 -0.1999
   53DOPE     P 6719   7.017   5.626  12.841 -0.1454  0.3147  0.6323
   53DOPE   O13 6720   7.100   5.751  12.858 -0.0417  0.1892 -0.0107
   53DOPE   O14 6721   7.066   5.537  12.730  0.1233 -0.0114 -0.8005
   53DOPE   O11 6722   7.011   5.541  12.969  0.3957  0.2575 -0.1907
   53DOPE   O12 6723   6.864   5.666  12.811  0.1605 -0.0209 -0.4886
   53DOPE    C1 6724   6.957   5.596  13.092  0.2411  0.3509  0.9700
   53DOPE    HA 6725   6.892   5.518  13.137 -0.5495 -0.2664 -1.1545
   53DOPE    HB 6726   6.893   5.686  13.077 -0.1609  0.6230  3.7111
   53DOPE    C2 6727   7.070   5.651  13.185  0.6593  0.1990 -0.3334
   53DOPE    HS 6728   7.128   5.722  13.121  1.3160  0.4445  0.5252
   53DOPE   O21 6729   7.142   5.539  13.232 -0.5527 -0.1329 -0.1221
   53DOPE   C21 6730   7.274   5.556  13.235 -0.2619 -0.1637  0.0866
   53DOPE   O22 6731   7.331   5.657  13.185  0.6702 -0.7840 -0.1916
   53DOPE   C22 6732   7.347   5.446  13.306 -0.4358  1.0182  0.0812
   53DOPE   H2R 6733   7.455   5.467  13.319 -0.2282  0.4981 -0.7450
   53DOPE   H2S 6734   7.340   5.353  13.246  1.0339  0.5075  0.6539
   53DOPE    C3 6735   7.006   5.735  13.301 -0.2135  0.2629 -0.3678
   53DOPE    HX 6736   6.951   5.662  13.364 -0.3880 -0.2629 -1.1197
   53DOPE    HY 6737   6.934   5.813  13.269 -0.8605  0.5864  1.7081
   53DOPE   O31 6738   7.109   5.800  13.381  0.4776 -0.0403  0.0844
   53DOPE   C31 6739   7.156   5.913  13.328 -0.0420 -0.2821 -0.5707
   53DOPE   O32 6740   7.117   5.972  13.232 -0.1756 -0.2571  0.0804
   53DOPE   C32 6741   7.265   5.967  13.414  0.3788  0.1271 -0.4670
   53DOPE   H2X 6742   7.358   5.908  13.425  1.5878  2.0482  0.0823
   53DOPE   H2Y 6743   7.285   6.070  13.378  0.1353 -0.1797 -1.5105
   53DOPE   C23 6744   7.284   5.420  13.444  0.2321 -0.8940  0.3903
   53DOPE   H3R 6745   7.323   5.327  13.491  1.8540  0.1213  1.1592
   53DOPE   H3S 6746   7.175   5.407  13.428  0.1490  0.8890 -0.7900
   53DOPE   C24 6747   7.300   5.537  13.542  0.0188  0.6143 -0.6743
   53DOPE   H4R 6748   7.224   5.612  13.512 -3.3300 -1.6493  1.4300
   53DOPE   H4S 6749   7.401   5.584  13.541 -0.1711  1.0665 -2.5801
   53DOPE   C25 6750   7.264   5.507  13.694 -0.4545  0.2602 -0.2515
   53DOPE   H5R 6751   7.332   5.424  13.725 -1.5761 -0.6109 -0.0503
   53DOPE   H5S 6752   7.160   5.469  13.704  0.0241 -0.7854  1.1458
   53DOPE   C26 6753   7.279   5.631  13.784 -0.4361 -0.2894 -0.0520
   53DOPE   H6R 6754   7.202   5.703  13.752 -0.5055 -0.6464 -0.7023
   53DOPE   H6S 6755   7.378   5.680  13.768 -0.9429  0.6314 -0.3836
   53DOPE   C27 6756   7.264   5.611  13.938 -0.9584 -0.3501  0.0499
   53DOPE   H7R 6757   7.333   5.532  13.975 -0.5799  0.1363  0.3838
   53DOPE   H7S 6758   7.161   5.581  13.967 -1.7582  0.2173 -2.0007
   53DOPE   C28 6759   7.275   5.748  14.001 -0.1704  0.9739 -0.5275
   53DOPE   H8R 6760   7.363   5.799  13.956  0.8864 -0.5875 -0.3063
   53DOPE   H8S 6761   7.301   5.739  14.109 -1.1841  0.4954 -0.3143
   53DOPE   C29 6762   7.158   5.839  13.992  1.0038  0.1529 -0.4167
   53DOPE   H9R 6763   7.146   5.904  13.904  1.4859  0.6948 -0.0910
   53DOPE  C210 6764   7.068   5.866  14.092 -0.0987 -0.2769 -0.0903
   53DOPE  H10R 6765   6.985   5.932  14.063  0.2699 -1.0290 -3.2278
   53DOPE  C211 6766   7.057   5.803  14.233 -0.6423  0.1716 -0.4292
   53DOPE  H11R 6767   7.142   5.738  14.261 -0.9348  1.0860  2.9221
   53DOPE  H11S 6768   6.964   5.741  14.236 -0.8312  0.4824  1.1256
   53DOPE  C212 6769   7.040   5.914  14.339  0.1383 -0.5390 -0.2975
   53DOPE  H12R 6770   6.960   5.986  14.312  1.2558  0.5605 -0.7934
   53DOPE  H12S 6771   7.131   5.976  14.324 -0.1093 -0.0293  0.2920
   53DOPE  C213 6772   7.014   5.874  14.482  0.2019 -0.0165 -0.3262
   53DOPE  H13R 6773   7.001   5.970  14.537 -0.2180  1.2099 -2.4786
   53DOPE  H13S 6774   7.099   5.819  14.527  0.4589  1.6566  1.3551
   53DOPE  C214 6775   6.877   5.804  14.498  0.1527 -0.3207  0.2994
   53DOPE  H14R 6776   6.903   5.702  14.463  2.8420  0.0518  0.9669
   53DOPE  H14S 6777   6.792   5.846  14.440 -0.3472 -0.0508  1.2152
   53DOPE  C215 6778   6.829   5.796  14.646  0.1449 -0.3709  0.8712
   53DOPE  H15R 6779   6.916   5.771  14.710  1.3507  4.1360  1.3324
   53DOPE  H15S 6780   6.747   5.722  14.656 -0.2073 -0.1805 -0.4525
   53DOPE  C216 6781   6.771   5.933  14.688 -0.1942  0.4991 -0.3385
   53DOPE  H16R 6782   6.671   5.956  14.645  0.5510  3.2324 -0.8319
   53DOPE  H16S 6783   6.844   6.005  14.645 -0.2027 -0.1960 -1.5661
   53DOPE  C217 6784   6.776   5.964  14.837 -0.3198 -0.3212 -0.5445
   53DOPE  H17R 6785   6.873   5.946  14.888 -0.7637 -1.6438 -0.1370
   53DOPE  H17S 6786   6.712   5.885  14.880  1.7475 -0.7405  2.0373
   53DOPE  C218 6787   6.730   6.102  14.880 -0.1348 -0.4401 -0.0785
   53DOPE  H18R 6788   6.799   6.177  14.836 -0.7184  0.4571  0.5143
   53DOPE  H18S 6789   6.732   6.117  14.990  0.2749  0.6449 -0.2233
   53DOPE  H18T 6790   6.636   6.136  14.832 -0.0596 -0.0762  0.0282
   53DOPE   C33 6791   7.211   5.971  13.564 -0.4554 -0.2346  0.2426
   53DOPE   H3X 6792   7.292   6.010  13.629 -0.6256  1.4355 -0.4986
   53DOPE   H3Y 6793   7.182   5.867  13.591 -1.3171  0.2187  1.1173
   53DOPE   C34 6794   7.097   6.071  13.571  0.3913  0.6595  0.0056
   53DOPE   H4X 6795   7.140   6.173  13.578  0.5344  0.4727  2.7731
   53DOPE   H4Y 6796   7.030   6.075  13.482  0.4177 -0.6819 -0.0893
   53DOPE   C35 6797   7.019   6.063  13.699  0.5957  0.2490 -0.2384
   53DOPE   H5X 6798   7.076   6.084  13.793 -1.3230 -0.1827  1.0770
   53DOPE   H5Y 6799   6.975   5.964  13.721 -1.0124  1.5912  3.4017
   53DOPE   C36 6800   6.902   6.165  13.691  0.0219  0.4177 -0.6740
   53DOPE   H6X 6801   6.837   6.152  13.601 -1.3353  1.6750  0.0708
   53DOPE   H6Y 6802   6.950   6.265  13.681  0.2059  0.1409 -3.1270
   53DOPE   C37 6803   6.803   6.161  13.814 -0.5207 -0.1944  0.1969
   53DOPE   H7X 6804   6.757   6.061  13.825 -1.4784  0.4820  3.0617
   53DOPE   H7Y 6805   6.870   6.156  13.903 -0.2803  2.1536  0.2240
   53DOPE   C38 6806   6.709   6.273  13.831 -0.2473  0.4733 -0.1325
   53DOPE   H8X 6807   6.758   6.372  13.836  0.3913  0.1666 -0.2470
   53DOPE   H8Y 6808   6.661   6.269  13.931  0.3851 -1.8046  0.1488
   53DOPE   C39 6809   6.593   6.261  13.730 -0.3365 -0.0632  0.1298
   53DOPE   H9X 6810   6.611   6.311  13.634  0.4693  0.3153  0.4654
   53DOPE  C310 6811   6.489   6.191  13.738 -0.4338 -0.1165  1.0441
   53DOPE  H10X 6812   6.410   6.193  13.661  1.7878  0.1426 -1.4063
   53DOPE  C311 6813   6.451   6.110  13.857 -0.2685  0.0387 -0.9305
   53DOPE  H11X 6814   6.382   6.031  13.820  0.8641 -1.1846 -0.4919
   53DOPE  H11Y 6815   6.534   6.059  13.910 -1.7106 -1.9040 -0.4244
   53DOPE  C312 6816   6.359   6.186  13.958  0.0206  0.0984 -0.6352
   53DOPE  H12X 6817   6.269   6.228  13.908 -1.2997 -1.3182  0.4502
   53DOPE  H12Y 6818   6.410   6.271  14.009  1.8073 -1.1257 -0.2859
   53DOPE  C313 6819   6.309   6.078  14.064  0.2207  0.2458 -0.0455
   53DOPE  H13X 6820   6.282   5.985  14.009 -0.7557 -0.1759  1.1021
   53DOPE  H13Y 6821   6.386   6.053  14.140 -0.7260  0.8311  1.1531
   53DOPE  C314 6822   6.199   6.126  14.155 -0.1862  0.4980  0.0536
   53DOPE  H14X 6823   6.099   6.122  14.107 -0.2677  1.0141  0.1693
   53DOPE  H14Y 6824   6.219   6.232  14.181  1.0520  0.8679 -2.1353
   53DOPE  C315 6825   6.183   6.041  14.285  0.1277  0.0745 -0.7287
   53DOPE  H15X 6826   6.270   6.024  14.351 -1.3150 -0.1889  1.2010
   53DOPE  H15Y 6827   6.153   5.937  14.258  2.8323 -0.8615 -0.4624
   53DOPE  C316 6828   6.073   6.099  14.377  0.1482 -0.0894 -0.3212
   53DOPE  H16X 6829   5.991   6.133  14.310  0.5936  0.6631 -0.4893
   53DOPE  H16Y 6830   6.112   6.188  14.430 -1.1565  0.3848 -0.1153
   53DOPE  C317 6831   6.001   5.999  14.470 -0.5951  0.7300  0.1029
   53DOPE  H17X 6832   5.951   5.932  14.397  1.8635  0.4394 -1.4380
   53DOPE  H17Y 6833   6.072   5.941  14.533  0.8480  1.2894 -0.9404
   53DOPE  C318 6834   5.904   6.079  14.553  0.5957  0.1865 -0.9365
   53DOPE  H18X 6835   5.851   6.008  14.620 -0.1590  1.2802 -0.3502
   53DOPE  H18Y 6836   5.958   6.144  14.625  2.4143 -2.6814  0.4864
   53DOPE  H18Z 6837   5.830   6.133  14.491 -1.3434  2.3674  2.9798
   54DOPE     N 6838   0.199   2.720  13.083  0.4702  0.1735 -0.4527
   54DOPE   HN1 6839   0.224   2.639  13.022  1.8475  0.0022  0.2984
   54DOPE   HN2 6840   0.098   2.712  13.106  0.6056 -0.0574  0.0653
   54DOPE   HN3 6841   0.215   2.809  13.032  2.4902 -0.0577 -0.3056
   54DOPE   C12 6842   0.281   2.710  13.208 -0.2619 -0.6496 -0.6351
   54DOPE  H12A 6843   0.256   2.613  13.257 -1.1701  1.0017  2.4169
   54DOPE  H12B 6844   0.243   2.788  13.277  0.6969 -1.7747  1.2428
   54DOPE   C11 6845   0.425   2.727  13.173 -0.1052  0.9220  0.1590
   54DOPE  H11A 6846   0.479   2.726  13.270  0.2248 -1.3026  0.0058
   54DOPE  H11B 6847   0.441   2.825  13.123 -1.4453  1.0565 -0.0471
   54DOPE     P 6848   0.591   2.524  13.132 -0.2361 -0.0237  0.4284
   54DOPE   O13 6849   0.720   2.597  13.123  0.3018 -0.6634  0.1604
   54DOPE   O14 6850   0.577   2.402  13.052 -0.1120 -0.1936  0.4755
   54DOPE   O11 6851   0.563   2.482  13.281  0.0633 -0.2177  0.5807
   54DOPE   O12 6852   0.475   2.624  13.089 -0.0975  0.1838  0.3570
   54DOPE    C1 6853   0.450   2.413  13.317 -0.2753 -0.2748 -0.9146
   54DOPE    HA 6854   0.398   2.358  13.236  1.4418 -1.9064 -0.9750
   54DOPE    HB 6855   0.380   2.479  13.373 -1.8171 -1.5840 -1.2003
   54DOPE    C2 6856   0.504   2.299  13.408  0.6272 -0.3787 -0.3063
   54DOPE    HS 6857   0.413   2.245  13.442 -1.5404  2.3211 -1.3489
   54DOPE   O21 6858   0.580   2.354  13.519  0.3280  0.1285  0.0264
   54DOPE   C21 6859   0.501   2.390  13.619 -0.5762  0.1315 -0.2695
   54DOPE   O22 6860   0.381   2.370  13.638 -0.2983 -0.2329 -0.4685
   54DOPE   C22 6861   0.592   2.442  13.730 -0.2200  0.2207 -0.3508
   54DOPE   H2R 6862   0.518   2.503  13.786 -1.1921  0.5643 -1.9524
   54DOPE   H2S 6863   0.661   2.519  13.690 -0.6664  0.1174 -1.3518
   54DOPE    C3 6864   0.590   2.197  13.340  0.1842  0.4184 -0.0034
   54DOPE    HX 6865   0.675   2.250  13.293 -0.6378  2.3374  0.5709
   54DOPE    HY 6866   0.528   2.148  13.262  0.0152  2.4207 -1.1874
   54DOPE   O31 6867   0.628   2.097  13.437 -0.2891 -0.3798  0.1794
   54DOPE   C31 6868   0.743   2.116  13.490 -0.0514 -0.7004  0.7391
   54DOPE   O32 6869   0.841   2.182  13.448  0.1760  0.4001 -0.5206
   54DOPE   C32 6870   0.746   2.032  13.616  0.7680 -0.3709  0.2287
   54DOPE   H2X 6871   0.681   2.090  13.686  2.2258 -0.1324  1.4557
   54DOPE   H2Y 6872   0.713   1.927  13.623  0.0945 -0.0880  1.8831
   54DOPE   C23 6873   0.648   2.331  13.828 -0.3296  0.8096 -0.4451
   54DOPE   H3R 6874   0.751   2.306  13.795 -0.9833 -0.2583 -1.7271
   54DOPE   H3S 6875   0.588   2.238  13.824  0.1508  0.4445  0.4286
   54DOPE   C24 6876   0.658   2.378  13.975 -0.8186 -1.0237 -0.4772
   54DOPE   H4R 6877   0.712   2.298  14.029  0.3304  0.8545  1.2663
   54DOPE   H4S 6878   0.560   2.399  14.023  0.3508  1.5526  0.9928
   54DOPE   C25 6879   0.758   2.501  13.983  0.3616 -0.2350 -0.1982
   54DOPE   H5R 6880   0.753   2.561  13.890  1.0403  0.0298 -0.0718
   54DOPE   H5S 6881   0.863   2.469  13.995  0.9006  1.9926  1.9322
   54DOPE   C26 6882   0.716   2.589  14.108 -0.2414  0.8099 -0.2405
   54DOPE   H6R 6883   0.617   2.633  14.083 -0.8897 -0.3783  0.2014
   54DOPE   H6S 6884   0.795   2.667  14.119  1.3079 -0.6307 -0.6825
   54DOPE   C27 6885   0.703   2.519  14.239  0.1108 -0.2008 -0.7970
   54DOPE   H7R 6886   0.683   2.411  14.224  1.6191 -0.5808 -0.3306
   54DOPE   H7S 6887   0.625   2.570  14.299 -0.7957 -2.7804  0.3545
   54DOPE   C28 6888   0.834   2.506  14.314 -0.2834 -0.1084  0.3319
   54DOPE   H8R 6889   0.874   2.610  14.315 -2.1997  0.6824  2.3965
   54DOPE   H8S 6890   0.901   2.442  14.253 -1.9022 -1.9680  0.3951
   54DOPE   C29 6891   0.820   2.451  14.452  0.4225 -0.4490 -0.4252
   54DOPE   H9R 6892   0.828   2.342  14.467 -2.3200 -0.6879 -0.1972
   54DOPE  C210 6893   0.778   2.518  14.557 -0.3079 -0.0110 -0.6567
   54DOPE  H10R 6894   0.785   2.466  14.654  0.0608 -0.8440 -1.1243
   54DOPE  C211 6895   0.746   2.662  14.568 -0.2185 -0.7123  0.0172
   54DOPE  H11R 6896   0.653   2.682  14.624 -0.5800 -0.0354 -0.7969
   54DOPE  H11S 6897   0.746   2.716  14.470 -1.7054  2.0536  1.4226
   54DOPE  C212 6898   0.856   2.727  14.655  0.3685 -0.3391 -0.7329
   54DOPE  H12R 6899   0.843   2.837  14.649  1.8809 -0.1951 -2.6633
   54DOPE  H12S 6900   0.960   2.703  14.622  0.1433  0.2306 -1.9375
   54DOPE  C213 6901   0.849   2.676  14.803  0.0550 -0.6459 -0.0709
   54DOPE  H13R 6902   0.856   2.566  14.812 -0.8878 -0.7221 -0.2411
   54DOPE  H13S 6903   0.763   2.717  14.860  0.8814  0.0468  0.7286
   54DOPE  C214 6904   0.961   2.747  14.884  0.4074 -0.7482 -0.3861
   54DOPE  H14R 6905   0.965   2.857  14.867  0.7402 -0.8610 -1.0656
   54DOPE  H14S 6906   1.057   2.704  14.848  0.2153 -2.3349  0.8451
   54DOPE  C215 6907   0.969   2.745  15.035 -0.1605 -0.8212  0.5890
   54DOPE  H15R 6908   0.884   2.804  15.074  0.3708  1.1259 -1.0219
   54DOPE  H15S 6909   1.062   2.799  15.063  0.5493 -1.3201 -0.6681
   54DOPE  C216 6910   0.954   2.597  15.092  0.0312 -0.4722 -0.2151
   54DOPE  H16R 6911   1.026   2.536  15.033  0.3763  0.8933 -1.2771
   54DOPE  H16S 6912   0.850   2.571  15.066  0.0520  0.0369 -0.8297
   54DOPE  C217 6913   0.984   2.581  15.246 -0.0071 -0.1750 -0.1303
   54DOPE  H17R 6914   1.092   2.590  15.269 -0.2833 -1.1614  1.6786
   54DOPE  H17S 6915   0.942   2.482  15.274  0.4863  0.1462  1.9073
   54DOPE  C218 6916   0.909   2.684  15.331 -0.1292  0.3934  0.4183
   54DOPE  H18R 6917   0.944   2.786  15.306 -0.8469  0.9899  1.7688
   54DOPE  H18S 6918   0.918   2.665  15.440  0.3185  2.0685  0.7012
   54DOPE  H18T 6919   0.801   2.681  15.306  0.4724  1.1172 -2.6988
   54DOPE   C33 6920   0.882   2.040  13.694  0.5686 -0.4605 -0.1959
   54DOPE   H3X 6921   0.941   2.134  13.698  0.3864 -0.2578 -1.6545
   54DOPE   H3Y 6922   0.954   1.968  13.650 -0.0534  0.2961 -2.5811
   54DOPE   C34 6923   0.867   1.991  13.839  0.0137 -0.0260 -0.1336
   54DOPE   H4X 6924   0.766   2.021  13.873 -0.7308 -2.4017 -0.0395
   54DOPE   H4Y 6925   0.869   1.881  13.820  1.2343  0.3370 -2.5592
   54DOPE   C35 6926   0.986   2.018  13.937  0.9285 -0.2027 -0.0895
   54DOPE   H5X 6927   1.020   2.124  13.933  0.7734 -0.1279  0.5249
   54DOPE   H5Y 6928   1.071   1.964  13.891  0.2851  1.8225 -4.1403
   54DOPE   C36 6929   0.952   1.968  14.082 -0.2452  0.2924  0.5834
   54DOPE   H6X 6930   1.035   2.001  14.149 -0.9877 -3.0439  3.4563
   54DOPE   H6Y 6931   0.925   1.860  14.082 -0.6965  0.4038  0.3168
   54DOPE   C37 6932   0.827   2.026  14.145  0.2150  0.6892 -0.7203
   54DOPE   H7X 6933   0.839   2.136  14.157 -0.1491  0.7443 -0.8375
   54DOPE   H7Y 6934   0.741   2.006  14.077 -0.6580  1.6150  0.0771
   54DOPE   C38 6935   0.786   1.973  14.283  0.2915  0.2344 -0.0048
   54DOPE   H8X 6936   0.859   1.978  14.367  0.7261 -0.8829 -0.2971
   54DOPE   H8Y 6937   0.778   1.864  14.262 -2.3026  0.5243 -0.8676
   54DOPE   C39 6938   0.648   2.012  14.325 -0.4392  0.1492  0.6531
   54DOPE   H9X 6939   0.616   2.118  14.329 -1.3968 -0.1047 -0.0112
   54DOPE  C310 6940   0.540   1.937  14.338  0.4205  0.7278 -0.3459
   54DOPE  H10X 6941   0.447   1.978  14.382  1.1985  3.1371 -0.7957
   54DOPE  C311 6942   0.526   1.791  14.306 -0.3737  0.5837 -0.6109
   54DOPE  H11X 6943   0.431   1.774  14.252 -1.4234  0.0639  1.3007
   54DOPE  H11Y 6944   0.606   1.749  14.242  0.4757 -1.4920  1.6256
   54DOPE  C312 6945   0.529   1.695  14.436  0.9752  0.0656 -0.3148
   54DOPE  H12X 6946   0.450   1.724  14.508 -0.5291 -0.5005 -1.6829
   54DOPE  H12Y 6947   0.622   1.701  14.497  0.3999 -0.7811  0.6714
   54DOPE  C313 6948   0.497   1.551  14.399 -0.1251 -0.0344  0.4028
   54DOPE  H13X 6949   0.458   1.544  14.295 -0.8635  1.6323  0.5410
   54DOPE  H13Y 6950   0.588   1.487  14.393 -1.6048 -2.3222  0.9371
   54DOPE  C314 6951   0.405   1.474  14.492 -0.1465  0.3305 -0.6037
   54DOPE  H14X 6952   0.462   1.463  14.586 -2.4380  0.8616  0.9159
   54DOPE  H14Y 6953   0.399   1.367  14.461  2.1554 -0.4832  1.4289
   54DOPE  C315 6954   0.271   1.535  14.524  0.9750  0.3759 -0.5267
   54DOPE  H15X 6955   0.228   1.540  14.422  3.1524  0.9093 -1.4768
   54DOPE  H15Y 6956   0.277   1.643  14.553  0.8056  0.8211 -2.0506
   54DOPE  C316 6957   0.188   1.445  14.625  0.6340  0.1604 -0.6128
   54DOPE  H16X 6958   0.082   1.477  14.624  0.4438 -0.3597  0.7292
   54DOPE  H16Y 6959   0.223   1.451  14.730 -1.3508  2.3940 -0.0041
   54DOPE  C317 6960   0.162   1.296  14.591  0.0443 -0.7774  0.1946
   54DOPE  H17X 6961   0.258   1.244  14.566  1.0882  0.7839  0.8036
   54DOPE  H17Y 6962   0.117   1.244  14.678 -1.6826 -0.6147 -0.5724
   54DOPE  C318 6963   0.085   1.284  14.467  0.1271 -0.2879 -0.0807
   54DOPE  H18X 6964  -0.009   1.343  14.460  0.7081  0.6656 -0.0445
   54DOPE  H18Y 6965   0.144   1.331  14.385  0.7227 -1.4310 -0.3224
   54DOPE  H18Z 6966   0.043   1.187  14.436 -0.4485  0.3947 -1.5133
   55DOPE     N 6967   1.484   4.647  13.053  0.0695  0.5396  0.3023
   55DOPE   HN1 6968   1.389   4.688  13.061  0.7951  2.2950  0.4064
   55DOPE   HN2 6969   1.517   4.640  12.955 -0.3817  0.4547  0.1523
   55DOPE   HN3 6970   1.476   4.547  13.079 -0.1294  0.6922  0.8505
   55DOPE   C12 6971   1.572   4.731  13.138  0.8890 -0.1591  0.6213
   55DOPE  H12A 6972   1.662   4.673  13.167  2.8847  1.3399 -2.1277
   55DOPE  H12B 6973   1.514   4.768  13.225  0.1164 -0.6689  0.3341
   55DOPE   C11 6974   1.629   4.863  13.061  0.2036 -0.6716 -0.7105
   55DOPE  H11A 6975   1.647   4.835  12.955  1.2414  1.0490 -1.0287
   55DOPE  H11B 6976   1.725   4.897  13.105  0.0066  1.1832 -1.6139
   55DOPE     P 6977   1.560   5.113  13.084 -0.8264 -0.0462 -0.2771
   55DOPE   O13 6978   1.431   5.184  13.066  0.0940  0.0553  0.6121
   55DOPE   O14 6979   1.675   5.161  13.001 -0.3650 -0.2377  0.1853
   55DOPE   O11 6980   1.609   5.136  13.236  0.2330 -0.3125 -0.2619
   55DOPE   O12 6981   1.534   4.964  13.061 -0.2097 -0.5835 -0.3509
   55DOPE    C1 6982   1.521   5.074  13.341 -0.6924 -0.5852  0.1511
   55DOPE    HA 6983   1.587   5.025  13.416  2.3492 -0.6247 -2.3530
   55DOPE    HB 6984   1.457   4.991  13.302 -0.5028  0.8377 -3.5442
   55DOPE    C2 6985   1.422   5.165  13.406 -0.2702  0.1742  0.4816
   55DOPE    HS 6986   1.382   5.221  13.319  0.5059 -0.2083 -0.1377
   55DOPE   O21 6987   1.490   5.255  13.498 -0.0479  0.4755 -0.2062
   55DOPE   C21 6988   1.467   5.381  13.487 -0.0531 -0.1336  0.2254
   55DOPE   O22 6989   1.390   5.425  13.401 -0.1228  0.7058 -0.1561
   55DOPE   C22 6990   1.514   5.444  13.620 -0.3620 -0.5314 -1.0240
   55DOPE   H2R 6991   1.619   5.478  13.603 -0.0797  0.3999  1.9835
   55DOPE   H2S 6992   1.511   5.369  13.702  1.1715  1.6509  1.1504
   55DOPE    C3 6993   1.318   5.076  13.486 -0.4220 -0.1914  0.3091
   55DOPE    HX 6994   1.375   5.000  13.545 -2.0085 -0.9791  0.9064
   55DOPE    HY 6995   1.261   5.012  13.415  1.2036  1.7673 -2.9207
   55DOPE   O31 6996   1.234   5.151  13.581 -0.0589 -0.0151 -0.1459
   55DOPE   C31 6997   1.126   5.211  13.534  0.5810  0.3826  0.4674
   55DOPE   O32 6998   1.077   5.205  13.419 -0.4576 -0.0910  0.3445
   55DOPE   C32 6999   1.059   5.287  13.647  0.6505 -0.3283  0.3980
   55DOPE   H2X 7000   1.130   5.276  13.732 -1.0398 -1.1654  1.7567
   55DOPE   H2Y 7001   1.062   5.394  13.619 -0.7590  0.1758  2.0017
   55DOPE   C23 7002   1.416   5.563  13.658 -0.0711  0.3506  0.4692
   55DOPE   H3R 7003   1.346   5.580  13.574  0.2775 -0.5780 -0.0212
   55DOPE   H3S 7004   1.479   5.652  13.680 -0.0581  0.0058  1.9085
   55DOPE   C24 7005   1.338   5.529  13.781  0.8960  0.4291  0.3356
   55DOPE   H4R 7006   1.321   5.420  13.769  1.1427  0.5536 -1.5420
   55DOPE   H4S 7007   1.239   5.578  13.773  0.3898 -0.4991  0.7738
   55DOPE   C25 7008   1.407   5.561  13.912  0.3139 -0.2731 -1.0794
   55DOPE   H5R 7009   1.423   5.671  13.908  0.6366 -0.2945 -0.4048
   55DOPE   H5S 7010   1.507   5.513  13.923  0.3763  0.3406  1.5928
   55DOPE   C26 7011   1.318   5.526  14.034  0.2220  0.6620  0.0729
   55DOPE   H6R 7012   1.313   5.416  14.048  0.7822  0.4480 -1.2232
   55DOPE   H6S 7013   1.211   5.545  14.007 -0.2966 -0.7907  0.9883
   55DOPE   C27 7014   1.359   5.597  14.169  0.7146  0.3239  0.4684
   55DOPE   H7R 7015   1.287   5.572  14.249  0.0044 -0.4284 -0.3847
   55DOPE   H7S 7016   1.354   5.704  14.140 -0.7431  0.1493  0.0260
   55DOPE   C28 7017   1.497   5.544  14.219 -0.3049  0.1313  0.2534
   55DOPE   H8R 7018   1.567   5.570  14.138  0.4631  0.1112  0.8977
   55DOPE   H8S 7019   1.495   5.432  14.220  0.5714  0.0327  3.4307
   55DOPE   C29 7020   1.548   5.587  14.353  0.3062 -1.1155  0.3099
   55DOPE   H9R 7021   1.625   5.666  14.351  0.8089 -1.1813  5.3320
   55DOPE  C210 7022   1.533   5.534  14.475 -0.4672 -0.5238  0.2920
   55DOPE  H10R 7023   1.583   5.578  14.562  0.2659 -0.8600  0.0475
   55DOPE  C211 7024   1.452   5.412  14.514  0.8096 -0.1208 -0.3158
   55DOPE  H11R 7025   1.513   5.352  14.585  0.8417  0.2032 -0.0629
   55DOPE  H11S 7026   1.419   5.353  14.426  0.4534 -0.3309 -0.0455
   55DOPE  C212 7027   1.322   5.439  14.603  0.4784  0.4864 -0.0160
   55DOPE  H12R 7028   1.358   5.487  14.697  0.7689 -2.9174  1.7595
   55DOPE  H12S 7029   1.271   5.346  14.635 -2.4591  2.1735  0.5550
   55DOPE  C213 7030   1.210   5.530  14.542 -1.0006 -0.0527  0.8361
   55DOPE  H13R 7031   1.165   5.479  14.454 -2.1556  0.8968  0.8500
   55DOPE  H13S 7032   1.252   5.627  14.508 -1.5937  0.1827  0.7632
   55DOPE  C214 7033   1.096   5.562  14.638  0.9754 -0.0689 -0.3851
   55DOPE  H14R 7034   1.038   5.648  14.600  0.5478  0.1002  0.6365
   55DOPE  H14S 7035   1.143   5.586  14.735 -0.8780  1.1183  0.2691
   55DOPE  C215 7036   0.994   5.449  14.673  0.1585 -0.0988  0.1085
   55DOPE  H15R 7037   1.041   5.364  14.726 -2.2662 -1.2267  0.5601
   55DOPE  H15S 7038   0.958   5.394  14.584 -2.0504 -1.2994  1.6495
   55DOPE  C216 7039   0.873   5.496  14.754  0.2675 -0.0097 -0.8087
   55DOPE  H16R 7040   0.815   5.403  14.740 -1.1224  0.5580  0.8225
   55DOPE  H16S 7041   0.816   5.583  14.714 -1.0272 -0.4639 -0.0125
   55DOPE  C217 7042   0.907   5.498  14.908  0.8535 -0.4106 -0.3692
   55DOPE  H17R 7043   0.984   5.576  14.928  2.2377 -1.4035 -1.6829
   55DOPE  H17S 7044   0.952   5.399  14.929  1.2426 -0.2452 -0.4233
   55DOPE  C218 7045   0.772   5.525  14.987 -0.0001 -1.0708  0.2055
   55DOPE  H18R 7046   0.805   5.547  15.091 -0.3019  0.7923 -0.0618
   55DOPE  H18S 7047   0.718   5.429  14.973  0.1527 -1.3322  1.2944
   55DOPE  H18T 7048   0.717   5.610  14.942  1.0027  0.1353  1.2121
   55DOPE   C33 7049   0.922   5.228  13.691 -0.2611  0.3794  0.1902
   55DOPE   H3X 7050   0.943   5.127  13.732 -1.4213  0.5821  1.3688
   55DOPE   H3Y 7051   0.860   5.209  13.600  0.8960  0.3744 -0.6157
   55DOPE   C34 7052   0.852   5.308  13.794 -0.7506 -0.0796 -0.5535
   55DOPE   H4X 7053   0.808   5.390  13.734 -0.6945 -0.2634 -0.8452
   55DOPE   H4Y 7054   0.778   5.240  13.842  1.5665 -1.3121  1.4821
   55DOPE   C35 7055   0.939   5.360  13.909 -0.8810  0.2729  0.2379
   55DOPE   H5X 7056   0.997   5.448  13.874 -0.1157 -0.1441  0.4375
   55DOPE   H5Y 7057   1.010   5.278  13.931 -0.2849 -0.2217 -3.0270
   55DOPE   C36 7058   0.856   5.381  14.041 -0.0752 -0.9192 -0.9508
   55DOPE   H6X 7059   0.821   5.283  14.080  2.6642 -2.9789 -3.1931
   55DOPE   H6Y 7060   0.765   5.441  14.022 -0.0996  0.0425  1.6624
   55DOPE   C37 7061   0.948   5.466  14.141  0.8351  0.0957 -0.1666
   55DOPE   H7X 7062   1.022   5.391  14.174 -0.4546 -2.3231 -2.4023
   55DOPE   H7Y 7063   1.001   5.544  14.083  1.3642  0.4709  0.8036
   55DOPE   C38 7064   0.855   5.512  14.261 -0.2314 -0.0638 -0.2706
   55DOPE   H8X 7065   0.858   5.427  14.333 -1.4362 -2.0941 -2.4580
   55DOPE   H8Y 7066   0.753   5.528  14.218 -0.8418  1.2003  1.5427
   55DOPE   C39 7067   0.903   5.637  14.333  0.4920 -0.4195 -0.2246
   55DOPE   H9X 7068   1.012   5.644  14.346  0.7968 -2.5065 -1.3200
   55DOPE  C310 7069   0.832   5.751  14.335 -0.1135  0.3473 -0.2508
   55DOPE  H10X 7070   0.866   5.832  14.402  2.5000 -0.0580 -0.9937
   55DOPE  C311 7071   0.690   5.778  14.292  0.3691  0.5042  0.2389
   55DOPE  H11X 7072   0.649   5.696  14.229 -0.5926  0.7018  0.5938
   55DOPE  H11Y 7073   0.625   5.775  14.381 -2.8701  2.2569 -1.8875
   55DOPE  C312 7074   0.679   5.904  14.202 -0.2694  0.2957  0.4161
   55DOPE  H12X 7075   0.585   5.906  14.143  0.1311  0.3081 -0.2259
   55DOPE  H12Y 7076   0.757   5.906  14.123 -1.6486  1.8981 -0.9763
   55DOPE  C313 7077   0.682   6.028  14.285 -0.0398  0.6168 -0.1584
   55DOPE  H13X 7078   0.624   6.008  14.377 -0.8667  0.2971 -0.7348
   55DOPE  H13Y 7079   0.787   6.042  14.318 -0.3049  0.4366  0.7819
   55DOPE  C314 7080   0.635   6.157  14.207  0.6727  0.1125 -0.4373
   55DOPE  H14X 7081   0.535   6.135  14.164 -0.2979  0.5966  1.4337
   55DOPE  H14Y 7082   0.703   6.185  14.123  0.1588 -0.9531 -1.2225
   55DOPE  C315 7083   0.631   6.283  14.304  0.0825 -0.3509  0.3802
   55DOPE  H15X 7084   0.733   6.306  14.341 -0.5523  0.8623  1.4770
   55DOPE  H15Y 7085   0.565   6.256  14.389 -0.7639 -0.9385 -0.4418
   55DOPE  C316 7086   0.559   6.409  14.224  0.1713  0.0801 -0.5252
   55DOPE  H16X 7087   0.459   6.374  14.189  1.3075 -2.2624 -1.6353
   55DOPE  H16Y 7088   0.626   6.427  14.138  1.5886  2.7831  1.0131
   55DOPE  C317 7089   0.539   6.541  14.293 -0.3632  0.3481 -0.3638
   55DOPE  H17X 7090   0.491   6.608  14.219 -0.6351 -1.5871 -2.0227
   55DOPE  H17Y 7091   0.470   6.529  14.380 -1.5806  2.1263 -1.0363
   55DOPE  C318 7092   0.668   6.607  14.351  0.3332  0.8932 -0.1614
   55DOPE  H18X 7093   0.647   6.701  14.406  0.0768 -0.2625  1.8617
   55DOPE  H18Y 7094   0.713   6.533  14.422 -1.3514  0.9444  1.0065
   55DOPE  H18Z 7095   0.743   6.618  14.270 -0.8148  2.4126 -1.0647
   56DOPE     N 7096   1.220   6.289  12.898 -0.8144 -0.0638  0.1362
   56DOPE   HN1 7097   1.259   6.384  12.916  3.0292 -1.8569  2.4650
   56DOPE   HN2 7098   1.125   6.276  12.937 -1.0048  2.7658  0.8291
   56DOPE   HN3 7099   1.292   6.227  12.942  2.2575  2.4115 -1.0059
   56DOPE   C12 7100   1.229   6.288  12.746 -0.2195 -0.0417 -0.5235
   56DOPE  H12A 7101   1.153   6.350  12.695  1.2222  1.9740 -0.3060
   56DOPE  H12B 7102   1.213   6.182  12.713  2.6615 -0.2967 -1.3400
   56DOPE   C11 7103   1.370   6.341  12.695  0.3696 -0.2893  0.2709
   56DOPE  H11A 7104   1.373   6.298  12.592  1.5388  1.9616 -0.6953
   56DOPE  H11B 7105   1.451   6.294  12.754 -0.1223 -0.8232  0.5355
   56DOPE     P 7106   1.506   6.551  12.645 -0.1532  0.4678 -0.0857
   56DOPE   O13 7107   1.527   6.670  12.725  0.1895  0.0142  0.4641
   56DOPE   O14 7108   1.484   6.562  12.501 -0.2182  0.3076 -0.2869
   56DOPE   O11 7109   1.618   6.449  12.685  0.1065 -0.2055 -0.0507
   56DOPE   O12 7110   1.375   6.488  12.695  0.0896  0.3034  0.2326
   56DOPE    C1 7111   1.750   6.489  12.718  0.0198  0.2750  0.2852
   56DOPE    HA 7112   1.770   6.594  12.689  1.0245  0.0369  0.1122
   56DOPE    HB 7113   1.826   6.429  12.664  0.9097  2.4235 -0.9582
   56DOPE    C2 7114   1.791   6.467  12.859  0.1974  0.3616 -0.8790
   56DOPE    HS 7115   1.784   6.359  12.882 -0.3694  0.4092 -0.8176
   56DOPE   O21 7116   1.702   6.545  12.945  0.1471 -0.5235 -0.4622
   56DOPE   C21 7117   1.617   6.481  13.018  0.3747  0.4212 -0.2115
   56DOPE   O22 7118   1.580   6.363  12.999  0.0273  0.1433 -0.2459
   56DOPE   C22 7119   1.555   6.569  13.131 -0.5891  0.3236  0.4177
   56DOPE   H2R 7120   1.483   6.641  13.086  0.4891 -0.4701 -2.9004
   56DOPE   H2S 7121   1.645   6.619  13.171  0.6981 -2.0789  0.6959
   56DOPE    C3 7122   1.936   6.514  12.888 -0.1635  0.1067  0.2866
   56DOPE    HX 7123   1.940   6.625  12.881  3.6396  0.1085  0.6643
   56DOPE    HY 7124   2.006   6.464  12.817  3.0032  1.6729  2.0955
   56DOPE   O31 7125   1.965   6.482  13.026  0.0147 -0.0319 -0.6127
   56DOPE   C31 7126   2.072   6.554  13.073  0.0495  0.2408  0.9814
   56DOPE   O32 7127   2.135   6.632  13.007 -0.2417  0.1974 -0.5836
   56DOPE   C32 7128   2.111   6.517  13.208  0.4604  0.7071 -0.5472
   56DOPE   H2X 7129   2.038   6.567  13.276 -0.2280 -0.4990 -0.3833
   56DOPE   H2Y 7130   2.102   6.407  13.211  1.4282  0.6118 -0.8524
   56DOPE   C23 7131   1.491   6.479  13.237  0.2760 -0.3733 -0.0120
   56DOPE   H3R 7132   1.402   6.427  13.196 -2.2394  0.6561  3.6593
   56DOPE   H3S 7133   1.438   6.543  13.311 -2.8186  1.3592 -3.4299
   56DOPE   C24 7134   1.583   6.373  13.311 -0.1087 -0.2786  0.1176
   56DOPE   H4R 7135   1.591   6.282  13.247  2.6251  0.9032 -1.4277
   56DOPE   H4S 7136   1.520   6.332  13.392 -1.5848  1.2515 -0.1844
   56DOPE   C25 7137   1.714   6.431  13.362 -0.4903 -0.1077  0.0928
   56DOPE   H5R 7138   1.684   6.524  13.415 -2.1052 -1.3555  1.4729
   56DOPE   H5S 7139   1.783   6.455  13.278 -1.1260 -0.0700 -0.4281
   56DOPE   C26 7140   1.777   6.330  13.458 -0.0391 -0.5200  0.7616
   56DOPE   H6R 7141   1.825   6.247  13.402  1.3343  0.2567  0.7242
   56DOPE   H6S 7142   1.697   6.280  13.516 -1.5610 -0.3257 -1.0907
   56DOPE   C27 7143   1.880   6.385  13.557 -0.0088  0.3076  0.2693
   56DOPE   H7R 7144   1.838   6.476  13.605  2.0115  1.2086  0.4594
   56DOPE   H7S 7145   1.963   6.426  13.495  0.0998  1.6990  1.2846
   56DOPE   C28 7146   1.924   6.279  13.661  0.6749  0.6434  0.0556
   56DOPE   H8R 7147   1.939   6.196  13.587 -0.6265  1.0005 -0.6475
   56DOPE   H8S 7148   1.837   6.258  13.726  1.7616  0.8096  1.6086
   56DOPE   C29 7149   2.058   6.311  13.729  0.0376 -0.3629 -1.1082
   56DOPE   H9R 7150   2.132   6.357  13.661 -1.4381  1.2997 -1.6572
   56DOPE  C210 7151   2.091   6.274  13.854  0.6583 -0.4252 -0.3373
   56DOPE  H10R 7152   2.191   6.295  13.896 -0.3715  0.3527  1.8389
   56DOPE  C211 7153   2.011   6.183  13.953  0.2048 -0.0365  1.2519
   56DOPE  H11R 7154   2.057   6.084  13.935 -1.4233 -0.4199 -1.4440
   56DOPE  H11S 7155   1.904   6.166  13.927  1.1663 -0.5382 -3.1006
   56DOPE  C212 7156   2.023   6.212  14.112  0.2582  0.1486  0.2803
   56DOPE  H12R 7157   1.971   6.135  14.173  0.7676  0.0924  0.6486
   56DOPE  H12S 7158   1.977   6.312  14.127  2.1497  1.0452  0.3146
   56DOPE  C213 7159   2.174   6.225  14.155 -0.1655  0.5986  0.4511
   56DOPE  H13R 7160   2.217   6.308  14.096 -1.4273  1.1080  0.2075
   56DOPE  H13S 7161   2.226   6.129  14.135 -0.8675  0.1517  0.7067
   56DOPE  C214 7162   2.203   6.258  14.297  0.9840 -0.3833  0.6941
   56DOPE  H14R 7163   2.300   6.312  14.304 -0.0787  1.9058 -0.8259
   56DOPE  H14S 7164   2.204   6.169  14.363  3.9907  1.0681  2.8747
   56DOPE  C215 7165   2.099   6.358  14.366 -1.0140  0.1101 -0.5568
   56DOPE  H15R 7166   1.997   6.316  14.358 -1.0833  0.1380  0.1402
   56DOPE  H15S 7167   2.112   6.458  14.319  0.9880  1.4467  2.5092
   56DOPE  C216 7168   2.127   6.376  14.515  0.3877 -0.4076  0.1535
   56DOPE  H16R 7169   2.234   6.401  14.526  0.1619  1.2885 -1.0537
   56DOPE  H16S 7170   2.113   6.290  14.585 -1.5968 -0.6154 -0.4266
   56DOPE  C217 7171   2.037   6.485  14.569 -0.3150  0.0246 -0.2127
   56DOPE  H17R 7172   1.942   6.440  14.604  0.4067 -1.9034 -0.5564
   56DOPE  H17S 7173   2.009   6.566  14.498 -2.2036 -1.2556 -1.0118
   56DOPE  C218 7174   2.091   6.554  14.693  0.1711 -0.2469  0.3462
   56DOPE  H18R 7175   2.127   6.484  14.772  0.7116  1.3271  1.5702
   56DOPE  H18S 7176   2.014   6.619  14.739  0.9270  0.3480  0.8060
   56DOPE  H18T 7177   2.174   6.621  14.663  0.9875 -1.7384 -0.8346
   56DOPE   C33 7178   2.260   6.549  13.237  0.5777  0.0797  0.0575
   56DOPE   H3X 7179   2.272   6.657  13.264  1.3144  0.6997 -2.5009
   56DOPE   H3Y 7180   2.323   6.515  13.153  1.0838 -0.3988  0.6240
   56DOPE   C34 7181   2.308   6.484  13.360 -0.3495 -0.3749 -0.8667
   56DOPE   H4X 7182   2.235   6.498  13.443 -1.2563 -0.7094 -1.5836
   56DOPE   H4Y 7183   2.316   6.375  13.342  0.7917 -0.1326 -2.0440
   56DOPE   C35 7184   2.451   6.529  13.391 -0.6562  0.3188  0.6358
   56DOPE   H5X 7185   2.430   6.621  13.449  0.6612  1.5402 -0.7271
   56DOPE   H5Y 7186   2.512   6.557  13.302 -0.7637  0.9681  0.7581
   56DOPE   C36 7187   2.522   6.424  13.473  0.3607 -0.1552 -0.1753
   56DOPE   H6X 7188   2.629   6.445  13.495  1.0253 -3.2253 -0.1307
   56DOPE   H6Y 7189   2.517   6.332  13.411 -0.1536 -0.1839 -0.0934
   56DOPE   C37 7190   2.455   6.414  13.613  0.0244 -0.6564  0.9428
   56DOPE   H7X 7191   2.456   6.519  13.649  0.4778 -1.0114  2.0205
   56DOPE   H7Y 7192   2.350   6.388  13.589 -0.2556  1.6538 -0.5401
   56DOPE   C38 7193   2.513   6.311  13.707 -0.4293 -0.4359 -0.0233
   56DOPE   H8X 7194   2.523   6.212  13.657 -0.7056 -0.1164 -0.7279
   56DOPE   H8Y 7195   2.442   6.306  13.792 -0.7505  1.9739 -0.0788
   56DOPE   C39 7196   2.654   6.357  13.752  0.7189 -0.1228  0.7437
   56DOPE   H9X 7197   2.726   6.340  13.670 -1.2256  1.9676 -1.5577
   56DOPE  C310 7198   2.692   6.385  13.885  0.2184 -0.6862  0.1010
   56DOPE  H10X 7199   2.793   6.422  13.910 -0.6919  1.2860  1.1523
   56DOPE  C311 7200   2.594   6.381  14.000  0.7252 -0.0034  0.3984
   56DOPE  H11X 7201   2.636   6.433  14.089 -2.5688  1.0977  1.4786
   56DOPE  H11Y 7202   2.511   6.438  13.953  0.7350 -1.7022 -1.8184
   56DOPE  C312 7203   2.529   6.250  14.042 -0.6408  0.8296  0.6990
   56DOPE  H12X 7204   2.502   6.187  13.954  1.5274  0.7922 -0.0006
   56DOPE  H12Y 7205   2.440   6.277  14.102 -1.0056  0.2281  0.4375
   56DOPE  C313 7206   2.624   6.166  14.129  0.7540  0.4825  0.2124
   56DOPE  H13X 7207   2.588   6.061  14.128 -0.0877  0.7581 -0.6412
   56DOPE  H13Y 7208   2.727   6.173  14.089 -0.2370  1.6041 -2.3533
   56DOPE  C314 7209   2.613   6.218  14.275  0.4742  0.9346  0.1345
   56DOPE  H14X 7210   2.506   6.228  14.302  0.6370 -2.5897  2.7432
   56DOPE  H14Y 7211   2.660   6.319  14.280  0.2359  1.0094  0.9646
   56DOPE  C315 7212   2.682   6.120  14.372 -0.2089 -0.5372  0.2308
   56DOPE  H15X 7213   2.781   6.104  14.324  0.3236  0.2455  1.0217
   56DOPE  H15Y 7214   2.626   6.024  14.378  1.0207 -1.2536  0.4982
   56DOPE  C316 7215   2.709   6.192  14.507 -0.3532  0.4012 -0.1256
   56DOPE  H16X 7216   2.610   6.235  14.532 -1.2054 -1.8340  0.5439
   56DOPE  H16Y 7217   2.786   6.270  14.486  0.7105  0.4451  3.3092
   56DOPE  C317 7218   2.770   6.109  14.625  0.0768 -0.4005  0.2195
   56DOPE  H17X 7219   2.702   6.030  14.664  1.2825 -1.2738  0.6084
   56DOPE  H17Y 7220   2.846   6.044  14.577 -1.1039 -0.9393 -1.0053
   56DOPE  C318 7221   2.818   6.205  14.731 -0.4275 -0.5387  0.3046
   56DOPE  H18X 7222   2.882   6.149  14.802  0.4227 -0.3689 -0.3063
   56DOPE  H18Y 7223   2.881   6.282  14.682 -0.9862  0.4973  1.1704
   56DOPE  H18Z 7224   2.742   6.266  14.783  1.3386  1.1508  1.0361
   57DOPE     N 7225   0.009   1.053  12.953 -0.6626  0.4241 -0.5420
   57DOPE   HN1 7226  -0.050   1.058  13.039 -0.6373  0.4851 -0.5286
   57DOPE   HN2 7227  -0.059   1.033  12.877  1.2784  1.4775 -2.6586
   57DOPE   HN3 7228   0.079   0.977  12.962  0.5386  1.3869 -1.4347
   57DOPE   C12 7229   0.068   1.187  12.934 -0.1635  0.1927  0.1428
   57DOPE  H12A 7230  -0.012   1.260  12.907  0.1342  0.1543 -0.8525
   57DOPE  H12B 7231   0.143   1.186  12.853  1.7222 -1.5178  1.7948
   57DOPE   C11 7232   0.138   1.225  13.068  0.7159  0.7145 -0.3728
   57DOPE  H11A 7233   0.064   1.215  13.151  0.2706 -2.6475 -1.0137
   57DOPE  H11B 7234   0.175   1.329  13.064  0.2077  0.9183  0.0904
   57DOPE     P 7235   0.389   1.136  13.049  0.1767 -0.1461  0.0610
   57DOPE   O13 7236   0.427   1.254  12.966 -1.1453  1.0172  1.0847
   57DOPE   O14 7237   0.415   1.008  12.981 -0.0263  0.2369  0.0814
   57DOPE   O11 7238   0.463   1.131  13.187  0.9518  0.1076  0.3414
   57DOPE   O12 7239   0.235   1.127  13.092  0.1671 -0.6862 -0.0057
   57DOPE    C1 7240   0.415   1.183  13.313  0.2665 -0.1395 -0.7378
   57DOPE    HA 7241   0.457   1.122  13.395  1.4277  0.6397 -0.7220
   57DOPE    HB 7242   0.304   1.178  13.322  0.4976 -1.4921  4.2287
   57DOPE    C2 7243   0.447   1.325  13.335  0.0991 -0.0734 -0.4148
   57DOPE    HS 7244   0.408   1.380  13.247 -0.6391  0.2887  0.1326
   57DOPE   O21 7245   0.592   1.337  13.356 -0.0840  0.0987 -0.1516
   57DOPE   C21 7246   0.643   1.450  13.324 -0.6030 -0.1296  0.3477
   57DOPE   O22 7247   0.582   1.550  13.284  0.1112  0.2175  0.0528
   57DOPE   C22 7248   0.790   1.445  13.357 -0.4581 -0.0390  0.6837
   57DOPE   H2R 7249   0.839   1.484  13.265 -2.1984  0.3951 -0.0910
   57DOPE   H2S 7250   0.816   1.338  13.369 -1.6561 -0.4260 -0.0183
   57DOPE    C3 7251   0.373   1.382  13.454  0.2115  0.7136  0.2224
   57DOPE    HX 7252   0.388   1.493  13.455 -0.9544  0.8753  0.2558
   57DOPE    HY 7253   0.426   1.333  13.539  0.3016 -0.6392 -0.5870
   57DOPE   O31 7254   0.230   1.346  13.459 -0.6062 -0.1788 -0.1811
   57DOPE   C31 7255   0.145   1.429  13.399 -0.4808 -0.0166  0.2342
   57DOPE   O32 7256   0.184   1.518  13.325  0.1809  0.5722 -0.1957
   57DOPE   C32 7257   0.005   1.418  13.467  0.3632 -0.3798 -0.0676
   57DOPE   H2X 7258  -0.066   1.442  13.385  2.0274  0.6252 -1.2873
   57DOPE   H2Y 7259   0.000   1.316  13.510 -0.3818 -1.2336 -2.0427
   57DOPE   C23 7260   0.835   1.533  13.470  0.1081 -0.5483  0.2584
   57DOPE   H3R 7261   0.794   1.636  13.467 -0.4566 -0.7555  0.6753
   57DOPE   H3S 7262   0.944   1.554  13.466 -0.6017  3.7966 -1.2095
   57DOPE   C24 7263   0.777   1.472  13.601  0.0385 -0.1782  0.0291
   57DOPE   H4R 7264   0.668   1.454  13.585  0.2429 -0.4960 -1.1113
   57DOPE   H4S 7265   0.804   1.540  13.685 -0.2172  0.7613 -0.6304
   57DOPE   C25 7266   0.843   1.338  13.632 -0.6829  0.1590 -0.5926
   57DOPE   H5R 7267   0.953   1.353  13.620  0.2084 -2.7978  2.3740
   57DOPE   H5S 7268   0.808   1.264  13.556  0.4327  0.0367 -1.0117
   57DOPE   C26 7269   0.813   1.276  13.770  0.8259 -0.1841 -0.2715
   57DOPE   H6R 7270   0.705   1.263  13.790  0.3318  1.0207 -1.9581
   57DOPE   H6S 7271   0.857   1.343  13.847 -0.8263 -0.0360  0.5840
   57DOPE   C27 7272   0.874   1.135  13.795 -0.1723  0.6713 -0.2549
   57DOPE   H7R 7273   0.867   1.113  13.904  3.6422 -0.5825 -0.1224
   57DOPE   H7S 7274   0.981   1.141  13.767  0.6456 -1.4096  2.0841
   57DOPE   C28 7275   0.817   1.018  13.711 -0.3481  0.0683 -0.4952
   57DOPE   H8R 7276   0.876   0.930  13.745 -0.6860  1.2464  3.6922
   57DOPE   H8S 7277   0.838   1.022  13.602 -1.0313  0.6929 -0.6096
   57DOPE   C29 7278   0.671   0.986  13.741 -0.6603 -0.6977  0.4231
   57DOPE   H9R 7279   0.597   1.038  13.678  1.9559  0.9477 -1.4399
   57DOPE  C210 7280   0.633   0.901  13.835 -0.5981 -0.0241 -0.0128
   57DOPE  H10R 7281   0.524   0.895  13.850 -0.4892  1.2288  1.6581
   57DOPE  C211 7282   0.723   0.836  13.944  0.2807  0.2277 -0.0867
   57DOPE  H11R 7283   0.689   0.871  14.044 -0.1614 -0.0096 -0.1505
   57DOPE  H11S 7284   0.828   0.865  13.924  0.0973  3.1135  2.4355
   57DOPE  C212 7285   0.718   0.682  13.940 -0.3021 -0.1349 -0.0994
   57DOPE  H12R 7286   0.730   0.640  13.838  1.5843 -0.4880  0.2233
   57DOPE  H12S 7287   0.621   0.654  13.985  0.0604 -0.8250  0.2741
   57DOPE  C213 7288   0.823   0.610  14.034  0.7804  0.1251 -0.3721
   57DOPE  H13R 7289   0.926   0.649  14.015  1.3679 -1.7187 -1.1716
   57DOPE  H13S 7290   0.808   0.502  14.015 -2.1890  0.4772 -0.4621
   57DOPE  C214 7291   0.796   0.637  14.181 -0.3797 -0.5631 -0.1064
   57DOPE  H14R 7292   0.810   0.745  14.203 -0.9794 -0.8721  2.0741
   57DOPE  H14S 7293   0.867   0.579  14.244 -1.4534 -2.0394 -0.1835
   57DOPE  C215 7294   0.651   0.602  14.225  0.0830  0.0202  0.4170
   57DOPE  H15R 7295   0.610   0.509  14.181  2.4740 -0.6611 -0.5016
   57DOPE  H15S 7296   0.578   0.680  14.194  1.0522  0.5552 -0.5511
   57DOPE  C216 7297   0.643   0.577  14.377 -0.3751  0.1868  0.0269
   57DOPE  H16R 7298   0.720   0.638  14.430 -0.0636  0.6474 -0.9298
   57DOPE  H16S 7299   0.665   0.469  14.388 -2.9394 -0.6705 -2.1196
   57DOPE  C217 7300   0.507   0.618  14.432 -0.0126 -0.1313  0.2815
   57DOPE  H17R 7301   0.476   0.714  14.385  0.7024  0.3518  0.7676
   57DOPE  H17S 7302   0.525   0.643  14.539 -1.2414 -1.4784  0.8235
   57DOPE  C218 7303   0.406   0.513  14.432  0.0522 -0.3928 -0.7198
   57DOPE  H18R 7304   0.349   0.524  14.527  1.6374 -0.0918  0.2420
   57DOPE  H18S 7305   0.456   0.414  14.437  0.5148 -0.1089  0.9798
   57DOPE  H18T 7306   0.340   0.521  14.344 -1.2386 -1.6213  0.0905
   57DOPE   C33 7307  -0.019   1.529  13.579  0.2475 -0.3268  0.1780
   57DOPE   H3X 7308   0.075   1.582  13.607  0.9378 -0.7293 -1.2929
   57DOPE   H3Y 7309  -0.049   1.474  13.671  0.6615 -3.6966 -1.5451
   57DOPE   C34 7310  -0.113   1.641  13.526  0.0561  0.0651 -0.1747
   57DOPE   H4X 7311  -0.066   1.705  13.449  1.3512  0.5021  0.9243
   57DOPE   H4Y 7312  -0.205   1.589  13.493 -1.0242  1.6518  0.2500
   57DOPE   C35 7313  -0.157   1.729  13.646 -0.2995 -1.1400  0.2090
   57DOPE   H5X 7314  -0.189   1.665  13.731 -0.6468  1.6125  2.2856
   57DOPE   H5Y 7315  -0.229   1.810  13.623  0.8062 -0.3010 -0.4352
   57DOPE   C36 7316  -0.037   1.814  13.711  0.3609 -0.4539 -0.2752
   57DOPE   H6X 7317   0.041   1.847  13.639  0.5229 -2.1371 -0.9014
   57DOPE   H6Y 7318   0.007   1.730  13.769  0.2372 -0.1571  0.2508
   57DOPE   C37 7319  -0.076   1.928  13.806  0.0903  0.0060  0.0101
   57DOPE   H7X 7320  -0.164   1.902  13.868 -0.5314  0.4831 -0.6481
   57DOPE   H7Y 7321   0.002   1.936  13.884 -0.0353 -0.0070  0.1366
   57DOPE   C38 7322  -0.074   2.067  13.744  0.5657 -0.1209 -0.0364
   57DOPE   H8X 7323  -0.171   2.112  13.776 -1.1987 -2.4531 -1.7599
   57DOPE   H8Y 7324  -0.088   2.060  13.634 -1.0367  0.0931  0.1219
   57DOPE   C39 7325   0.045   2.157  13.770  0.3525 -0.1379 -0.1475
   57DOPE   H9X 7326   0.143   2.106  13.769  0.6542  0.4313  0.0185
   57DOPE  C310 7327   0.041   2.285  13.805 -0.0621  0.0975 -0.2258
   57DOPE  H10X 7328   0.134   2.344  13.804 -0.1580  0.2899  0.7622
   57DOPE  C311 7329  -0.092   2.369  13.799 -0.0265  0.4635  0.3676
   57DOPE  H11X 7330  -0.084   2.462  13.739 -3.6995  0.3450 -0.5495
   57DOPE  H11Y 7331  -0.168   2.318  13.735  0.4319  0.1832  0.0380
   57DOPE  C312 7332  -0.139   2.400  13.942  0.7081 -0.2982 -0.2868
   57DOPE  H12X 7333  -0.239   2.446  13.930  0.7362 -0.0022  0.5887
   57DOPE  H12Y 7334  -0.076   2.480  13.985  0.8119 -0.9047  0.7157
   57DOPE  C313 7335  -0.142   2.283  14.036 -0.0511 -0.3396 -0.6878
   57DOPE  H13X 7336  -0.189   2.201  13.977 -0.0398 -0.0607 -1.0931
   57DOPE  H13Y 7337  -0.042   2.251  14.071 -0.7643 -0.0327  1.8285
   57DOPE  C314 7338  -0.229   2.308  14.157  0.3423  0.2740  0.1352
   57DOPE  H14X 7339  -0.244   2.220  14.223 -2.3978 -1.5015 -2.6066
   57DOPE  H14Y 7340  -0.332   2.328  14.119  0.6001 -0.5427 -1.0209
   57DOPE  C315 7341  -0.177   2.416  14.249 -0.3168  0.5501  0.5313
   57DOPE  H15X 7342  -0.154   2.512  14.200 -1.3067  0.7572  0.4376
   57DOPE  H15Y 7343  -0.075   2.385  14.280 -0.7823 -0.3749  1.2277
   57DOPE  C316 7344  -0.266   2.465  14.361  0.0770  0.2530  0.3932
   57DOPE  H16X 7345  -0.297   2.387  14.433  1.1575  0.5482  1.2238
   57DOPE  H16Y 7346  -0.349   2.527  14.322  0.0259  0.4149  0.7573
   57DOPE  C317 7347  -0.184   2.563  14.446  0.1324 -0.2576  0.0800
   57DOPE  H17X 7348  -0.144   2.645  14.383  0.5704 -0.2297  0.3895
   57DOPE  H17Y 7349  -0.256   2.598  14.523  0.5631 -2.0292  1.3551
   57DOPE  C318 7350  -0.061   2.499  14.518 -0.6238  0.6629 -0.1202
   57DOPE  H18X 7351   0.026   2.486  14.450 -0.5524 -0.0800  0.1035
   57DOPE  H18Y 7352  -0.031   2.553  14.610  4.0839  0.3498 -1.2041
   57DOPE  H18Z 7353  -0.078   2.394  14.550  0.7446  0.6220  0.5519
   58DOPE     N 7354   1.506   5.475  13.118 -0.0596  0.3910  0.7722
   58DOPE   HN1 7355   1.587   5.493  13.055  0.0121  0.4009  0.8671
   58DOPE   HN2 7356   1.534   5.486  13.217 -2.0713 -2.0369  1.7043
   58DOPE   HN3 7357   1.476   5.378  13.095  0.7410  0.4030 -0.4618
   58DOPE   C12 7358   1.399   5.577  13.088  0.3304 -0.7254  0.2020
   58DOPE  H12A 7359   1.312   5.544  13.148  1.7476 -1.7875  1.7607
   58DOPE  H12B 7360   1.375   5.560  12.981  0.9910  0.4232 -0.1483
   58DOPE   C11 7361   1.439   5.723  13.123  0.5093  0.6747  0.5180
   58DOPE  H11A 7362   1.442   5.727  13.234  0.1659 -0.1630  0.5625
   58DOPE  H11B 7363   1.356   5.789  13.090  1.1057  0.7739 -0.8723
   58DOPE     P 7364   1.604   5.809  12.930 -0.0041  0.0503  0.3675
   58DOPE   O13 7365   1.522   5.747  12.823 -0.2267  0.4022  0.0858
   58DOPE   O14 7366   1.746   5.787  12.902  0.4733 -0.0019 -0.0713
   58DOPE   O11 7367   1.587   5.964  12.937  0.0781 -0.0940  0.1528
   58DOPE   O12 7368   1.567   5.748  13.067  0.6599 -0.6595  0.6326
   58DOPE    C1 7369   1.701   6.048  12.934  0.4811 -0.4622 -0.0403
   58DOPE    HA 7370   1.671   6.152  12.913  1.6146 -0.1645 -0.2679
   58DOPE    HB 7371   1.774   6.033  12.852 -0.1256  0.9626 -0.8781
   58DOPE    C2 7372   1.776   6.040  13.081  0.1438 -0.2330 -0.6541
   58DOPE    HS 7373   1.832   5.945  13.063 -0.0049 -0.6335  0.8958
   58DOPE   O21 7374   1.681   6.018  13.183 -0.2314 -0.1496  1.1215
   58DOPE   C21 7375   1.712   5.942  13.279 -0.2138  0.3256  0.0118
   58DOPE   O22 7376   1.818   5.880  13.292  0.1726 -0.4285 -0.3369
   58DOPE   C22 7377   1.603   5.956  13.383 -0.0524 -0.5033 -0.2564
   58DOPE   H2R 7378   1.501   5.927  13.353 -0.2502 -0.0535 -0.0202
   58DOPE   H2S 7379   1.612   6.066  13.398  0.7232 -0.7869  1.7734
   58DOPE    C3 7380   1.865   6.158  13.116 -0.1185 -0.7864  0.6768
   58DOPE    HX 7381   1.797   6.245  13.131 -0.3412 -0.4331 -1.9067
   58DOPE    HY 7382   1.912   6.188  13.020 -1.1165 -0.6235  0.2147
   58DOPE   O31 7383   1.953   6.141  13.230 -0.4695  0.0355 -0.4155
   58DOPE   C31 7384   2.080   6.099  13.214  0.7071 -0.0163  1.0416
   58DOPE   O32 7385   2.129   6.074  13.107  0.0859  0.3056  0.0957
   58DOPE   C32 7386   2.150   6.087  13.349  0.4503  0.7404 -0.2720
   58DOPE   H2X 7387   2.223   6.170  13.358  1.2224 -0.1140  1.7998
   58DOPE   H2Y 7388   2.067   6.105  13.421  0.7019  0.2306  0.1519
   58DOPE   C23 7389   1.634   5.887  13.517 -0.5197 -0.2066 -0.3625
   58DOPE   H3R 7390   1.645   5.777  13.505  1.1905  0.0702 -1.5644
   58DOPE   H3S 7391   1.547   5.900  13.585 -0.7972  1.5586 -0.9984
   58DOPE   C24 7392   1.752   5.948  13.599  0.0457 -0.4092  0.2082
   58DOPE   H4R 7393   1.745   6.057  13.617 -1.4533 -0.2081 -1.3655
   58DOPE   H4S 7394   1.843   5.920  13.541  0.5674  1.2350  0.1917
   58DOPE   C25 7395   1.755   5.884  13.741 -1.0239 -0.1076  0.6659
   58DOPE   H5R 7396   1.850   5.926  13.782  0.2805  0.0948 -2.2956
   58DOPE   H5S 7397   1.779   5.778  13.716 -0.5871 -0.2694  1.7089
   58DOPE   C26 7398   1.641   5.917  13.826 -0.2921  0.3932  1.4970
   58DOPE   H6R 7399   1.547   5.867  13.792  0.5211  0.0193 -0.2988
   58DOPE   H6S 7400   1.613   6.023  13.808  0.8946  0.2884 -1.4965
   58DOPE   C27 7401   1.651   5.876  13.980  0.2283 -0.1588  0.1644
   58DOPE   H7R 7402   1.646   5.765  13.982 -0.0412 -0.1388  1.3185
   58DOPE   H7S 7403   1.560   5.919  14.029  0.8659  0.3798  0.9114
   58DOPE   C28 7404   1.772   5.923  14.058 -0.1370  0.4233  0.2312
   58DOPE   H8R 7405   1.770   6.033  14.050  0.9875  0.5424  1.2888
   58DOPE   H8S 7406   1.863   5.898  13.999 -0.7360  1.1904 -1.0559
   58DOPE   C29 7407   1.785   5.861  14.197  0.1288 -0.4755  0.8157
   58DOPE   H9R 7408   1.833   5.764  14.180 -0.3788 -0.4628 -0.9388
   58DOPE  C210 7409   1.751   5.903  14.321  0.2309 -0.2758 -0.9075
   58DOPE  H10R 7410   1.763   5.841  14.411 -0.6998 -1.0949 -1.3200
   58DOPE  C211 7411   1.686   6.038  14.344  0.2897 -0.1068  0.1718
   58DOPE  H11R 7412   1.711   6.106  14.260 -1.1161 -0.0598 -0.2366
   58DOPE  H11S 7413   1.721   6.081  14.440 -0.8601  1.0822  0.0802
   58DOPE  C212 7414   1.528   6.051  14.348  0.8568  0.4355  0.1920
   58DOPE  H12R 7415   1.491   5.990  14.262  2.8791  1.0018 -1.1605
   58DOPE  H12S 7416   1.500   6.158  14.340 -0.1552  0.2900  1.5162
   58DOPE  C213 7417   1.464   6.008  14.480 -0.8487  0.0852 -0.5545
   58DOPE  H13R 7418   1.496   6.076  14.562 -2.7485 -0.7673  0.9622
   58DOPE  H13S 7419   1.501   5.906  14.501  1.8627  0.4733 -2.8639
   58DOPE  C214 7420   1.312   5.997  14.458  0.3151  0.3120  0.1598
   58DOPE  H14R 7421   1.286   5.926  14.377 -1.6370  1.9734 -0.7462
   58DOPE  H14S 7422   1.256   6.088  14.427 -0.5326 -1.1242 -2.9326
   58DOPE  C215 7423   1.237   5.943  14.578 -0.8175  1.1689 -0.0271
   58DOPE  H15R 7424   1.275   5.843  14.606 -1.2360  1.2243  0.7621
   58DOPE  H15S 7425   1.133   5.925  14.545 -1.5824  3.2268  1.0663
   58DOPE  C216 7426   1.224   6.037  14.699 -0.3317  0.4990 -0.1710
   58DOPE  H16R 7427   1.213   6.142  14.666  0.2263  0.8778  0.8405
   58DOPE  H16S 7428   1.308   6.038  14.771 -0.6789  2.6502  0.2664
   58DOPE  C217 7429   1.102   6.004  14.786 -0.5128  0.6868 -0.1619
   58DOPE  H17R 7430   1.006   6.003  14.729 -1.2464 -1.2237  1.0321
   58DOPE  H17S 7431   1.095   6.090  14.855 -3.2301  0.2798  0.1983
   58DOPE  C218 7432   1.125   5.869  14.849  0.1320  0.7054 -0.3087
   58DOPE  H18R 7433   1.063   5.870  14.942  0.9840  0.7471  0.2635
   58DOPE  H18S 7434   1.230   5.870  14.885 -0.2286  0.3916  0.8005
   58DOPE  H18T 7435   1.090   5.792  14.777 -3.0237  2.1295 -0.5126
   58DOPE   C33 7436   2.219   5.952  13.378 -0.8625 -0.4279 -0.6325
   58DOPE   H3X 7437   2.296   5.936  13.300  2.0356 -2.1324  2.2959
   58DOPE   H3Y 7438   2.150   5.865  13.368 -0.6821 -0.7073  0.3793
   58DOPE   C34 7439   2.306   5.968  13.506  0.3112 -0.0110  0.1899
   58DOPE   H4X 7440   2.377   5.882  13.508  0.1136 -0.1910 -0.3288
   58DOPE   H4Y 7441   2.358   6.065  13.497 -0.6365  0.7531  2.2397
   58DOPE   C35 7442   2.229   5.961  13.631  0.6710 -0.4575 -0.4600
   58DOPE   H5X 7443   2.145   6.033  13.627  0.8718 -0.2072 -0.2554
   58DOPE   H5Y 7444   2.296   5.998  13.712  0.7182 -2.3338  0.4088
   58DOPE   C36 7445   2.188   5.815  13.666 -0.5604  0.2899  0.0177
   58DOPE   H6X 7446   2.280   5.754  13.674 -1.1027 -0.3344  1.8777
   58DOPE   H6Y 7447   2.111   5.793  13.588  0.2741  1.5286 -1.2154
   58DOPE   C37 7448   2.127   5.817  13.806  0.2842 -0.3600 -0.0773
   58DOPE   H7X 7449   2.071   5.911  13.823  0.9800  0.1506 -0.5744
   58DOPE   H7Y 7450   2.064   5.728  13.828 -2.3224  1.0024 -1.6234
   58DOPE   C38 7451   2.242   5.810  13.916  0.4436 -0.2913 -0.4735
   58DOPE   H8X 7452   2.300   5.901  13.891  1.1347 -0.4412  0.5522
   58DOPE   H8Y 7453   2.319   5.731  13.903  0.6967 -0.5080  1.9138
   58DOPE   C39 7454   2.188   5.816  14.054  0.2091  0.2125 -0.9061
   58DOPE   H9X 7455   2.096   5.875  14.063 -0.8387 -1.4917 -0.0120
   58DOPE  C310 7456   2.248   5.780  14.167 -0.2928  0.0869 -0.0853
   58DOPE  H10X 7457   2.192   5.798  14.260  0.5827 -0.2076  0.5084
   58DOPE  C311 7458   2.386   5.727  14.190 -0.1436 -0.0531  0.2481
   58DOPE  H11X 7459   2.407   5.637  14.128  1.0796 -1.2236  2.2698
   58DOPE  H11Y 7460   2.460   5.805  14.164 -0.3011  0.0729  0.1759
   58DOPE  C312 7461   2.401   5.699  14.339 -0.4601 -0.7502 -0.5341
   58DOPE  H12X 7462   2.323   5.638  14.390 -0.7239  1.6612  2.1498
   58DOPE  H12Y 7463   2.393   5.799  14.387  1.6011 -0.5597 -0.4816
   58DOPE  C313 7464   2.533   5.642  14.381  0.1268  0.1503  0.4479
   58DOPE  H13X 7465   2.547   5.546  14.326  0.5581  0.8524 -0.6961
   58DOPE  H13Y 7466   2.616   5.707  14.347  1.3627 -1.9547 -0.8106
   58DOPE  C314 7467   2.547   5.619  14.533  0.0063  0.0747  0.2765
   58DOPE  H14X 7468   2.454   5.567  14.564  0.0152  0.1520  0.4383
   58DOPE  H14Y 7469   2.553   5.718  14.584  1.0073 -0.9084  2.1457
   58DOPE  C315 7470   2.668   5.529  14.570  0.5646 -0.0213  1.0083
   58DOPE  H15X 7471   2.638   5.425  14.545  0.6154  0.2057 -0.0381
   58DOPE  H15Y 7472   2.679   5.534  14.680 -1.0617  2.2547  1.1373
   58DOPE  C316 7473   2.797   5.556  14.491 -0.2965  0.0064 -0.8839
   58DOPE  H16X 7474   2.823   5.664  14.485  0.0729  0.0324  0.6606
   58DOPE  H16Y 7475   2.777   5.516  14.390  0.4499 -1.8200 -0.3426
   58DOPE  C317 7476   2.920   5.483  14.544  0.1233 -0.1363 -0.0946
   58DOPE  H17X 7477   2.936   5.509  14.651  1.9929 -3.6927  0.6807
   58DOPE  H17Y 7478   2.914   5.372  14.530  0.5868 -0.2732  0.7248
   58DOPE  C318 7479   3.046   5.529  14.461  0.1369  0.1154  0.8388
   58DOPE  H18X 7480   3.051   5.639  14.473 -0.3510 -0.0849  3.5194
   58DOPE  H18Y 7481   3.140   5.483  14.498 -0.3419  0.1761  2.2132
   58DOPE  H18Z 7482   3.028   5.500  14.355  0.7068  0.9369  0.5078
   59DOPE     N 7483   7.465   7.658  12.885 -0.2051  0.3025  0.3139
   59DOPE   HN1 7484   7.449   7.620  12.981 -0.6283 -0.0277  0.1117
   59DOPE   HN2 7485   7.441   7.758  12.898 -0.8574  0.2289 -0.3266
   59DOPE   HN3 7486   7.392   7.617  12.825  0.2436  3.3246 -2.5660
   59DOPE   C12 7487   7.614   7.618  12.862 -0.4111  0.3009 -0.0385
   59DOPE  H12A 7488   7.679   7.705  12.889  0.5942  0.0130 -1.4346
   59DOPE  H12B 7489   7.620   7.588  12.755 -0.8210  0.0466  0.0069
   59DOPE   C11 7490   7.660   7.493  12.946 -0.0601  0.1335  0.2511
   59DOPE  H11A 7491   7.761   7.457  12.915 -0.2574 -1.2426  1.1052
   59DOPE  H11B 7492   7.593   7.408  12.920  0.2042 -0.1345  0.4337
   59DOPE     P 7493   7.540   7.482  13.179 -0.0724  0.1887 -0.0131
   59DOPE   O13 7494   7.566   7.337  13.197  0.1894  0.3037  0.3954
   59DOPE   O14 7495   7.410   7.524  13.121 -0.0730  0.2351  0.1551
   59DOPE   O11 7496   7.561   7.558  13.313  0.3002  0.4614 -0.1916
   59DOPE   O12 7497   7.657   7.530  13.084 -0.4599  0.1543  0.0647
   59DOPE    C1 7498   7.585   7.704  13.312 -0.7579  0.8025  0.6130
   59DOPE    HA 7499   7.489   7.758  13.302 -2.4024 -2.2457 -1.8184
   59DOPE    HB 7500   7.640   7.724  13.218  0.5502  2.7544  1.7302
   59DOPE    C2 7501   7.684   7.751  13.421  0.1999  0.5061 -0.5869
   59DOPE    HS 7502   7.779   7.694  13.410  1.7999  2.6157  1.3483
   59DOPE   O21 7503   7.628   7.730  13.546  0.0048  0.4539  0.1905
   59DOPE   C21 7504   7.715   7.720  13.643 -0.7083  0.0850  0.3659
   59DOPE   O22 7505   7.837   7.731  13.632 -0.0066  0.5684  0.0974
   59DOPE   C22 7506   7.639   7.692  13.770 -1.1687  0.1030  0.3549
   59DOPE   H2R 7507   7.664   7.593  13.812  0.1077 -0.3578 -1.3832
   59DOPE   H2S 7508   7.529   7.705  13.756 -0.7974  1.3596 -1.8897
   59DOPE    C3 7509   7.732   7.898  13.405  0.3610  0.3768  0.5905
   59DOPE    HX 7510   7.799   7.906  13.316  0.8185 -0.7662  0.8206
   59DOPE    HY 7511   7.797   7.917  13.493  1.4736 -1.5083  0.2370
   59DOPE   O31 7512   7.621   7.993  13.403  0.1529  0.2438  0.5091
   59DOPE   C31 7513   7.585   8.050  13.517  1.4191  1.1254 -0.1604
   59DOPE   O32 7514   7.640   8.026  13.628  0.1435 -0.5934  0.3624
   59DOPE   C32 7515   7.442   8.118  13.502 -0.0866 -0.3162 -0.2960
   59DOPE   H2X 7516   7.373   8.064  13.434 -1.7202  0.4991  0.6590
   59DOPE   H2Y 7517   7.400   8.113  13.604  1.2292 -0.2525  0.2614
   59DOPE   C23 7518   7.684   7.786  13.883 -0.3499 -0.2336 -0.7672
   59DOPE   H3R 7519   7.671   7.894  13.862 -3.2276  0.0577  1.7947
   59DOPE   H3S 7520   7.793   7.773  13.900  0.1426  3.7108 -0.1500
   59DOPE   C24 7521   7.609   7.768  14.020 -0.6480 -0.2165  0.1287
   59DOPE   H4R 7522   7.624   7.664  14.056  1.0892  0.5587  1.8141
   59DOPE   H4S 7523   7.500   7.791  14.012 -0.5196 -0.0828 -1.4159
   59DOPE   C25 7524   7.674   7.859  14.133 -0.4369  1.0411  0.4443
   59DOPE   H5R 7525   7.670   7.966  14.106 -1.7394  0.8573 -0.1308
   59DOPE   H5S 7526   7.782   7.831  14.137 -0.0356  2.3172 -0.7585
   59DOPE   C26 7527   7.603   7.842  14.273  0.1234  0.4471  0.7607
   59DOPE   H6R 7528   7.604   7.740  14.316  0.7267  0.7631  1.5089
   59DOPE   H6S 7529   7.496   7.874  14.266  0.1257  0.8534  2.2548
   59DOPE   C27 7530   7.674   7.938  14.374  0.3211  0.7033  0.5112
   59DOPE   H7R 7531   7.665   8.043  14.339 -0.6124  1.5871  3.1575
   59DOPE   H7S 7532   7.779   7.902  14.372  0.1359  0.1834 -0.7890
   59DOPE   C28 7533   7.622   7.927  14.511 -0.3425  0.5992  0.1493
   59DOPE   H8R 7534   7.607   7.818  14.521  0.2843  0.1488 -2.8660
   59DOPE   H8S 7535   7.531   7.988  14.529  0.1268  0.7947  2.0031
   59DOPE   C29 7536   7.725   7.980  14.609 -0.1479 -0.2990  0.0704
   59DOPE   H9R 7537   7.816   7.919  14.614 -0.2918 -0.5706 -0.4167
   59DOPE  C210 7538   7.723   8.090  14.683  0.4759 -0.1403 -0.2502
   59DOPE  H10R 7539   7.809   8.114  14.747 -0.6397 -1.5105  1.9022
   59DOPE  C211 7540   7.607   8.177  14.701 -0.1617 -0.5509  0.1711
   59DOPE  H11R 7541   7.602   8.223  14.802 -1.1672  2.3142 -1.0925
   59DOPE  H11S 7542   7.512   8.122  14.682 -0.7826  0.5931 -0.0974
   59DOPE  C212 7543   7.598   8.282  14.588 -0.1066 -0.0219 -0.2981
   59DOPE  H12R 7544   7.501   8.335  14.595 -0.2849 -0.5046  1.6580
   59DOPE  H12S 7545   7.607   8.226  14.493 -0.5433  1.2102 -1.0857
   59DOPE  C213 7546   7.708   8.386  14.606 -0.2863 -0.3692 -0.1726
   59DOPE  H13R 7547   7.693   8.466  14.530 -1.7213 -0.7916 -0.3686
   59DOPE  H13S 7548   7.803   8.336  14.577 -1.5729 -1.8240 -2.0778
   59DOPE  C214 7549   7.738   8.445  14.746 -0.4061 -0.1800 -0.0686
   59DOPE  H14R 7550   7.788   8.363  14.801 -2.8759 -0.3272  2.1557
   59DOPE  H14S 7551   7.644   8.473  14.798 -0.4643 -0.8946  0.2123
   59DOPE  C215 7552   7.835   8.553  14.738  0.7725  0.1611 -0.4492
   59DOPE  H15R 7553   7.781   8.649  14.722  2.9399  2.0258  2.5163
   59DOPE  H15S 7554   7.906   8.533  14.655  2.0657  1.2905  0.3387
   59DOPE  C216 7555   7.912   8.573  14.869  0.1547 -0.9379  0.1708
   59DOPE  H16R 7556   7.978   8.486  14.887  1.4283  0.0340  0.3769
   59DOPE  H16S 7557   7.848   8.585  14.959 -0.3641  1.3160 -0.4342
   59DOPE  C217 7558   7.997   8.702  14.874  0.5105 -0.0161  0.5116
   59DOPE  H17R 7559   7.946   8.794  14.839  0.0704 -0.8219 -1.0821
   59DOPE  H17S 7560   8.079   8.700  14.799  1.6739 -0.7428  1.7590
   59DOPE  C218 7561   8.074   8.732  15.002 -0.4714 -0.5901 -0.8051
   59DOPE  H18R 7562   8.149   8.653  15.024  0.9405 -0.4019 -4.2718
   59DOPE  H18S 7563   7.995   8.740  15.080  1.2379 -1.5113  1.0998
   59DOPE  H18T 7564   8.129   8.829  14.994 -0.9187 -0.2976 -0.4208
   59DOPE   C33 7565   7.458   8.264  13.461  0.9807 -0.0609  0.2110
   59DOPE   H3X 7566   7.354   8.303  13.449  1.3951  0.7679 -0.8167
   59DOPE   H3Y 7567   7.508   8.262  13.362  1.2337 -0.2617  0.3422
   59DOPE   C34 7568   7.525   8.348  13.567  0.3842 -0.2700 -1.1045
   59DOPE   H4X 7569   7.613   8.297  13.612 -0.7720  0.1038  1.8336
   59DOPE   H4Y 7570   7.575   8.437  13.524  0.6777 -0.4605 -1.1652
   59DOPE   C35 7571   7.438   8.402  13.681 -0.7522  0.1814  0.2773
   59DOPE   H5X 7572   7.427   8.317  13.751 -0.6366 -0.2577 -0.2323
   59DOPE   H5Y 7573   7.340   8.423  13.635 -0.3008  1.1534 -0.2756
   59DOPE   C36 7574   7.506   8.518  13.750 -0.2124  0.9560 -0.4427
   59DOPE   H6X 7575   7.502   8.608  13.685  2.4085  0.4481 -1.4060
   59DOPE   H6Y 7576   7.612   8.496  13.772 -0.2169  1.3256 -0.0490
   59DOPE   C37 7577   7.431   8.546  13.885 -0.6391  0.4333 -0.6604
   59DOPE   H7X 7578   7.321   8.549  13.867 -0.8033 -1.6621 -0.2835
   59DOPE   H7Y 7579   7.455   8.465  13.957 -1.2945 -0.9054 -1.8757
   59DOPE   C38 7580   7.467   8.680  13.949 -0.8625  0.7619  0.3722
   59DOPE   H8X 7581   7.477   8.758  13.871 -0.0900 -0.5838 -0.9137
   59DOPE   H8Y 7582   7.565   8.674  14.001 -0.6755  1.4327  0.1004
   59DOPE   C39 7583   7.366   8.727  14.048 -0.3182  0.3349  1.2697
   59DOPE   H9X 7584   7.306   8.816  14.027  1.6214  1.2891 -0.7047
   59DOPE  C310 7585   7.354   8.673  14.168 -0.1154 -0.0536  0.5483
   59DOPE  H10X 7586   7.263   8.697  14.226 -1.2270 -1.7795 -0.3656
   59DOPE  C311 7587   7.426   8.565  14.227 -0.6247 -1.1082 -0.3261
   59DOPE  H11X 7588   7.364   8.474  14.221 -1.0712 -0.9552  1.3488
   59DOPE  H11Y 7589   7.514   8.535  14.166 -0.6328 -2.0587  0.1145
   59DOPE  C312 7590   7.479   8.591  14.371  0.5800 -0.3029 -0.4332
   59DOPE  H12X 7591   7.554   8.673  14.372  0.7468 -0.4564 -0.4041
   59DOPE  H12Y 7592   7.530   8.501  14.411  0.9130 -0.0615 -0.3078
   59DOPE  C313 7593   7.365   8.626  14.475 -0.1860  0.1952  0.2450
   59DOPE  H13X 7594   7.297   8.709  14.445 -1.8543 -1.3970 -0.5756
   59DOPE  H13Y 7595   7.291   8.543  14.477 -2.8870  2.4281  2.9687
   59DOPE  C314 7596   7.422   8.656  14.620  0.0569  0.5227  0.2388
   59DOPE  H14X 7597   7.484   8.747  14.605  1.7618 -0.7810 -1.0352
   59DOPE  H14Y 7598   7.490   8.571  14.642  0.8862  0.9624 -0.5505
   59DOPE  C315 7599   7.313   8.710  14.714  0.2258  0.1293  0.2495
   59DOPE  H15X 7600   7.231   8.635  14.726  1.9617 -1.7963  0.5637
   59DOPE  H15Y 7601   7.278   8.813  14.691  1.0443  0.3026 -0.2456
   59DOPE  C316 7602   7.369   8.710  14.857  0.3254  0.1507  0.7061
   59DOPE  H16X 7603   7.459   8.774  14.851 -0.7236  1.6646  0.7342
   59DOPE  H16Y 7604   7.389   8.607  14.893 -1.3896 -1.0111 -1.3766
   59DOPE  C317 7605   7.269   8.777  14.956 -0.1209  0.0617 -0.0667
   59DOPE  H17X 7606   7.252   8.884  14.929  0.7086  0.7234  1.8536
   59DOPE  H17Y 7607   7.173   8.724  14.941 -0.4769  0.5422  0.5023
   59DOPE  C318 7608   7.314   8.775  15.096 -0.5835  0.0083 -0.2876
   59DOPE  H18X 7609   7.290   8.676  15.139  0.2620 -0.3976 -0.7369
   59DOPE  H18Y 7610   7.424   8.791  15.103 -0.5086  0.7205 -2.3033
   59DOPE  H18Z 7611   7.251   8.850  15.150  0.3591  0.0735  0.7621
   60DOPE     N 7612   0.669   5.819  13.097  0.6810  0.9104  0.3756
   60DOPE   HN1 7613   0.763   5.777  13.113 -0.1406 -0.7101  1.2234
   60DOPE   HN2 7614   0.638   5.884  13.171 -0.8982 -0.4444  0.9615
   60DOPE   HN3 7615   0.605   5.737  13.098  2.0098 -0.2220 -1.3635
   60DOPE   C12 7616   0.652   5.877  12.958  0.4880  0.0695 -0.0401
   60DOPE  H12A 7617   0.544   5.904  12.955  0.0299 -1.4630  1.0814
   60DOPE  H12B 7618   0.665   5.798  12.881  0.7392 -0.3319  0.4113
   60DOPE   C11 7619   0.753   5.994  12.940 -0.2280  0.8055  0.3445
   60DOPE  H11A 7620   0.735   6.056  13.030 -0.9634 -0.2010  0.9132
   60DOPE  H11B 7621   0.724   6.049  12.848 -2.0772 -3.2584 -1.7620
   60DOPE     P 7622   1.003   6.011  13.030 -0.0575 -0.4240  0.0423
   60DOPE   O13 7623   0.997   6.160  13.017 -0.0215 -0.1016 -0.2010
   60DOPE   O14 7624   1.131   5.939  13.013 -0.5827  0.5329 -0.1181
   60DOPE   O11 7625   0.962   5.991  13.178  0.0163  0.0768 -0.5560
   60DOPE   O12 7626   0.894   5.944  12.939  0.4377  0.1361 -0.3753
   60DOPE    C1 7627   1.021   5.897  13.265 -0.7015  0.2565 -0.3454
   60DOPE    HA 7628   1.096   5.831  13.216 -1.2731 -0.2736 -0.5169
   60DOPE    HB 7629   0.941   5.828  13.297 -1.0544  0.2212 -1.2615
   60DOPE    C2 7630   1.090   5.962  13.387  0.0706 -0.2310 -0.0571
   60DOPE    HS 7631   1.119   5.880  13.456 -1.3528 -0.3906  0.3851
   60DOPE   O21 7632   0.990   6.041  13.458  0.4034  0.0438  0.1888
   60DOPE   C21 7633   0.896   5.975  13.515  0.1637  0.0498  0.4413
   60DOPE   O22 7634   0.883   5.850  13.522  0.0236 -0.5301  0.1755
   60DOPE   C22 7635   0.828   6.059  13.621  0.5927  0.1555 -0.3701
   60DOPE   H2R 7636   0.803   6.159  13.578  1.7594  1.2504  1.3589
   60DOPE   H2S 7637   0.912   6.074  13.691  0.0694 -1.0713  0.5567
   60DOPE    C3 7638   1.216   6.043  13.357  0.1808  0.2730 -0.1552
   60DOPE    HX 7639   1.196   6.116  13.276  0.3898 -2.4121 -2.8109
   60DOPE    HY 7640   1.275   5.961  13.311 -1.1178  0.7032 -2.7790
   60DOPE   O31 7641   1.284   6.100  13.471 -0.3288 -0.3081 -0.6486
   60DOPE   C31 7642   1.265   6.232  13.496  0.1288  0.4023 -0.6156
   60DOPE   O32 7643   1.213   6.315  13.425  0.0263  0.1512 -0.4094
   60DOPE   C32 7644   1.309   6.252  13.643  0.0973  0.7317  0.1450
   60DOPE   H2X 7645   1.220   6.241  13.708 -0.9288  2.3352 -0.8955
   60DOPE   H2Y 7646   1.381   6.171  13.666  1.4721  1.8307 -0.1791
   60DOPE   C23 7647   0.709   5.996  13.695  0.1529  0.4732 -0.6706
   60DOPE   H3R 7648   0.751   5.913  13.755 -1.0741  2.4894  3.3217
   60DOPE   H3S 7649   0.631   5.951  13.630 -0.9232 -0.3164  1.0723
   60DOPE   C24 7650   0.639   6.082  13.803  0.3590 -0.2333  0.3174
   60DOPE   H4R 7651   0.716   6.106  13.879 -0.6687  1.3652  0.9305
   60DOPE   H4S 7652   0.555   6.027  13.851  0.9915 -0.9744  0.5747
   60DOPE   C25 7653   0.582   6.212  13.742 -1.3411  0.4507  0.6174
   60DOPE   H5R 7654   0.537   6.189  13.644 -0.2897  2.0405 -0.2937
   60DOPE   H5S 7655   0.674   6.263  13.706 -0.5813 -0.2135  1.5644
   60DOPE   C26 7656   0.498   6.315  13.831  0.3008  0.1815  0.6612
   60DOPE   H6R 7657   0.484   6.399  13.759 -0.1065 -1.0236 -0.7279
   60DOPE   H6S 7658   0.567   6.346  13.912  0.3501  0.3001  0.5748
   60DOPE   C27 7659   0.363   6.264  13.885 -0.3945  0.0557  0.5146
   60DOPE   H7R 7660   0.395   6.185  13.956  0.4586 -0.8428 -0.8217
   60DOPE   H7S 7661   0.318   6.220  13.793 -0.1925 -2.3371  1.4976
   60DOPE   C28 7662   0.271   6.357  13.961 -0.5677  0.1041  0.2770
   60DOPE   H8R 7663   0.331   6.395  14.047  1.0188 -1.4791 -0.0632
   60DOPE   H8S 7664   0.184   6.305  14.005 -0.7001 -0.1771 -0.2985
   60DOPE   C29 7665   0.216   6.470  13.877 -0.1348  1.1038  0.4455
   60DOPE   H9R 7666   0.291   6.503  13.803 -0.7371 -0.3455 -0.8590
   60DOPE  C210 7667   0.101   6.540  13.902 -0.1379  0.7824  0.1327
   60DOPE  H10R 7668   0.068   6.609  13.823  0.6991  2.0156  0.8319
   60DOPE  C211 7669   0.002   6.531  14.017  0.4697  0.3999  0.3993
   60DOPE  H11R 7670   0.011   6.437  14.075 -3.0005  0.4282  1.1663
   60DOPE  H11S 7671  -0.104   6.530  13.986  0.7942  0.0855 -0.7976
   60DOPE  C212 7672   0.023   6.640  14.120 -0.6472 -0.6669  0.1267
   60DOPE  H12R 7673  -0.069   6.654  14.181  0.6903  1.8879  1.7456
   60DOPE  H12S 7674   0.055   6.733  14.068 -0.5725 -0.1947  0.9942
   60DOPE  C213 7675   0.135   6.589  14.217 -0.3840  0.2737 -0.1091
   60DOPE  H13R 7676   0.184   6.682  14.253 -1.2730 -0.4690  3.3744
   60DOPE  H13S 7677   0.207   6.517  14.174 -1.4256 -1.9697  1.6934
   60DOPE  C214 7678   0.071   6.509  14.334 -0.1144 -0.0894 -0.0299
   60DOPE  H14R 7679   0.021   6.416  14.299  1.5101 -1.4653  1.1364
   60DOPE  H14S 7680   0.007   6.585  14.385 -0.2553 -1.0616  1.2795
   60DOPE  C215 7681   0.182   6.456  14.430 -0.5642  0.8376  0.0172
   60DOPE  H15R 7682   0.126   6.434  14.524 -1.5134  1.0152 -0.5026
   60DOPE  H15S 7683   0.246   6.543  14.457  0.6494 -0.4193  1.3721
   60DOPE  C216 7684   0.238   6.326  14.389  0.8599  0.9970  0.2443
   60DOPE  H16R 7685   0.335   6.311  14.441  1.3539 -0.0052 -0.8931
   60DOPE  H16S 7686   0.279   6.344  14.287  3.3609  0.8072  1.1380
   60DOPE  C217 7687   0.162   6.193  14.403 -0.5617 -0.3863  0.0331
   60DOPE  H17R 7688   0.071   6.190  14.339  0.0868 -1.4426 -0.8652
   60DOPE  H17S 7689   0.136   6.180  14.511 -0.6730  0.3897  0.1018
   60DOPE  C218 7690   0.257   6.080  14.365  0.1808 -0.5664  0.1745
   60DOPE  H18R 7691   0.264   6.072  14.255  0.4407  0.0264  0.1497
   60DOPE  H18S 7692   0.233   5.975  14.395  1.1075 -1.5040 -2.1499
   60DOPE  H18T 7693   0.355   6.111  14.408 -0.3373  4.0094 -1.4131
   60DOPE   C33 7694   1.371   6.387  13.651  0.6129  0.2750 -0.1344
   60DOPE   H3X 7695   1.294   6.457  13.612 -0.4066 -1.5271 -1.5168
   60DOPE   H3Y 7696   1.453   6.409  13.579 -0.4036  0.9694 -1.0962
   60DOPE   C34 7697   1.427   6.422  13.791  0.0319  0.0926  0.0605
   60DOPE   H4X 7698   1.423   6.532  13.806  0.2171  0.2033 -0.6850
   60DOPE   H4Y 7699   1.341   6.381  13.850 -0.6593  0.2308 -0.8187
   60DOPE   C35 7700   1.553   6.360  13.841  0.1991 -0.5978 -0.0940
   60DOPE   H5X 7701   1.642   6.401  13.787 -1.1561 -0.7497 -2.6210
   60DOPE   H5Y 7702   1.544   6.251  13.820 -1.6140 -0.4099 -0.4883
   60DOPE   C36 7703   1.567   6.367  13.993  0.5856 -0.8172 -0.3753
   60DOPE   H6X 7704   1.656   6.309  14.024 -0.4726 -1.4474  1.7309
   60DOPE   H6Y 7705   1.485   6.315  14.047  2.0075 -2.0233  0.6956
   60DOPE   C37 7706   1.581   6.507  14.067 -0.1816 -0.0744  0.1210
   60DOPE   H7X 7707   1.586   6.591  13.994  0.2957  0.6716  0.9822
   60DOPE   H7Y 7708   1.488   6.516  14.128  0.1299 -1.0601  0.7697
   60DOPE   C38 7709   1.703   6.505  14.167  0.7463  0.0777  0.0210
   60DOPE   H8X 7710   1.795   6.514  14.105  2.0252 -0.7211  1.7118
   60DOPE   H8Y 7711   1.689   6.406  14.214 -1.7873 -0.1602 -1.0747
   60DOPE   C39 7712   1.703   6.619  14.267 -0.5683  0.6143  0.5523
   60DOPE   H9X 7713   1.726   6.717  14.222 -0.1883 -0.2167 -1.1308
   60DOPE  C310 7714   1.681   6.608  14.397  0.1797  0.3432 -0.0421
   60DOPE  H10X 7715   1.668   6.696  14.462  0.9041 -0.1814  0.8420
   60DOPE  C311 7716   1.630   6.489  14.476  1.4517 -0.3428  0.0365
   60DOPE  H11X 7717   1.526   6.473  14.441  1.3177  1.5067 -0.5556
   60DOPE  H11Y 7718   1.695   6.400  14.467 -0.0048 -1.4567  0.2530
   60DOPE  C312 7719   1.627   6.533  14.627  0.6634 -0.1706  0.2569
   60DOPE  H12X 7720   1.534   6.591  14.647 -2.0151 -4.0806  0.3032
   60DOPE  H12Y 7721   1.713   6.600  14.645  1.0216 -0.2394 -1.0445
   60DOPE  C313 7722   1.638   6.426  14.737 -0.6527 -0.2934  0.2301
   60DOPE  H13X 7723   1.739   6.381  14.729 -0.2291  0.7807 -0.7895
   60DOPE  H13Y 7724   1.636   6.470  14.839  1.0329 -0.7823  0.4892
   60DOPE  C314 7725   1.537   6.309  14.715 -0.3392 -0.6615  0.0432
   60DOPE  H14X 7726   1.576   6.240  14.637 -1.4070 -0.6232 -0.5405
   60DOPE  H14Y 7727   1.443   6.349  14.671 -0.1128 -2.6096 -2.4257
   60DOPE  C315 7728   1.504   6.244  14.851  0.3623 -0.8037  0.1256
   60DOPE  H15X 7729   1.596   6.241  14.913  1.6786  0.7567 -1.6269
   60DOPE  H15Y 7730   1.470   6.139  14.839  1.1283 -0.9102 -1.4232
   60DOPE  C316 7731   1.400   6.325  14.925 -0.5271 -0.1863 -0.4409
   60DOPE  H16X 7732   1.310   6.326  14.861 -0.5562 -3.1075 -0.5641
   60DOPE  H16Y 7733   1.437   6.430  14.924  1.4397 -0.8389 -1.3173
   60DOPE  C317 7734   1.356   6.275  15.064 -0.2378 -0.3380 -0.1443
   60DOPE  H17X 7735   1.268   6.335  15.095  0.7344  0.6907  0.7418
   60DOPE  H17Y 7736   1.318   6.171  15.054 -1.3489  0.2017 -2.0218
   60DOPE  C318 7737   1.476   6.277  15.158 -0.0777 -0.1083  0.0140
   60DOPE  H18X 7738   1.556   6.218  15.109 -0.0091 -0.8964  1.0462
   60DOPE  H18Y 7739   1.516   6.380  15.168  1.7686 -0.5764 -1.8679
   60DOPE  H18Z 7740   1.451   6.235  15.257 -1.6662  2.9098  1.0120
   6123SM     N 7741   5.582   4.612  17.156 -0.3161  0.3698  0.3535
   6123SM   C15 7742   5.516   4.487  17.104  0.0987 -0.4877  0.0205
   6123SM  H15A 7743   5.551   4.389  17.129 -1.3678 -1.4354 -1.4403
   6123SM  H15B 7744   5.506   4.489  16.997 -0.7294 -1.2741  0.0710
   6123SM  H15C 7745   5.415   4.480  17.143  0.6555 -0.9427  1.4395
   6123SM   C14 7746   5.611   4.602  17.302 -0.2155 -0.2583  0.1385
   6123SM  H14A 7747   5.670   4.514  17.324 -1.2625 -0.5548  1.9493
   6123SM  H14B 7748   5.522   4.605  17.361 -0.5053 -0.2302 -0.2952
   6123SM  H14C 7749   5.670   4.687  17.335 -0.4843 -0.0109 -0.0140
   6123SM   C13 7750   5.721   4.615  17.092  0.3815  0.0566 -0.1976
   6123SM  H13A 7751   5.722   4.587  16.987  1.4425 -0.1173 -0.1587
   6123SM  H13B 7752   5.779   4.540  17.143  0.3628 -0.2101 -0.5632
   6123SM  H13C 7753   5.776   4.707  17.103 -0.0183  0.8202 -3.4600
   6123SM   C12 7754   5.502   4.732  17.119  1.0690  0.7909 -0.3515
   6123SM  H12A 7755   5.475   4.730  17.014  0.1552  0.5766 -0.1251
   6123SM  H12B 7756   5.560   4.823  17.131  1.6342  0.2334  1.4971
   6123SM   C11 7757   5.370   4.749  17.202 -1.1752  0.0321  0.3012
   6123SM  H11A 7758   5.334   4.850  17.176  0.2164  0.6876  0.8351
   6123SM  H11B 7759   5.392   4.753  17.311 -1.1613 -0.0767  0.3028
   6123SM     P 7760   5.148   4.659  17.115 -0.0869 -0.0997 -0.1680
   6123SM   O13 7761   5.100   4.531  17.068  0.9021  0.0503  0.5853
   6123SM   O14 7762   5.059   4.741  17.198  0.2427 -0.0405 -0.0532
   6123SM   O11 7763   5.190   4.743  16.987  0.2183 -0.2358  0.1732
   6123SM   O12 7764   5.286   4.638  17.184  0.6711 -0.1660 -0.0236
   6123SM   C1S 7765   5.266   4.701  16.879 -0.2346  0.6204  0.4162
   6123SM   H1S 7766   5.342   4.627  16.914 -0.8626  0.0186  0.5440
   6123SM   H1T 7767   5.312   4.790  16.831  0.3543 -0.5683 -1.3350
   6123SM    NF 7768   5.268   4.601  16.658  0.0685  0.4176 -0.1574
   6123SM   HNF 7769   5.266   4.667  16.583  0.5723  1.9795  1.1488
   6123SM   C2S 7770   5.175   4.626  16.767 -0.8931  0.4387 -0.2599
   6123SM   H2S 7771   5.145   4.531  16.816 -1.5386  2.0242  2.6467
   6123SM   C3S 7772   5.045   4.698  16.730 -0.7272  0.1686  0.3976
   6123SM   H3S 7773   5.072   4.800  16.696 -0.3230  0.3574  1.2630
   6123SM    O3 7774   4.953   4.712  16.842  0.6639 -0.3407  0.4897
   6123SM   HO3 7775   5.013   4.704  16.917  3.3075 -0.2414 -1.4872
   6123SM   C4S 7776   4.975   4.630  16.611 -0.3599 -0.1239 -0.7253
   6123SM   H4S 7777   4.962   4.521  16.624 -0.7726  0.0710  0.7708
   6123SM   C5S 7778   4.933   4.687  16.492 -1.4108 -0.1294 -0.0678
   6123SM   H5S 7779   4.926   4.795  16.477 -0.0070 -0.1065 -0.6803
   6123SM   C6S 7780   4.879   4.609  16.375  0.1177 -0.2321 -0.0270
   6123SM   H6S 7781   4.902   4.672  16.287  1.4513  2.6106  2.1980
   6123SM   H6T 7782   4.768   4.605  16.367  0.0085  0.6595  0.7844
   6123SM   C7S 7783   4.954   4.473  16.362  0.7770 -0.5016 -0.0126
   6123SM   H7S 7784   4.911   4.416  16.446  2.0680  0.0715  1.0825
   6123SM   H7T 7785   5.063   4.485  16.384  0.6799  0.0398  0.1990
   6123SM   C8S 7786   4.954   4.414  16.217 -0.6431  0.3327 -0.3919
   6123SM   H8S 7787   5.024   4.473  16.155 -0.2622 -0.6225 -0.9023
   6123SM   H8T 7788   4.849   4.415  16.180 -0.2711  4.0577 -1.8085
   6123SM   C9S 7789   4.984   4.261  16.216 -0.2876 -0.0787 -0.4494
   6123SM   H9S 7790   4.898   4.211  16.265 -1.0403  0.2428 -1.3895
   6123SM   H9T 7791   5.076   4.245  16.275 -0.8278  0.8993  0.7195
   6123SM  C10S 7792   4.986   4.198  16.071  0.6169 -1.0291 -0.2325
   6123SM  H10S 7793   4.878   4.205  16.043  0.3680 -1.1166  0.6765
   6123SM  H10T 7794   5.016   4.091  16.075  1.1759 -0.8626  0.2054
   6123SM  C11S 7795   5.080   4.273  15.970 -1.1061  0.0679  0.4485
   6123SM  H11S 7796   5.167   4.293  16.036 -1.3189  0.7717  0.5296
   6123SM  H11T 7797   5.040   4.375  15.951 -0.4519  0.5176  1.4178
   6123SM  C12S 7798   5.113   4.196  15.845  0.0445 -0.1642  0.2178
   6123SM  H12S 7799   5.022   4.194  15.783 -0.4600 -1.7675  0.9516
   6123SM  H12T 7800   5.144   4.090  15.853 -0.4897 -0.4654 -1.4362
   6123SM  C13S 7801   5.213   4.271  15.764 -0.1647  0.0577  0.0079
   6123SM  H13S 7802   5.302   4.206  15.757 -0.5463 -0.5003  0.2464
   6123SM  H13T 7803   5.251   4.365  15.811  0.4369  0.0127 -0.3760
   6123SM  C14S 7804   5.163   4.315  15.621 -0.4733 -0.2062 -0.0415
   6123SM  H14S 7805   5.233   4.397  15.595 -0.8314 -0.3576 -1.6053
   6123SM  H14T 7806   5.062   4.357  15.635  0.1155  1.3954 -0.3819
   6123SM  C15S 7807   5.155   4.201  15.513  1.2779 -0.6128 -0.8168
   6123SM  H15S 7808   5.086   4.118  15.540  1.4369 -0.9283 -1.3669
   6123SM  H15T 7809   5.255   4.155  15.502  0.8293 -1.5030 -1.2771
   6123SM  C16S 7810   5.104   4.262  15.379  0.3668 -0.8439  0.6464
   6123SM  H16S 7811   5.182   4.318  15.322 -1.3821 -0.4949 -1.5516
   6123SM  H16T 7812   5.026   4.336  15.404  2.2926  0.8998  1.8885
   6123SM  C17S 7813   5.053   4.153  15.284  0.1274 -0.1805 -0.2989
   6123SM  H17S 7814   4.982   4.097  15.349 -0.9527  0.0970 -1.2047
   6123SM  H17T 7815   5.133   4.081  15.255 -0.0772 -1.4563  2.0710
   6123SM  C18S 7816   4.978   4.198  15.158  0.4078 -0.0718 -0.5481
   6123SM  H18S 7817   5.034   4.272  15.097  2.0625 -0.2643  0.6726
   6123SM  H18T 7818   4.875   4.235  15.176  0.2267 -0.1246 -1.4403
   6123SM  H18U 7819   4.959   4.111  15.092 -3.5795  0.5981 -0.5703
   6123SM   C1F 7820   5.351   4.500  16.647 -0.5751  0.1076 -0.5236
   6123SM    OF 7821   5.350   4.412  16.737 -0.2261  0.7661  0.2791
   6123SM   C2F 7822   5.449   4.504  16.538 -0.0277  0.3431  0.3192
   6123SM   H2F 7823   5.543   4.539  16.585 -0.2846  0.2319  0.9207
   6123SM   H2G 7824   5.416   4.580  16.463 -1.5758  0.7199  1.3435
   6123SM   C3F 7825   5.465   4.364  16.478 -0.2907  0.5125  0.4471
   6123SM   H3F 7826   5.365   4.322  16.456  0.2657  0.9300 -3.6289
   6123SM   H3G 7827   5.514   4.300  16.555 -1.4916 -1.1680 -0.1325
   6123SM   C4F 7828   5.548   4.363  16.346 -0.1241  0.1790  0.4986
   6123SM   H4F 7829   5.516   4.274  16.288  0.7891  1.1473 -1.5917
   6123SM   H4G 7830   5.652   4.344  16.378 -0.6244  1.1705  2.9211
   6123SM   C5F 7831   5.549   4.486  16.259 -0.3573  0.0831  0.5893
   6123SM   H5F 7832   5.588   4.575  16.312 -1.1514  0.2789  0.8559
   6123SM   H5G 7833   5.447   4.521  16.232 -0.6665  0.9713  2.7365
   6123SM   C6F 7834   5.643   4.480  16.140  0.4328 -0.5432 -0.1917
   6123SM   H6F 7835   5.620   4.390  16.078 -1.4609  0.6931 -1.3675
   6123SM   H6G 7836   5.740   4.451  16.186 -0.9204 -2.2059  1.7890
   6123SM   C7F 7837   5.654   4.612  16.054  0.2509 -0.5533 -0.0530
   6123SM   H7F 7838   5.715   4.691  16.102 -2.1539  1.6540 -0.3904
   6123SM   H7G 7839   5.561   4.668  16.030  0.7961  1.4412  2.1525
   6123SM   C8F 7840   5.731   4.589  15.927 -0.0983  0.2864 -0.2847
   6123SM   H8F 7841   5.668   4.522  15.864 -1.2082  0.9278  0.1150
   6123SM   H8G 7842   5.821   4.530  15.954  0.5076  0.1328 -2.4890
   6123SM   C9F 7843   5.788   4.714  15.855 -0.4602 -1.2376 -0.5236
   6123SM   H9F 7844   5.839   4.785  15.923 -2.2188 -0.5782  0.1717
   6123SM   H9G 7845   5.701   4.768  15.812  0.8143  1.0728 -0.3761
   6123SM  C10F 7846   5.897   4.681  15.750 -0.3914  0.4074 -0.3989
   6123SM  H10F 7847   5.856   4.605  15.679 -2.4836  0.4975  0.6297
   6123SM  H10G 7848   5.979   4.639  15.811 -0.8690 -0.6681 -0.4605
   6123SM  C11F 7849   5.965   4.794  15.670  0.2587  0.9123  0.0667
   6123SM  H11F 7850   6.023   4.734  15.597 -2.6495 -2.0243 -0.0776
   6123SM  H11G 7851   6.039   4.858  15.722  0.0012  0.0550  1.5257
   6123SM  C12F 7852   5.854   4.865  15.593  0.5281 -0.7219 -0.0266
   6123SM  H12F 7853   5.809   4.937  15.664  0.5212 -2.6009  2.0028
   6123SM  H12G 7854   5.774   4.795  15.560 -0.4002  0.5678 -0.5521
   6123SM  C13F 7855   5.909   4.937  15.466  0.0934  1.0001  0.5049
   6123SM  H13F 7856   5.967   4.862  15.408 -1.4052  0.5924 -0.5293
   6123SM  H13G 7857   5.966   5.023  15.508  0.8191  0.2388  1.1085
   6123SM  C14F 7858   5.808   4.994  15.364  0.4429 -0.1124 -0.6354
   6123SM  H14F 7859   5.748   5.075  15.410 -1.5091 -2.6603  1.6505
   6123SM  H14G 7860   5.734   4.918  15.331 -1.5820  0.4714  2.1879
   6123SM  C15F 7861   5.873   5.056  15.239  0.5992 -0.6519 -0.1836
   6123SM  H15F 7862   5.964   4.997  15.211  0.7055 -0.8830  0.6246
   6123SM  H15G 7863   5.901   5.158  15.273  1.6175 -1.1006  0.3761
   6123SM  C16F 7864   5.771   5.074  15.126  0.1246 -0.1939  0.2156
   6123SM  H16F 7865   5.668   5.107  15.153  1.1261  2.0420  1.5442
   6123SM  H16G 7866   5.772   4.985  15.060  0.7040 -0.7756  0.9972
   6123SM  C17F 7867   5.840   5.178  15.033 -0.3866  0.8808  0.2885
   6123SM  H17F 7868   5.942   5.140  15.013 -1.1558 -0.5728 -1.1384
   6123SM  H17G 7869   5.849   5.277  15.083  0.5393  1.5092 -1.0494
   6123SM  C18F 7870   5.763   5.201  14.903 -0.1090  0.3653  0.0200
   6123SM  H18F 7871   5.817   5.262  14.827  1.1760 -0.7320  0.0238
   6123SM  H18G 7872   5.668   5.251  14.931 -0.5162 -0.1976 -0.3207
   6123SM  C19F 7873   5.724   5.071  14.827  0.3567 -0.0780 -0.2597
   6123SM  H19F 7874   5.647   5.025  14.892  1.0879  0.9361  1.4109
   6123SM  H19G 7875   5.806   4.997  14.828  0.8136  0.4103  1.2124
   6123SM  C20F 7876   5.658   5.113  14.692  0.1435  0.1193 -0.3592
   6123SM  H20F 7877   5.601   5.208  14.691 -1.2563 -0.6375  1.1508
   6123SM  H20G 7878   5.587   5.036  14.653 -1.8950  1.2408  0.9876
   6123SM  C21F 7879   5.766   5.113  14.584  0.9544  0.1815 -0.8684
   6123SM  H21F 7880   5.809   5.011  14.579  0.4031 -0.1455  0.5092
   6123SM  H21G 7881   5.851   5.174  14.621  0.6382  0.7175 -1.0100
   6123SM  C22F 7882   5.730   5.156  14.443 -0.3099  0.2311  0.5319
   6123SM  H22F 7883   5.657   5.080  14.406  0.8977 -1.3441  1.2485
   6123SM  H22G 7884   5.823   5.158  14.383  0.4108 -0.5507  1.5630
   6123SM  C23F 7885   5.662   5.294  14.428  0.8782  0.1511 -0.4260
   6123SM  H23F 7886   5.653   5.332  14.324  0.2585 -2.2179 -1.3153
   6123SM  H23G 7887   5.718   5.363  14.495  0.7665 -0.9020  0.7905
   6123SM  H23H 7888   5.563   5.283  14.476  1.2850 -2.1521  0.0070
   6223SM     N 7889   4.011   4.388  17.430 -0.3935 -0.1857 -1.1563
   6223SM   C15 7890   4.157   4.423  17.443  0.4210 -0.7672  0.2146
   6223SM  H15A 7891   4.165   4.525  17.477  0.6453 -0.5245 -0.5390
   6223SM  H15B 7892   4.211   4.417  17.349 -2.0280  0.3782 -1.3523
   6223SM  H15C 7893   4.205   4.357  17.514 -2.5518 -1.4925  1.7142
   6223SM   C14 7894   3.958   4.377  17.569 -0.9322 -0.3210  0.4190
   6223SM  H14A 7895   3.956   4.474  17.615  1.9768 -0.4869  1.0425
   6223SM  H14B 7896   4.018   4.313  17.631 -0.0105  0.8106  0.7186
   6223SM  H14C 7897   3.855   4.344  17.574 -0.1393 -3.0787  0.4084
   6223SM   C13 7898   3.934   4.486  17.359  0.1107  0.7270  0.4589
   6223SM  H13A 7899   3.831   4.452  17.359  0.1090  0.7171  1.2625
   6223SM  H13B 7900   3.973   4.494  17.258 -0.7056 -2.1780 -0.1909
   6223SM  H13C 7901   3.956   4.582  17.402 -0.2533  1.3514 -0.7035
   6223SM   C12 7902   3.999   4.254  17.368  0.0199  0.3662 -0.3859
   6223SM  H12A 7903   3.897   4.217  17.366  0.6511 -1.5631  0.3475
   6223SM  H12B 7904   4.045   4.185  17.437 -0.0531  0.4989 -0.2038
   6223SM   C11 7905   4.060   4.232  17.226  0.4377  0.1983 -0.0230
   6223SM  H11A 7906   4.061   4.121  17.214 -2.5533 -0.0182  0.7835
   6223SM  H11B 7907   4.167   4.261  17.233  0.5164 -0.5396  3.3273
   6223SM     P 7908   3.858   4.247  17.065  0.1970 -0.0248  0.0438
   6223SM   O13 7909   3.820   4.113  17.122 -0.3277 -0.2211  0.3269
   6223SM   O14 7910   3.753   4.350  17.063  0.4290  0.4742 -0.7297
   6223SM   O11 7911   3.898   4.217  16.920 -0.4227  0.4260  0.1106
   6223SM   O12 7912   3.989   4.308  17.127  0.3233  0.2741 -0.2126
   6223SM   C1S 7913   4.018   4.143  16.887 -0.3492 -0.2175 -0.1254
   6223SM   H1S 7914   4.032   4.051  16.947 -0.3163 -0.4199 -0.4395
   6223SM   H1T 7915   4.108   4.196  16.924 -0.5146  0.2307 -0.3617
   6223SM    NF 7916   4.174   4.030  16.714 -0.4716  0.2486 -0.5940
   6223SM   HNF 7917   4.256   4.079  16.686 -0.9546  0.7166 -1.2186
   6223SM   C2S 7918   4.044   4.101  16.738  0.6017 -0.1874  0.0661
   6223SM   H2S 7919   3.960   4.036  16.705  0.0791  0.0705  0.8501
   6223SM   C3S 7920   4.019   4.228  16.652 -0.4477  0.0702  0.2968
   6223SM   H3S 7921   4.099   4.297  16.686 -0.1057 -0.2840  0.2135
   6223SM    O3 7922   3.898   4.310  16.683  0.1312 -0.4528 -0.2015
   6223SM   HO3 7923   3.874   4.291  16.774  0.2444 -1.2358 -0.3298
   6223SM   C4S 7924   4.024   4.182  16.508 -0.3378  0.3509 -1.1905
   6223SM   H4S 7925   4.126   4.151  16.480 -0.6033 -0.2299 -1.5394
   6223SM   C5S 7926   3.918   4.154  16.430 -0.1849  1.3694 -0.6704
   6223SM   H5S 7927   3.818   4.155  16.476  0.1050 -1.4440  0.2144
   6223SM   C6S 7928   3.920   4.101  16.287  0.2258 -0.0264  0.1597
   6223SM   H6S 7929   3.865   4.174  16.223 -0.6796 -0.1933  0.7232
   6223SM   H6T 7930   3.870   4.002  16.286  1.2893 -0.5725  0.4997
   6223SM   C7S 7931   4.065   4.068  16.237 -0.5232  0.1232  0.8289
   6223SM   H7S 7932   4.116   3.995  16.304  2.3534  0.7663 -0.5327
   6223SM   H7T 7933   4.129   4.158  16.241  0.8284 -0.6982 -0.9374
   6223SM   C8S 7934   4.068   4.025  16.084 -0.0049 -0.3911  0.1274
   6223SM   H8S 7935   4.001   3.938  16.073 -0.3284 -0.2976  1.2574
   6223SM   H8T 7936   4.169   3.991  16.051 -0.5540 -0.7077 -1.3373
   6223SM   C9S 7937   4.016   4.140  15.985  0.7412 -0.0250 -0.2349
   6223SM   H9S 7938   4.088   4.223  15.998  0.7393 -0.2148  1.0715
   6223SM   H9T 7939   3.910   4.171  16.000  0.5207 -1.0802  0.4628
   6223SM  C10S 7940   4.018   4.096  15.836 -0.3155  1.0058  1.0824
   6223SM  H10S 7941   3.967   3.998  15.825  1.4105  0.3042 -2.0403
   6223SM  H10T 7942   4.120   4.067  15.802  0.2159  0.7710  2.7550
   6223SM  C11S 7943   3.953   4.191  15.734  0.5339 -0.3613 -0.6132
   6223SM  H11S 7944   3.991   4.295  15.735  0.0323 -0.1732  0.2273
   6223SM  H11T 7945   3.844   4.200  15.757  0.4507 -2.6352  0.1564
   6223SM  C12S 7946   3.958   4.116  15.595  0.0428  0.1907 -0.0686
   6223SM  H12S 7947   3.924   4.011  15.602  1.4801 -0.2642  0.5749
   6223SM  H12T 7948   4.066   4.123  15.569  0.5677 -0.7915  1.6582
   6223SM  C13S 7949   3.887   4.193  15.482  0.1806  0.8761 -0.1243
   6223SM  H13S 7950   3.898   4.299  15.515  0.1680  0.6289  0.7003
   6223SM  H13T 7951   3.778   4.172  15.491  0.5904 -0.7793  1.7548
   6223SM  C14S 7952   3.928   4.162  15.349  0.2135  0.0916  0.2716
   6223SM  H14S 7953   3.896   4.060  15.320  0.5834 -0.4342  1.6739
   6223SM  H14T 7954   4.038   4.157  15.336  0.0344 -0.3011 -1.4057
   6223SM  C15S 7955   3.873   4.255  15.238 -0.9638  0.0512  0.2572
   6223SM  H15S 7956   3.950   4.243  15.159 -1.4039  2.7003 -0.6949
   6223SM  H15T 7957   3.885   4.363  15.262  1.2979 -0.2204  0.5665
   6223SM  C16S 7958   3.730   4.232  15.211  0.1828 -0.4088 -0.1800
   6223SM  H16S 7959   3.665   4.249  15.299 -0.9506  0.5686 -1.1630
   6223SM  H16T 7960   3.708   4.124  15.196 -2.8271 -0.5198  3.4417
   6223SM  C17S 7961   3.666   4.320  15.096  0.4101  0.1905 -0.0612
   6223SM  H17S 7962   3.735   4.298  15.011 -0.4797  0.4476 -0.8683
   6223SM  H17T 7963   3.680   4.428  15.117  0.6729  0.0874  0.3010
   6223SM  C18S 7964   3.528   4.298  15.051  0.3509 -0.4278 -0.0862
   6223SM  H18S 7965   3.518   4.201  14.998  1.4769  0.4645 -2.0174
   6223SM  H18T 7966   3.479   4.376  14.990  0.7287  0.7250  1.0424
   6223SM  H18U 7967   3.465   4.285  15.143 -0.2457  2.7482  0.0668
   6223SM   C1F 7968   4.198   3.906  16.767 -0.3686 -1.2853 -0.7731
   6223SM    OF 7969   4.112   3.836  16.809  0.8143 -0.2004 -0.9055
   6223SM   C2F 7970   4.340   3.874  16.764 -0.2098  0.4234 -0.3707
   6223SM   H2F 7971   4.385   3.913  16.857  0.8524  1.2494 -1.2068
   6223SM   H2G 7972   4.392   3.921  16.678  0.3038  1.0643  0.2837
   6223SM   C3F 7973   4.360   3.714  16.745 -0.4244  0.5244  0.2986
   6223SM   H3F 7974   4.303   3.661  16.824  1.7764  0.3536  1.8623
   6223SM   H3G 7975   4.469   3.700  16.760 -0.7250  0.3111  2.6664
   6223SM   C4F 7976   4.339   3.663  16.603  0.3071 -0.1454 -0.4159
   6223SM   H4F 7977   4.243   3.687  16.552  0.7269 -1.6129 -1.9929
   6223SM   H4G 7978   4.343   3.552  16.605 -0.9720 -0.1905  0.9285
   6223SM   C5F 7979   4.449   3.722  16.511  0.2772 -0.3952 -0.1188
   6223SM   H5F 7980   4.542   3.745  16.568 -0.1717  0.2286  0.3813
   6223SM   H5G 7981   4.405   3.822  16.490 -0.7925 -1.2983 -2.5497
   6223SM   C6F 7982   4.480   3.653  16.377  0.0142  0.5425 -0.5700
   6223SM   H6F 7983   4.540   3.562  16.396 -1.2935 -0.0268  1.0498
   6223SM   H6G 7984   4.558   3.708  16.321 -0.0467  0.5502 -0.6482
   6223SM   C7F 7985   4.365   3.626  16.280 -0.4468  0.2515 -0.1309
   6223SM   H7F 7986   4.412   3.614  16.180 -0.2038 -0.2183  0.0367
   6223SM   H7G 7987   4.298   3.714  16.289 -0.6667  0.2912 -1.8655
   6223SM   C8F 7988   4.296   3.488  16.300  0.1431 -0.4229  0.0482
   6223SM   H8F 7989   4.224   3.502  16.383  2.1127  0.2563  1.7438
   6223SM   H8G 7990   4.369   3.410  16.329 -0.3037 -1.1722 -0.8176
   6223SM   C9F 7991   4.215   3.444  16.172  0.5095  1.0502 -0.3250
   6223SM   H9F 7992   4.285   3.439  16.086  0.5082 -1.3044 -0.2475
   6223SM   H9G 7993   4.157   3.535  16.147  0.4814  1.1071 -0.0519
   6223SM  C10F 7994   4.123   3.329  16.195 -0.1456  0.3138  0.0149
   6223SM  H10F 7995   4.032   3.353  16.135 -0.1848  0.6090  0.1933
   6223SM  H10G 7996   4.094   3.321  16.302 -1.9961 -0.5963 -0.5102
   6223SM  C11F 7997   4.182   3.198  16.151  0.0232 -0.6179 -0.1869
   6223SM  H11F 7998   4.260   3.176  16.227 -0.5472  0.0662  0.6288
   6223SM  H11G 7999   4.236   3.206  16.055 -1.8180  0.7915 -1.1831
   6223SM  C12F 8000   4.067   3.092  16.142 -0.2551 -0.1444  0.2227
   6223SM  H12F 8001   3.990   3.100  16.221 -0.1510 -0.6556  0.3840
   6223SM  H12G 8002   4.118   2.998  16.176 -1.2291  0.0639  2.4449
   6223SM  C13F 8003   4.002   3.089  16.000 -1.0044  0.4624 -0.2850
   6223SM  H13F 8004   4.082   3.046  15.936  0.6229  1.8820  0.6927
   6223SM  H13G 8005   3.969   3.193  15.978  0.1795  1.3609  1.8127
   6223SM  C14F 8006   3.885   2.996  16.000  0.8521 -0.1741 -0.5622
   6223SM  H14F 8007   3.799   3.021  16.066  1.5310 -0.4372  0.4470
   6223SM  H14G 8008   3.923   2.903  16.048 -1.0172 -0.4006  0.5491
   6223SM  C15F 8009   3.836   2.964  15.858 -0.4131  0.0050  0.6974
   6223SM  H15F 8010   3.923   2.939  15.793  0.6131  0.5605  1.7979
   6223SM  H15G 8011   3.783   3.046  15.805 -3.0672 -2.7252 -1.1990
   6223SM  C16F 8012   3.721   2.855  15.859  0.7204 -0.1993 -0.2396
   6223SM  H16F 8013   3.630   2.895  15.908 -0.1784 -1.2431 -1.0209
   6223SM  H16G 8014   3.752   2.764  15.915  2.4649 -0.2407 -1.1672
   6223SM  C17F 8015   3.674   2.804  15.718  0.0760 -0.1453 -0.4235
   6223SM  H17F 8016   3.748   2.758  15.650 -1.6076 -0.0474 -2.4512
   6223SM  H17G 8017   3.637   2.895  15.666 -2.2111 -0.4412  0.5310
   6223SM  C18F 8018   3.555   2.707  15.711 -0.2706  0.3849 -0.3254
   6223SM  H18F 8019   3.495   2.736  15.799  3.4951  1.8425  1.9972
   6223SM  H18G 8020   3.596   2.608  15.739 -2.2904  0.2786  2.7065
   6223SM  C19F 8021   3.483   2.691  15.577  0.0902 -0.3237  0.1355
   6223SM  H19F 8022   3.458   2.796  15.550  3.5173 -0.3030 -4.2084
   6223SM  H19G 8023   3.399   2.620  15.592 -1.0141  1.0030  0.4767
   6223SM  C20F 8024   3.568   2.642  15.454  0.3011 -0.5778  0.5371
   6223SM  H20F 8025   3.657   2.709  15.450  0.4750 -0.8665 -0.5917
   6223SM  H20G 8026   3.500   2.657  15.368 -1.1887 -1.1528  1.5734
   6223SM  C21F 8027   3.615   2.495  15.455 -0.4678 -0.4074  0.0078
   6223SM  H21F 8028   3.534   2.420  15.465  0.6748 -1.8601 -1.1300
   6223SM  H21G 8029   3.691   2.486  15.535  2.1410 -0.5599 -2.3494
   6223SM  C22F 8030   3.694   2.457  15.325  0.1627 -0.5740 -0.2411
   6223SM  H22F 8031   3.629   2.449  15.236 -0.7309  1.1185  0.2186
   6223SM  H22G 8032   3.733   2.353  15.333 -0.9054 -1.0345 -0.7891
   6223SM  C23F 8033   3.795   2.562  15.287 -0.5643  0.3879 -0.0023
   6223SM  H23F 8034   3.877   2.514  15.230  1.0335  1.4527  1.2830
   6223SM  H23G 8035   3.846   2.606  15.375  2.9749 -0.0078 -1.6809
   6223SM  H23H 8036   3.752   2.645  15.226 -4.1203 -0.1090  1.6073
   6323SM     N 8037   5.690   5.757  17.213 -0.2361 -0.3022  0.9412
   6323SM   C15 8038   5.615   5.772  17.348  0.2205  0.4541  0.1790
   6323SM  H15A 8039   5.663   5.717  17.427 -1.0428  1.0270  1.3804
   6323SM  H15B 8040   5.526   5.711  17.346  0.2351  0.4451 -0.5772
   6323SM  H15C 8041   5.588   5.872  17.376 -1.7348 -0.0561  0.2843
   6323SM   C14 8042   5.698   5.614  17.167  0.3107  0.0273 -0.2618
   6323SM  H14A 8043   5.597   5.582  17.146  0.8665 -1.7505 -0.3721
   6323SM  H14B 8044   5.731   5.552  17.249 -0.7332  0.4654  0.5119
   6323SM  H14C 8045   5.760   5.597  17.081  0.1049 -1.6127 -0.1085
   6323SM   C13 8046   5.622   5.838  17.109 -0.1281 -0.0403  0.0260
   6323SM  H13A 8047   5.516   5.816  17.105 -0.3818  0.9781  0.7001
   6323SM  H13B 8048   5.667   5.811  17.015  1.3041 -1.5743  1.1033
   6323SM  H13C 8049   5.631   5.945  17.122  2.2687 -0.1928  0.0076
   6323SM   C12 8050   5.830   5.824  17.236  0.2916 -0.5759 -0.1148
   6323SM  H12A 8051   5.869   5.786  17.329 -1.7319  1.7453  1.8193
   6323SM  H12B 8052   5.808   5.930  17.244  0.7146 -0.4711 -0.3237
   6323SM   C11 8053   5.943   5.820  17.133 -0.4519  0.7385 -0.3230
   6323SM  H11A 8054   5.980   5.720  17.101 -0.9960  0.6336 -0.6396
   6323SM  H11B 8055   6.024   5.866  17.192 -1.2175 -0.0958  1.4392
   6323SM     P 8056   5.910   5.861  16.875 -0.2305  0.5552 -0.2329
   6323SM   O13 8057   5.843   5.964  16.797  0.1497 -0.4584  0.6875
   6323SM   O14 8058   6.050   5.825  16.842  0.4809 -0.2067  0.0694
   6323SM   O11 8059   5.817   5.735  16.885 -0.2348  0.0266  0.5175
   6323SM   O12 8060   5.912   5.907  17.023  0.6261  0.5334 -0.3362
   6323SM   C1S 8061   5.776   5.673  16.763 -0.6982  0.2227 -0.7435
   6323SM   H1S 8062   5.746   5.746  16.684 -0.9145 -1.1278 -1.9646
   6323SM   H1T 8063   5.679   5.622  16.783  0.5834 -1.7979  0.6018
   6323SM    NF 8064   5.827   5.526  16.571 -0.4651 -0.2348  0.7585
   6323SM   HNF 8065   5.743   5.475  16.558 -0.7870 -0.0086  1.8634
   6323SM   C2S 8066   5.861   5.556  16.706  0.8627 -0.0897  0.1822
   6323SM   H2S 8067   5.966   5.590  16.714  0.7177  0.0004  2.0586
   6323SM   C3S 8068   5.862   5.434  16.802 -0.0063  0.1939  0.5017
   6323SM   H3S 8069   5.760   5.393  16.817  0.2265 -0.8554 -0.5729
   6323SM    O3 8070   5.906   5.473  16.931  0.1529  0.6447  0.1532
   6323SM   HO3 8071   5.926   5.565  16.912 -0.7140  1.0422  1.0498
   6323SM   C4S 8072   5.939   5.314  16.742 -0.6847 -0.2392 -0.2996
   6323SM   H4S 8073   6.022   5.354  16.681 -1.4481  0.7063 -0.7553
   6323SM   C5S 8074   5.913   5.186  16.740  0.0283 -0.3275  0.0863
   6323SM   H5S 8075   5.820   5.155  16.790 -0.4292 -2.4063 -1.8832
   6323SM   C6S 8076   5.995   5.086  16.663 -0.0922  0.0571 -0.1164
   6323SM   H6S 8077   5.942   5.036  16.580  0.7226  0.2901 -0.7959
   6323SM   H6T 8078   6.027   5.007  16.735 -1.8258  0.4043  1.1017
   6323SM   C7S 8079   6.115   5.134  16.576  1.0999 -0.2572  0.0533
   6323SM   H7S 8080   6.166   5.041  16.543 -1.1192 -1.6184  0.2199
   6323SM   H7T 8081   6.186   5.195  16.636  1.1886 -0.1817 -0.1278
   6323SM   C8S 8082   6.082   5.215  16.451  0.2010 -1.0714 -0.4771
   6323SM   H8S 8083   6.051   5.320  16.467  2.9684 -0.1804 -0.4475
   6323SM   H8T 8084   5.998   5.166  16.397  1.4507  0.1344 -3.8098
   6323SM   C9S 8085   6.194   5.223  16.344  0.3440 -0.3594 -0.0083
   6323SM   H9S 8086   6.205   5.128  16.288 -1.8055  0.6306 -2.3003
   6323SM   H9T 8087   6.287   5.255  16.396  1.2804 -0.4455 -1.5708
   6323SM  C10S 8088   6.158   5.334  16.242 -0.4403 -0.1915  0.5294
   6323SM  H10S 8089   6.151   5.434  16.291 -1.1078  0.2519 -0.4508
   6323SM  H10T 8090   6.062   5.302  16.197 -1.4427 -2.1127  3.7021
   6323SM  C11S 8091   6.269   5.339  16.137  0.1192 -0.0175 -0.6619
   6323SM  H11S 8092   6.286   5.233  16.106 -1.6657 -0.4576 -0.2371
   6323SM  H11T 8093   6.354   5.376  16.198  0.8304  1.0812 -2.2509
   6323SM  C12S 8094   6.248   5.428  16.014 -0.1188 -0.1006 -0.2488
   6323SM  H12S 8095   6.350   5.445  15.974  0.0096 -1.4301 -0.5065
   6323SM  H12T 8096   6.202   5.525  16.044 -3.4352 -0.4736 -3.4792
   6323SM  C13S 8097   6.165   5.348  15.908  0.6073 -0.3419 -0.0841
   6323SM  H13S 8098   6.075   5.296  15.948  0.6001  0.1403  0.5314
   6323SM  H13T 8099   6.227   5.256  15.912  1.3189  0.1407  3.8274
   6323SM  C14S 8100   6.151   5.417  15.766  0.0039  0.0487 -0.7894
   6323SM  H14S 8101   6.257   5.446  15.753  0.3104  1.0444  2.7503
   6323SM  H14T 8102   6.075   5.498  15.777 -0.2289 -0.4950  2.5993
   6323SM  C15S 8103   6.117   5.319  15.653 -0.0509 -0.0230  0.4136
   6323SM  H15S 8104   6.023   5.262  15.673 -0.7406  0.3902 -1.4702
   6323SM  H15T 8105   6.193   5.238  15.655  1.5688  1.3929 -1.0116
   6323SM  C16S 8106   6.106   5.372  15.511 -1.0011 -0.1074  0.2451
   6323SM  H16S 8107   6.023   5.446  15.505 -0.1641  0.7147 -1.6901
   6323SM  H16T 8108   6.089   5.284  15.447  2.2684  1.0419 -2.5012
   6323SM  C17S 8109   6.227   5.447  15.455  0.4457 -0.3802 -0.3607
   6323SM  H17S 8110   6.313   5.394  15.502 -0.6494 -0.1342  2.0496
   6323SM  H17T 8111   6.215   5.546  15.504 -2.9840 -0.9926  0.2536
   6323SM  C18S 8112   6.220   5.452  15.305  0.0852 -0.2427 -0.2314
   6323SM  H18S 8113   6.123   5.499  15.278 -1.2678 -1.2041  2.5374
   6323SM  H18T 8114   6.225   5.354  15.252 -2.7113  0.9539 -3.0143
   6323SM  H18U 8115   6.307   5.505  15.263  1.8029 -1.6669  1.3260
   6323SM   C1F 8116   5.864   5.594  16.465  0.2433 -0.6893 -0.1794
   6323SM    OF 8117   5.953   5.680  16.470 -0.0996 -0.2121 -0.1327
   6323SM   C2F 8118   5.790   5.560  16.336  0.1478  0.4098  0.1036
   6323SM   H2F 8119   5.681   5.559  16.358  0.1140 -0.7188 -0.0580
   6323SM   H2G 8120   5.819   5.459  16.303  0.1343 -0.0367  1.3910
   6323SM   C3F 8121   5.827   5.659  16.225  0.4160 -0.0303 -0.0737
   6323SM   H3F 8122   5.938   5.661  16.217  0.3054  0.6205 -2.1574
   6323SM   H3G 8123   5.802   5.763  16.253  0.1659 -0.0185 -0.3315
   6323SM   C4F 8124   5.766   5.617  16.085 -0.2139 -0.0949 -0.1238
   6323SM   H4F 8125   5.655   5.617  16.091 -0.1326 -0.2127  2.5332
   6323SM   H4G 8126   5.799   5.520  16.042 -0.1248  0.3403 -1.0571
   6323SM   C5F 8127   5.805   5.718  15.980 -0.0454 -0.4807  0.4429
   6323SM   H5F 8128   5.913   5.744  15.978 -0.6408  2.3196  0.5120
   6323SM   H5G 8129   5.741   5.802  16.013 -0.6322 -1.6751  2.5217
   6323SM   C6F 8130   5.775   5.665  15.840 -0.3910 -0.1514  0.4413
   6323SM   H6F 8131   5.673   5.621  15.847 -0.3862 -0.3530 -0.6397
   6323SM   H6G 8132   5.839   5.577  15.819 -0.4842 -0.2152  0.4186
   6323SM   C7F 8133   5.770   5.772  15.730  0.3915 -0.3874 -0.2016
   6323SM   H7F 8134   5.727   5.870  15.760  0.6559 -0.5879  0.8772
   6323SM   H7G 8135   5.729   5.751  15.628 -0.0722 -0.3437 -0.0252
   6323SM   C8F 8136   5.911   5.801  15.687 -0.0636 -0.3547 -0.1207
   6323SM   H8F 8137   5.953   5.706  15.646  1.4178 -0.3960  1.3680
   6323SM   H8G 8138   5.976   5.832  15.771  0.5510  2.3856 -1.4917
   6323SM   C9F 8139   5.909   5.912  15.583  0.7951 -0.0186  0.3842
   6323SM   H9F 8140   5.889   6.012  15.629 -0.3107 -0.2494  0.4529
   6323SM   H9G 8141   5.832   5.886  15.507 -0.7875  1.3257  1.4459
   6323SM  C10F 8142   6.031   5.921  15.505 -0.4879  0.2715 -0.0117
   6323SM  H10F 8143   6.047   5.825  15.450  1.6088 -0.4520  1.7108
   6323SM  H10G 8144   6.125   5.934  15.563 -0.6699  0.6591  0.1954
   6323SM  C11F 8145   6.033   6.028  15.389 -0.9450  0.0135 -0.0704
   6323SM  H11F 8146   6.036   6.127  15.439 -1.3993 -1.2644  2.6622
   6323SM  H11G 8147   5.939   6.029  15.329  0.3271 -0.7239 -2.1977
   6323SM  C12F 8148   6.149   6.014  15.286 -0.1014  0.0178  0.3161
   6323SM  H12F 8149   6.144   5.911  15.247  0.9375 -0.5772  1.6804
   6323SM  H12G 8150   6.238   6.039  15.348  0.1120  1.0957 -0.3814
   6323SM  C13F 8151   6.138   6.121  15.180  0.0906  0.5182  0.4761
   6323SM  H13F 8152   6.154   6.220  15.229  1.6128  0.7786 -0.4635
   6323SM  H13G 8153   6.038   6.124  15.132  1.1078  0.1711 -1.7750
   6323SM  C14F 8154   6.251   6.116  15.072  0.4056 -0.0107 -0.2574
   6323SM  H14F 8155   6.343   6.083  15.125  0.2096 -0.5310 -0.2380
   6323SM  H14G 8156   6.271   6.215  15.026 -2.2329  1.9899  2.5224
   6323SM  C15F 8157   6.213   6.016  14.961  0.3905 -0.4395 -0.5914
   6323SM  H15F 8158   6.109   6.034  14.927  0.1335 -0.2895  0.2467
   6323SM  H15G 8159   6.210   5.914  15.005 -0.6481 -0.2023 -0.0962
   6323SM  C16F 8160   6.299   6.020  14.833 -0.2650 -0.3670 -0.2934
   6323SM  H16F 8161   6.262   5.942  14.763  0.6107  0.2456 -1.4805
   6323SM  H16G 8162   6.408   6.003  14.851 -0.2063  0.6407  0.3798
   6323SM  C17F 8163   6.282   6.157  14.770 -0.4853 -0.1457  0.3017
   6323SM  H17F 8164   6.333   6.242  14.820  0.2672 -0.3318 -0.1329
   6323SM  H17G 8165   6.175   6.180  14.785 -0.0076  1.4436  1.6189
   6323SM  C18F 8166   6.347   6.157  14.626  1.1560 -0.1478  0.4545
   6323SM  H18F 8167   6.282   6.088  14.569 -1.0555  0.6062  1.9245
   6323SM  H18G 8168   6.449   6.136  14.664  1.7890  2.5995  0.5321
   6323SM  C19F 8169   6.356   6.293  14.562 -0.5676  0.4471  0.9879
   6323SM  H19F 8170   6.385   6.368  14.638  0.8284  0.0743  0.8504
   6323SM  H19G 8171   6.260   6.338  14.528 -1.1995  0.1424  2.3220
   6323SM  C20F 8172   6.464   6.294  14.445  0.3196  0.2368 -0.8360
   6323SM  H20F 8173   6.481   6.400  14.415  0.9719  0.0828 -1.0325
   6323SM  H20G 8174   6.419   6.244  14.356 -0.8053 -1.0972  0.4328
   6323SM  C21F 8175   6.603   6.241  14.493  1.0837  0.3289  0.1762
   6323SM  H21F 8176   6.600   6.131  14.510 -1.2054  0.2434 -0.4151
   6323SM  H21G 8177   6.627   6.276  14.595 -1.8703  2.5488  0.2688
   6323SM  C22F 8178   6.714   6.274  14.398 -0.2837 -0.7873  0.5667
   6323SM  H22F 8179   6.805   6.262  14.461 -1.3110 -1.2662  2.0116
   6323SM  H22G 8180   6.703   6.380  14.367  1.3566 -0.9442 -0.7233
   6323SM  C23F 8181   6.729   6.189  14.276 -0.5664  0.4390  0.2349
   6323SM  H23F 8182   6.627   6.174  14.234 -0.2795  0.2711 -0.4108
   6323SM  H23G 8183   6.775   6.094  14.309  0.0146 -0.0506 -1.8405
   6323SM  H23H 8184   6.782   6.245  14.197 -0.2296  1.8223  1.3961
   6423SM     N 8185   6.532   4.752  17.393 -0.0615  0.4036 -0.9207
   6423SM   C15 8186   6.415   4.666  17.435  0.3680 -0.2732 -0.2718
   6423SM  H15A 8187   6.414   4.580  17.369 -0.3164  1.9367 -3.3289
   6423SM  H15B 8188   6.319   4.715  17.421  0.8426  0.4470 -1.0794
   6423SM  H15C 8189   6.421   4.648  17.542 -0.0714  1.2377  0.0308
   6423SM   C14 8190   6.498   4.809  17.260  0.0868 -0.1194  0.5153
   6423SM  H14A 8191   6.401   4.854  17.279 -0.1610 -1.6660  3.6655
   6423SM  H14B 8192   6.488   4.730  17.187 -0.4533  0.5401 -0.1416
   6423SM  H14C 8193   6.565   4.891  17.239 -1.4491  1.8011  2.5929
   6423SM   C13 8194   6.552   4.862  17.495  0.0228 -0.3416 -0.4461
   6423SM  H13A 8195   6.620   4.937  17.457  0.8013  0.5387  2.4595
   6423SM  H13B 8196   6.583   4.824  17.591 -1.5874  1.0810  0.7041
   6423SM  H13C 8197   6.456   4.905  17.521  0.2338 -0.2106  0.1159
   6423SM   C12 8198   6.657   4.666  17.386 -0.4450  0.3922  0.2280
   6423SM  H12A 8199   6.685   4.628  17.483 -3.3752 -0.3554  0.8812
   6423SM  H12B 8200   6.740   4.727  17.352 -0.2014 -0.6909 -1.2795
   6423SM   C11 8201   6.644   4.541  17.288 -0.2029  1.0296  0.9866
   6423SM  H11A 8202   6.745   4.503  17.260 -0.0064  2.9536 -1.2568
   6423SM  H11B 8203   6.606   4.579  17.191 -0.1910 -1.3720 -0.0392
   6423SM     P 8204   6.584   4.282  17.311  0.1262  0.0657 -0.1079
   6423SM   O13 8205   6.699   4.254  17.391 -0.2436  0.3856  0.0236
   6423SM   O14 8206   6.461   4.206  17.340  0.5399  0.4121  0.1629
   6423SM   O11 8207   6.627   4.261  17.162  0.3738  0.5818  0.3059
   6423SM   O12 8208   6.553   4.437  17.323  0.2834 -0.1742  0.2882
   6423SM   C1S 8209   6.526   4.261  17.060 -0.1938  0.3070  0.2532
   6423SM   H1S 8210   6.491   4.362  17.031 -1.9730 -0.3842 -0.1413
   6423SM   H1T 8211   6.431   4.211  17.089  0.5357 -0.7728  0.8400
   6423SM    NF 8212   6.467   4.223  16.822 -0.2340  0.0999 -0.1064
   6423SM   HNF 8213   6.392   4.159  16.810 -1.1120  0.8271  1.1520
   6423SM   C2S 8214   6.565   4.189  16.926  0.6102 -1.0147 -0.2447
   6423SM   H2S 8215   6.657   4.243  16.893 -0.1894  0.4764 -0.1157
   6423SM   C3S 8216   6.586   4.043  16.966 -0.3819 -0.6728  0.1847
   6423SM   H3S 8217   6.496   3.998  17.014 -1.4356  0.8599 -0.2825
   6423SM    O3 8218   6.705   4.028  17.048 -0.2707  0.1090 -0.4501
   6423SM   HO3 8219   6.699   4.111  17.095 -0.8826 -0.6355  0.8270
   6423SM   C4S 8220   6.613   3.965  16.835  0.1021 -0.9317 -0.1807
   6423SM   H4S 8221   6.525   3.904  16.810 -1.7455  1.2566  0.6556
   6423SM   C5S 8222   6.719   3.962  16.760 -0.4013 -0.4415 -0.0255
   6423SM   H5S 8223   6.807   4.025  16.785  0.8530 -2.3913  0.7424
   6423SM   C6S 8224   6.733   3.892  16.629 -0.0766  0.1871 -0.2240
   6423SM   H6S 8225   6.820   3.823  16.637 -0.1067 -0.0062 -1.3354
   6423SM   H6T 8226   6.746   3.970  16.551 -0.1624 -1.6973 -2.2565
   6423SM   C7S 8227   6.616   3.792  16.582 -0.1214  0.4777 -0.2264
   6423SM   H7S 8228   6.513   3.833  16.572 -0.9163 -1.1634  0.7992
   6423SM   H7T 8229   6.606   3.717  16.664 -0.4599 -1.6027 -2.0790
   6423SM   C8S 8230   6.650   3.709  16.454  0.8007  0.2301 -0.4739
   6423SM   H8S 8231   6.747   3.658  16.475  0.7148 -0.0848 -0.8166
   6423SM   H8T 8232   6.658   3.784  16.372 -2.5794  0.0666 -1.0770
   6423SM   C9S 8233   6.541   3.600  16.428  0.0129  0.0030  0.2648
   6423SM   H9S 8234   6.498   3.550  16.517 -4.0540  1.9620 -0.3586
   6423SM   H9T 8235   6.592   3.524  16.366  0.2226 -1.5557  2.2375
   6423SM  C10S 8236   6.417   3.665  16.358 -0.3158 -0.1118 -0.1243
   6423SM  H10S 8237   6.398   3.761  16.410 -1.7206 -0.5929  0.3239
   6423SM  H10T 8238   6.337   3.597  16.396 -1.3416  2.1774  2.1034
   6423SM  C11S 8239   6.425   3.657  16.209 -0.2047 -0.8236 -0.0895
   6423SM  H11S 8240   6.472   3.558  16.194 -1.7354 -2.1612  3.1289
   6423SM  H11T 8241   6.497   3.737  16.182 -0.9733  0.0746  0.4243
   6423SM  C12S 8242   6.290   3.670  16.133 -0.1729 -0.2572 -0.1238
   6423SM  H12S 8243   6.253   3.772  16.157  1.7667  0.2500  0.9089
   6423SM  H12T 8244   6.200   3.610  16.160 -1.0096  0.6578 -0.8249
   6423SM  C13S 8245   6.300   3.646  15.985  0.5407 -0.3053  0.0028
   6423SM  H13S 8246   6.211   3.691  15.936 -0.6228  0.4368  2.5722
   6423SM  H13T 8247   6.298   3.536  15.967 -1.6667 -0.3606  0.2809
   6423SM  C14S 8248   6.420   3.709  15.920 -0.0309 -0.2218 -0.5461
   6423SM  H14S 8249   6.512   3.661  15.960 -0.8860 -1.7099 -0.3083
   6423SM  H14T 8250   6.438   3.814  15.949  2.0894 -0.7243  0.1608
   6423SM  C15S 8251   6.418   3.690  15.771  0.1602 -0.2724  0.5567
   6423SM  H15S 8252   6.392   3.586  15.745  0.8022  0.6189 -4.8952
   6423SM  H15T 8253   6.512   3.705  15.714 -0.9220  0.1998 -1.1989
   6423SM  C16S 8254   6.322   3.788  15.692  0.2472 -0.1947 -0.1400
   6423SM  H16S 8255   6.350   3.896  15.699  0.9568 -0.4246  0.7382
   6423SM  H16T 8256   6.220   3.776  15.734 -0.6196 -0.2247 -2.1433
   6423SM  C17S 8257   6.306   3.748  15.540 -0.2082  0.0139 -0.4300
   6423SM  H17S 8258   6.253   3.651  15.522 -1.1468  0.4631 -0.1833
   6423SM  H17T 8259   6.410   3.735  15.505 -0.5849 -2.7896 -0.7992
   6423SM  C18S 8260   6.230   3.853  15.459 -0.3402  0.0212  0.3902
   6423SM  H18S 8261   6.144   3.883  15.522  0.7661  0.2794  1.8168
   6423SM  H18T 8262   6.190   3.819  15.360 -0.0541  1.4188 -0.2262
   6423SM  H18U 8263   6.306   3.930  15.436  0.0783 -0.7437 -0.9246
   6423SM   C1F 8264   6.449   4.338  16.755 -0.1685  0.1319 -0.4207
   6423SM    OF 8265   6.517   4.432  16.777 -0.1927  0.2417 -0.7754
   6423SM   C2F 8266   6.327   4.335  16.662 -0.6060 -0.7587  0.3378
   6423SM   H2F 8267   6.267   4.426  16.688  1.1945  1.2457 -2.0425
   6423SM   H2G 8268   6.269   4.245  16.690 -1.6948  0.3435  1.8263
   6423SM   C3F 8269   6.350   4.338  16.512 -0.3026  0.7913 -0.3640
   6423SM   H3F 8270   6.418   4.421  16.484 -2.4962  2.4232 -1.1615
   6423SM   H3G 8271   6.258   4.346  16.449 -0.5855 -1.4862 -0.3210
   6423SM   C4F 8272   6.399   4.205  16.466  0.2222  0.4726 -0.8774
   6423SM   H4F 8273   6.320   4.127  16.479  3.0395 -2.3624  0.4965
   6423SM   H4G 8274   6.494   4.178  16.515 -0.3465  1.1314  0.6585
   6423SM   C5F 8275   6.411   4.203  16.314  0.3998 -0.8883 -0.0690
   6423SM   H5F 8276   6.466   4.296  16.287 -0.8886 -0.1898 -0.3691
   6423SM   H5G 8277   6.311   4.225  16.270  0.7425  0.7589 -0.0788
   6423SM   C6F 8278   6.456   4.069  16.251 -0.0247 -0.2567  0.3202
   6423SM   H6F 8279   6.390   3.985  16.281  0.1739  0.1409  1.9225
   6423SM   H6G 8280   6.561   4.036  16.270  0.6082  0.5843 -1.4653
   6423SM   C7F 8281   6.449   4.078  16.093  0.3709 -0.0101  0.2800
   6423SM   H7F 8282   6.347   4.082  16.050 -0.0484 -2.1760  0.9476
   6423SM   H7G 8283   6.487   3.980  16.057 -0.3248 -0.5374  0.9545
   6423SM   C8F 8284   6.535   4.188  16.026 -0.3220  0.1472 -0.4438
   6423SM   H8F 8285   6.639   4.174  16.063 -0.4981 -0.4138 -0.1471
   6423SM   H8G 8286   6.509   4.291  16.058 -1.7403 -0.7046  1.2705
   6423SM   C9F 8287   6.515   4.182  15.874 -0.2431 -0.4510  0.8133
   6423SM   H9F 8288   6.411   4.220  15.861  0.1102  0.4122  0.5213
   6423SM   H9G 8289   6.523   4.080  15.831 -0.7136 -0.7407  1.3936
   6423SM  C10F 8290   6.613   4.274  15.796  0.4329 -0.1600 -0.0049
   6423SM  H10F 8291   6.717   4.245  15.822  0.0932 -0.5380  0.9670
   6423SM  H10G 8292   6.604   4.379  15.831 -0.4734 -0.3030  0.2036
   6423SM  C11F 8293   6.598   4.267  15.643  0.1327  0.7170  0.2521
   6423SM  H11F 8294   6.494   4.302  15.626 -0.3349  0.9623  3.1816
   6423SM  H11G 8295   6.618   4.171  15.589  1.4378  0.9596  0.2947
   6423SM  C12F 8296   6.692   4.358  15.575 -0.5875  0.4015 -0.1171
   6423SM  H12F 8297   6.797   4.324  15.562 -1.5957 -2.0543 -2.9364
   6423SM  H12G 8298   6.689   4.453  15.632 -1.2301 -0.2243  0.9244
   6423SM  C13F 8299   6.657   4.395  15.430 -0.2266  0.0756 -0.3899
   6423SM  H13F 8300   6.578   4.472  15.434 -0.8015 -0.4040 -1.8358
   6423SM  H13G 8301   6.610   4.305  15.386 -0.6123 -0.0073  0.1898
   6423SM  C14F 8302   6.780   4.444  15.348  0.0619 -0.0576 -0.0398
   6423SM  H14F 8303   6.847   4.359  15.324  0.6506  0.8662 -1.8415
   6423SM  H14G 8304   6.836   4.524  15.400 -1.1871  1.3202 -0.7125
   6423SM  C15F 8305   6.742   4.497  15.208 -0.8492 -0.2180  0.3639
   6423SM  H15F 8306   6.669   4.419  15.178  0.3246 -2.3581  2.6999
   6423SM  H15G 8307   6.834   4.486  15.148 -1.0319 -1.2408  0.2494
   6423SM  C16F 8308   6.681   4.637  15.215  0.4856 -0.2180  0.2424
   6423SM  H16F 8309   6.751   4.700  15.273  0.4248 -0.5663  0.7022
   6423SM  H16G 8310   6.586   4.628  15.271 -0.1783  0.5063 -0.7243
   6423SM  C17F 8311   6.656   4.692  15.076  0.2613 -0.8705  0.0758
   6423SM  H17F 8312   6.743   4.677  15.009  0.5075 -0.1809  0.2398
   6423SM  H17G 8313   6.644   4.802  15.084  0.2205 -0.9676  1.5156
   6423SM  C18F 8314   6.540   4.639  14.995 -0.0960  0.0283 -0.4149
   6423SM  H18F 8315   6.444   4.637  15.052  0.0645 -0.1111 -0.1457
   6423SM  H18G 8316   6.557   4.530  14.979  2.3586  0.2379  0.3593
   6423SM  C19F 8317   6.536   4.695  14.857  0.3263 -1.1780  0.1239
   6423SM  H19F 8318   6.628   4.664  14.803  0.9250  1.3635 -0.4583
   6423SM  H19G 8319   6.530   4.806  14.858 -1.8619 -1.1706  3.4558
   6423SM  C20F 8320   6.414   4.644  14.781 -0.0742 -0.9818 -0.2497
   6423SM  H20F 8321   6.335   4.721  14.793  0.7469 -0.0893 -0.4224
   6423SM  H20G 8322   6.381   4.547  14.824 -0.0494 -1.0301 -0.3384
   6423SM  C21F 8323   6.456   4.624  14.637 -0.7065  0.0222 -0.2554
   6423SM  H21F 8324   6.391   4.552  14.582  1.0840 -0.3173 -2.0438
   6423SM  H21G 8325   6.556   4.577  14.649  0.1925  1.2475 -2.4831
   6423SM  C22F 8326   6.453   4.750  14.541 -0.1003  0.4338 -0.6283
   6423SM  H22F 8327   6.531   4.819  14.577  0.1304 -1.0679  1.9696
   6423SM  H22G 8328   6.354   4.798  14.556 -0.6740 -0.9816  0.3794
   6423SM  C23F 8329   6.481   4.715  14.394  0.8279 -0.0162 -0.3572
   6423SM  H23F 8330   6.395   4.653  14.362  0.6107  0.6151 -1.0294
   6423SM  H23G 8331   6.570   4.652  14.376 -0.6609 -2.0270 -0.9979
   6423SM  H23H 8332   6.481   4.803  14.326 -2.9525 -0.5040 -1.2232
   6523SM     N 8333   7.010   4.009  17.457 -0.1060  0.7687  0.2273
   6523SM   C15 8334   7.083   4.097  17.554 -0.4455  0.0260  0.6721
   6523SM  H15A 8335   7.190   4.085  17.547 -0.5164 -0.1901 -0.1441
   6523SM  H15B 8336   7.049   4.109  17.656 -1.5129  0.1098  0.3209
   6523SM  H15C 8337   7.070   4.199  17.518 -0.7843  0.0823  0.9432
   6523SM   C14 8338   7.111   3.937  17.370 -0.2599  0.1074 -0.1006
   6523SM  H14A 8339   7.056   3.891  17.289 -2.1386  1.7190  0.1756
   6523SM  H14B 8340   7.165   3.867  17.432 -1.6008 -1.2519 -0.3973
   6523SM  H14C 8341   7.178   4.010  17.329  1.5893 -2.7310 -2.5497
   6523SM   C13 8342   6.935   3.912  17.542  0.2501  0.6226  0.7117
   6523SM  H13A 8343   6.871   3.965  17.611 -2.0354  1.3776 -1.8065
   6523SM  H13B 8344   7.007   3.861  17.603  1.8212  2.1157  0.1677
   6523SM  H13C 8345   6.877   3.848  17.476 -0.4740  2.1817 -0.2476
   6523SM   C12 8346   6.914   4.081  17.358 -0.6354  0.3319  0.0687
   6523SM  H12A 8347   6.845   4.131  17.423  1.0547 -0.2450  2.4316
   6523SM  H12B 8348   6.852   4.018  17.295 -2.9036  1.0014  1.5232
   6523SM   C11 8349   6.985   4.187  17.261 -0.1025 -0.0431  0.0604
   6523SM  H11A 8350   6.907   4.224  17.191 -2.0336 -0.0762  2.0819
   6523SM  H11B 8351   7.072   4.147  17.205 -0.1686  0.3162 -0.2954
   6523SM     P 8352   7.109   4.415  17.290  0.0284  0.1812 -0.1241
   6523SM   O13 8353   7.030   4.539  17.321 -0.6000 -0.3402  0.2784
   6523SM   O14 8354   7.244   4.410  17.340  0.5407  0.9365 -0.0337
   6523SM   O11 8355   7.115   4.394  17.131  0.1278 -0.6629 -0.7313
   6523SM   O12 8356   7.022   4.296  17.342  0.1721 -0.3959 -0.2331
   6523SM   C1S 8357   7.035   4.485  17.061  0.2259  0.0154  0.5411
   6523SM   H1S 8358   7.081   4.586  17.072 -0.3141  0.3932 -0.5695
   6523SM   H1T 8359   6.933   4.489  17.107  0.0010 -1.6900  0.2346
   6523SM    NF 8360   6.984   4.592  16.843 -0.3724  0.0825 -0.0585
   6523SM   HNF 8361   6.887   4.600  16.818 -0.1826  0.6337 -0.6502
   6523SM   C2S 8362   7.029   4.463  16.908  0.4638  0.1233  1.0807
   6523SM   H2S 8363   7.131   4.448  16.867 -1.5567 -1.4150 -4.1766
   6523SM   C3S 8364   6.962   4.325  16.872  0.3460  0.0481  0.0006
   6523SM   H3S 8365   6.865   4.316  16.924  0.9474 -0.9705  0.9677
   6523SM    O3 8366   7.050   4.218  16.911  0.3457 -0.6220 -0.3297
   6523SM   HO3 8367   7.089   4.258  16.990 -0.4656  2.1019 -1.1807
   6523SM   C4S 8368   6.943   4.315  16.725 -0.2912 -0.0252 -0.3981
   6523SM   H4S 8369   7.030   4.282  16.666 -0.8792  1.2243 -2.0216
   6523SM   C5S 8370   6.822   4.349  16.670  0.3176 -0.5932  0.0053
   6523SM   H5S 8371   6.736   4.382  16.729  0.9221  0.4723  0.3298
   6523SM   C6S 8372   6.791   4.330  16.526 -0.6844 -0.0379  0.2301
   6523SM   H6S 8373   6.697   4.273  16.516  0.3182 -1.5368 -1.0985
   6523SM   H6T 8374   6.862   4.259  16.478 -0.8765 -1.0188  1.3541
   6523SM   C7S 8375   6.776   4.467  16.448  0.3887  0.0016 -0.3496
   6523SM   H7S 8376   6.877   4.514  16.456  1.7921 -2.2814 -2.9736
   6523SM   H7T 8377   6.700   4.523  16.506 -0.6581 -0.3083 -1.4023
   6523SM   C8S 8378   6.743   4.469  16.303 -0.5904 -0.1303 -0.1595
   6523SM   H8S 8379   6.715   4.574  16.281 -0.8841 -0.1701  0.0277
   6523SM   H8T 8380   6.657   4.402  16.281  0.1329 -1.3955  0.7264
   6523SM   C9S 8381   6.851   4.417  16.201  0.1180 -0.3827 -0.6516
   6523SM   H9S 8382   6.852   4.307  16.213 -1.7201 -0.5780 -1.8927
   6523SM   H9T 8383   6.953   4.453  16.227  0.6065 -0.3735 -2.4214
   6523SM  C10S 8384   6.827   4.455  16.055 -0.5932 -0.1336 -0.2885
   6523SM  H10S 8385   6.724   4.441  16.015 -0.3599  0.4836 -1.1406
   6523SM  H10T 8386   6.889   4.390  15.988  0.1658  0.8663 -0.5796
   6523SM  C11S 8387   6.875   4.600  16.025 -0.7395  0.3838  0.5135
   6523SM  H11S 8388   6.982   4.603  16.056 -0.8588  1.4666  0.8637
   6523SM  H11T 8389   6.814   4.649  16.103  0.4977 -2.3181  3.3736
   6523SM  C12S 8390   6.845   4.663  15.892  0.3158  0.4133 -0.1114
   6523SM  H12S 8391   6.806   4.762  15.923  2.1428  0.9417  0.6714
   6523SM  H12T 8392   6.756   4.608  15.854 -0.9941  0.9028  2.1040
   6523SM  C13S 8393   6.963   4.667  15.797  0.7280  0.6677  0.1656
   6523SM  H13S 8394   6.997   4.564  15.775  0.4385  0.9336 -1.7596
   6523SM  H13T 8395   7.052   4.712  15.847  1.1644 -0.9328  0.8777
   6523SM  C14S 8396   6.931   4.733  15.662  0.9571  0.3848  1.1012
   6523SM  H14S 8397   6.897   4.837  15.681 -1.4104  0.0460 -0.7520
   6523SM  H14T 8398   6.854   4.677  15.604  0.8752  0.3004  1.2908
   6523SM  C15S 8399   7.047   4.716  15.560 -0.7886 -0.2733  0.4938
   6523SM  H15S 8400   7.074   4.609  15.555  0.3412  0.0686 -2.4526
   6523SM  H15T 8401   7.138   4.769  15.597  0.6646 -0.9819 -1.8720
   6523SM  C16S 8402   7.020   4.761  15.416 -0.0744 -0.3258 -0.1949
   6523SM  H16S 8403   6.998   4.869  15.400  0.5444 -0.4003 -1.7736
   6523SM  H16T 8404   6.929   4.706  15.384 -0.4082  0.5641 -0.8191
   6523SM  C17S 8405   7.135   4.717  15.319  0.8335 -0.0233  0.1356
   6523SM  H17S 8406   7.120   4.607  15.315 -0.9292  0.2191 -1.0995
   6523SM  H17T 8407   7.233   4.737  15.367  0.0935 -0.5684  1.9189
   6523SM  C18S 8408   7.126   4.769  15.173 -0.6694  0.2531  0.3392
   6523SM  H18S 8409   7.150   4.878  15.171 -0.2028  0.1539  0.4175
   6523SM  H18T 8410   7.031   4.741  15.123 -0.4255  0.9044 -0.5213
   6523SM  H18U 8411   7.205   4.729  15.106 -0.3343  3.3349 -1.2853
   6523SM   C1F 8412   7.077   4.680  16.813 -0.4128 -0.5777 -0.1072
   6523SM    OF 8413   7.198   4.659  16.826 -0.4575  0.6143  0.2484
   6523SM   C2F 8414   7.028   4.813  16.773  0.5537 -0.0873 -0.0731
   6523SM   H2F 8415   7.066   4.894  16.839  1.5141  1.3323 -2.2853
   6523SM   H2G 8416   6.917   4.806  16.781  0.7527 -1.7581  2.6027
   6523SM   C3F 8417   7.068   4.851  16.631 -0.1941 -0.0563  0.2926
   6523SM   H3F 8418   7.175   4.824  16.616  0.0318  0.2350  1.2908
   6523SM   H3G 8419   7.055   4.960  16.615  0.7338 -0.0099 -0.2259
   6523SM   C4F 8420   6.981   4.772  16.528  0.0654  0.3376 -0.5429
   6523SM   H4F 8421   6.876   4.768  16.565  0.2981 -2.0268  0.0452
   6523SM   H4G 8422   7.019   4.667  16.536 -1.5022 -0.2789 -0.8908
   6523SM   C5F 8423   6.984   4.829  16.384  0.5060 -0.0852 -0.0301
   6523SM   H5F 8424   6.908   4.910  16.387 -1.2331 -1.6944  0.8765
   6523SM   H5G 8425   6.927   4.761  16.318  0.3568  0.7787 -0.8056
   6523SM   C6F 8426   7.116   4.879  16.328  0.4587 -0.0378  0.4253
   6523SM   H6F 8427   7.178   4.943  16.395  1.8661  1.0405 -1.7931
   6523SM   H6G 8428   7.089   4.951  16.247  4.2657  1.9001  0.6331
   6523SM   C7F 8429   7.207   4.771  16.261 -0.3085  0.0875 -0.4887
   6523SM   H7F 8430   7.276   4.813  16.184  1.3926  0.9219  1.3984
   6523SM   H7G 8431   7.136   4.714  16.197  0.8537 -1.0144 -0.8434
   6523SM   C8F 8432   7.293   4.688  16.350  0.6460 -0.3331 -0.6012
   6523SM   H8F 8433   7.232   4.620  16.413 -0.8949  1.7771  0.3344
   6523SM   H8G 8434   7.349   4.751  16.424  1.0781  0.4008 -1.5337
   6523SM   C9F 8435   7.395   4.594  16.279 -0.9701  0.8772 -0.1009
   6523SM   H9F 8436   7.454   4.540  16.356 -2.9278  1.0528  1.6211
   6523SM   H9G 8437   7.463   4.659  16.219 -0.1916  1.4313  1.3294
   6523SM  C10F 8438   7.324   4.495  16.193 -0.0049  0.5870 -0.6233
   6523SM  H10F 8439   7.265   4.546  16.113 -0.9052  2.4756  1.1617
   6523SM  H10G 8440   7.252   4.443  16.258  0.0506  1.4636  0.1511
   6523SM  C11F 8441   7.413   4.381  16.134 -0.4713  0.2681  0.0100
   6523SM  H11F 8442   7.453   4.329  16.223  0.0309  0.2895 -0.2005
   6523SM  H11G 8443   7.490   4.430  16.070 -1.5747  3.9138  1.2416
   6523SM  C12F 8444   7.334   4.279  16.053  0.0983  0.0294  0.1964
   6523SM  H12F 8445   7.246   4.235  16.104 -0.6858  0.4523 -0.7576
   6523SM  H12G 8446   7.405   4.195  16.034  0.7588  0.4667  0.6482
   6523SM  C13F 8447   7.287   4.333  15.919 -0.2598 -0.0078  0.4398
   6523SM  H13F 8448   7.386   4.368  15.880 -1.1288  2.4645  0.2489
   6523SM  H13G 8449   7.218   4.419  15.932  1.3442  1.5430 -0.7438
   6523SM  C14F 8450   7.214   4.237  15.822 -0.2662  0.2774 -0.5216
   6523SM  H14F 8451   7.125   4.188  15.866  0.5886 -0.7314  0.1343
   6523SM  H14G 8452   7.282   4.163  15.774 -1.0907 -0.7127 -0.1955
   6523SM  C15F 8453   7.168   4.325  15.700  0.8757 -0.3600  0.1101
   6523SM  H15F 8454   7.235   4.413  15.701  1.9476 -1.1590  0.5175
   6523SM  H15G 8455   7.064   4.359  15.721  0.0689 -3.2003  1.1073
   6523SM  C16F 8456   7.178   4.250  15.568  0.4464 -0.0770 -0.7683
   6523SM  H16F 8457   7.115   4.158  15.565  1.1570 -0.5750 -0.4653
   6523SM  H16G 8458   7.277   4.200  15.564  1.7896  2.2699  1.0015
   6523SM  C17F 8459   7.151   4.340  15.441 -0.0230 -0.4125  0.0110
   6523SM  H17F 8460   7.227   4.421  15.447 -2.2337  1.8376 -0.7110
   6523SM  H17G 8461   7.053   4.389  15.456  0.0993 -0.2991  0.4740
   6523SM  C18F 8462   7.168   4.253  15.310 -0.6247  0.6167 -0.1875
   6523SM  H18F 8463   7.087   4.178  15.296  1.1483 -1.3442 -0.4495
   6523SM  H18G 8464   7.266   4.201  15.312 -1.0924 -0.3284 -0.9471
   6523SM  C19F 8465   7.174   4.334  15.176  0.6215 -0.2328 -0.0445
   6523SM  H19F 8466   7.235   4.426  15.191 -0.5744  0.6066 -0.1441
   6523SM  H19G 8467   7.065   4.349  15.162  0.4437 -1.9149 -0.6900
   6523SM  C20F 8468   7.238   4.264  15.058 -0.5676  0.5395 -0.3075
   6523SM  H20F 8469   7.175   4.185  15.013 -0.5980  2.1124 -3.2317
   6523SM  H20G 8470   7.337   4.228  15.094 -1.4022 -2.8135 -1.0551
   6523SM  C21F 8471   7.291   4.357  14.944 -0.2318  0.1814 -0.0177
   6523SM  H21F 8472   7.342   4.441  14.994  0.0828 -0.0983  0.1387
   6523SM  H21G 8473   7.204   4.393  14.886 -2.2424 -1.4309  1.8274
   6523SM  C22F 8474   7.405   4.303  14.865  0.1600  0.0442  0.8860
   6523SM  H22F 8475   7.369   4.211  14.815 -0.4293  0.9387 -0.4245
   6523SM  H22G 8476   7.493   4.276  14.926  1.3152  1.7419  0.0630
   6523SM  C23F 8477   7.450   4.392  14.751 -0.0963 -0.5416  1.0036
   6523SM  H23F 8478   7.520   4.335  14.686 -0.9622 -0.0452 -0.4256
   6523SM  H23G 8479   7.493   4.484  14.795  0.0373  0.6467 -1.4359
   6523SM  H23H 8480   7.365   4.421  14.685  1.1192 -0.9317 -0.8186
   6623SM     N 8481   4.960   1.688  17.325 -1.2592  0.0773  0.2637
   6623SM   C15 8482   5.042   1.662  17.444 -0.1504 -0.0703 -0.1099
   6623SM  H15A 8483   4.996   1.695  17.535 -0.5861 -1.9344  0.3864
   6623SM  H15B 8484   5.140   1.708  17.435 -0.1371 -0.0843 -0.0381
   6623SM  H15C 8485   5.061   1.556  17.447  2.8373  0.3800  0.8531
   6623SM   C14 8486   4.829   1.620  17.339  0.1981  0.3882 -0.3335
   6623SM  H14A 8487   4.836   1.524  17.291  1.1018  1.1454 -1.8113
   6623SM  H14B 8488   4.752   1.684  17.298  0.1608  1.0789  0.7549
   6623SM  H14C 8489   4.810   1.604  17.444  1.5735  1.6561  0.1478
   6623SM   C13 8490   4.943   1.839  17.317 -1.0547  1.1096  0.1924
   6623SM  H13A 8491   4.895   1.871  17.408 -1.1088  0.7803  0.2777
   6623SM  H13B 8492   4.885   1.878  17.235  1.1096  2.8075 -0.6493
   6623SM  H13C 8493   5.042   1.881  17.303 -1.1270  1.4800  0.7806
   6623SM   C12 8494   5.041   1.648  17.198  0.5642  0.4029  0.2667
   6623SM  H12A 8495   5.087   1.553  17.221  1.7376  1.0993  0.9626
   6623SM  H12B 8496   5.123   1.716  17.177 -0.3332  1.5298  0.3476
   6623SM   C11 8497   4.965   1.637  17.064  0.3278  0.2068 -0.7265
   6623SM  H11A 8498   4.869   1.585  17.084  0.0549  0.4972 -1.2661
   6623SM  H11B 8499   5.014   1.569  16.991  3.0114  2.2451 -1.0005
   6623SM     P 8500   5.020   1.873  16.957 -0.0089 -0.2125 -0.2163
   6623SM   O13 8501   4.976   2.014  16.983 -0.0462  0.0634 -0.1268
   6623SM   O14 8502   5.156   1.844  17.012  0.0240 -0.1777 -0.1649
   6623SM   O11 8503   5.017   1.846  16.803 -0.3699 -0.4914 -0.1839
   6623SM   O12 8504   4.923   1.766  17.012  0.2661 -0.2777  0.0040
   6623SM   C1S 8505   4.903   1.790  16.744  0.6984  0.6213  0.0172
   6623SM   H1S 8506   4.810   1.840  16.776 -0.3449  0.4088 -2.4662
   6623SM   H1T 8507   4.893   1.682  16.769  3.0769 -0.3848 -2.7440
   6623SM    NF 8508   4.780   1.786  16.535 -0.4434 -0.0986  0.0767
   6623SM   HNF 8509   4.764   1.704  16.481 -0.4454  0.3515 -0.6142
   6623SM   C2S 8510   4.910   1.806  16.596  0.0282 -0.0110  0.1574
   6623SM   H2S 8511   4.942   1.910  16.573  0.7534 -0.4330 -0.8163
   6623SM   C3S 8512   5.031   1.725  16.535  0.5681  0.0677  0.1567
   6623SM   H3S 8513   5.015   1.617  16.556  1.8582  0.0185  0.9976
   6623SM    O3 8514   5.159   1.743  16.601 -0.1793  0.0287  0.1947
   6623SM   HO3 8515   5.133   1.781  16.685  1.5675 -1.7917  1.6413
   6623SM   C4S 8516   5.041   1.729  16.389  0.3678 -0.0805  0.1276
   6623SM   H4S 8517   4.991   1.652  16.328 -0.7388 -0.1589  1.1055
   6623SM   C5S 8518   5.101   1.831  16.320  0.0053 -0.8341  0.2491
   6623SM   H5S 8519   5.137   1.916  16.379 -0.4069 -1.4637  1.4361
   6623SM   C6S 8520   5.116   1.856  16.174  0.4019  0.0645 -0.1948
   6623SM   H6S 8521   5.054   1.786  16.114  3.0363 -0.1545 -2.8893
   6623SM   H6T 8522   5.223   1.846  16.146 -0.3690 -0.3210 -3.3588
   6623SM   C7S 8523   5.090   2.007  16.144  0.2969  0.0504 -0.3255
   6623SM   H7S 8524   5.157   2.078  16.197 -0.1046  0.4379 -0.3308
   6623SM   H7T 8525   4.984   2.036  16.163  0.2461  0.4279 -1.1488
   6623SM   C8S 8526   5.112   2.035  15.994 -0.2362  0.4085 -0.5037
   6623SM   H8S 8527   5.059   1.961  15.932  1.2069 -1.4341  0.3693
   6623SM   H8T 8528   5.221   2.021  15.973  0.7395  1.4029  3.1458
   6623SM   C9S 8529   5.068   2.179  15.960  0.4155 -0.2098  0.2905
   6623SM   H9S 8530   5.135   2.252  16.009 -0.8527  0.4368  1.1196
   6623SM   H9T 8531   4.967   2.181  16.006 -0.5871 -0.0938 -1.7533
   6623SM  C10S 8532   5.059   2.180  15.804 -0.2669 -0.1839 -0.1745
   6623SM  H10S 8533   5.013   2.280  15.790 -0.2089 -0.1081  0.1507
   6623SM  H10T 8534   5.004   2.093  15.762  0.0087 -0.7866  0.6663
   6623SM  C11S 8535   5.176   2.211  15.719 -0.6075 -0.2138  0.4500
   6623SM  H11S 8536   5.253   2.134  15.740 -1.3666 -1.2044 -0.2883
   6623SM  H11T 8537   5.211   2.316  15.734 -0.9995 -0.0659  0.3467
   6623SM  C12S 8538   5.149   2.184  15.578  0.2529 -0.0082 -0.2699
   6623SM  H12S 8539   5.076   2.253  15.530 -0.2575  1.3657  2.2921
   6623SM  H12T 8540   5.118   2.079  15.564  0.1515 -0.3064  1.8711
   6623SM  C13S 8541   5.279   2.203  15.496  0.1811  0.4342 -0.6691
   6623SM  H13S 8542   5.344   2.113  15.500 -2.6103 -1.8074 -1.9758
   6623SM  H13T 8543   5.347   2.284  15.530 -0.5639  1.9363 -2.5692
   6623SM  C14S 8544   5.252   2.233  15.350 -0.0183  0.1101  0.0500
   6623SM  H14S 8545   5.172   2.309  15.341 -1.7260 -1.6331 -0.1858
   6623SM  H14T 8546   5.196   2.145  15.309 -0.1896  0.5316 -0.6451
   6623SM  C15S 8547   5.371   2.279  15.264  0.4534  0.2236 -0.1265
   6623SM  H15S 8548   5.419   2.180  15.246 -0.1658 -0.5223  1.9935
   6623SM  H15T 8549   5.447   2.334  15.323  1.7751 -0.8994 -0.7141
   6623SM  C16S 8550   5.332   2.343  15.137 -0.6275 -0.3705  0.0293
   6623SM  H16S 8551   5.422   2.393  15.096 -1.5668  2.3033  0.9993
   6623SM  H16T 8552   5.264   2.429  15.155  1.9893  1.4136  2.2649
   6623SM  C17S 8553   5.280   2.244  15.033  0.3333 -0.2068  0.7214
   6623SM  H17S 8554   5.191   2.193  15.075 -1.2827  0.6870 -1.4208
   6623SM  H17T 8555   5.365   2.178  15.007  0.3395  0.3098 -0.6708
   6623SM  C18S 8556   5.243   2.295  14.892  1.3407  0.5089 -0.1214
   6623SM  H18S 8557   5.168   2.226  14.847  1.4797 -0.5382  1.2014
   6623SM  H18T 8558   5.329   2.313  14.823  0.9243  1.3703 -0.4330
   6623SM  H18U 8559   5.194   2.395  14.897  0.3760  0.0625 -0.5487
   6623SM   C1F 8560   4.678   1.865  16.544  0.2942  0.0355 -0.7982
   6623SM    OF 8561   4.669   1.952  16.631 -0.0743  0.4939  0.3328
   6623SM   C2F 8562   4.566   1.843  16.456 -0.2294 -0.1496 -0.0630
   6623SM   H2F 8563   4.589   1.757  16.388 -1.2735 -0.2014 -0.3587
   6623SM   H2G 8564   4.538   1.917  16.378  0.9504 -0.1571 -0.5255
   6623SM   C3F 8565   4.430   1.808  16.534 -0.0164 -1.2216 -0.3383
   6623SM   H3F 8566   4.394   1.911  16.551  2.1335 -0.3621 -0.6203
   6623SM   H3G 8567   4.452   1.759  16.631  0.2160 -0.8959 -0.2254
   6623SM   C4F 8568   4.331   1.729  16.451  0.5673  0.0957 -0.5896
   6623SM   H4F 8569   4.374   1.629  16.432 -1.2225 -0.5395 -1.6381
   6623SM   H4G 8570   4.312   1.769  16.348 -1.5482 -0.2548 -0.3927
   6623SM   C5F 8571   4.187   1.718  16.507 -0.6908  0.7967 -0.0398
   6623SM   H5F 8572   4.154   1.820  16.535 -1.4812 -0.0986  2.6051
   6623SM   H5G 8573   4.187   1.657  16.600  0.8337 -0.2218 -0.6680
   6623SM   C6F 8574   4.088   1.667  16.400 -0.3312  0.0111  0.4360
   6623SM   H6F 8575   4.123   1.568  16.363 -0.2346  0.7848 -1.7025
   6623SM   H6G 8576   4.083   1.730  16.309  2.0410 -1.0597 -0.5158
   6623SM   C7F 8577   3.940   1.653  16.449 -0.5419  0.1235  0.2620
   6623SM   H7F 8578   3.906   1.752  16.487 -0.4915 -0.1626  1.0756
   6623SM   H7G 8579   3.938   1.575  16.528 -0.4562  0.0789  0.2188
   6623SM   C8F 8580   3.844   1.601  16.340  0.4094 -0.2308  0.2705
   6623SM   H8F 8581   3.744   1.568  16.377 -0.3252  1.7166  0.1737
   6623SM   H8G 8582   3.888   1.512  16.291  1.1865 -0.2951  1.0713
   6623SM   C9F 8583   3.817   1.697  16.220 -0.4343  0.6687  0.5092
   6623SM   H9F 8584   3.915   1.741  16.190  0.3038 -0.5863  1.0205
   6623SM   H9G 8585   3.752   1.785  16.242 -0.6632  0.6318 -0.0057
   6623SM  C10F 8586   3.763   1.621  16.093  0.2506  0.0514 -0.1364
   6623SM  H10F 8587   3.661   1.586  16.123 -0.6206  1.8280 -0.8779
   6623SM  H10G 8588   3.832   1.535  16.081  1.7542  1.2992 -0.6649
   6623SM  C11F 8589   3.762   1.700  15.964 -0.1203  0.0468 -0.5250
   6623SM  H11F 8590   3.859   1.710  15.911 -0.0131  0.6854 -0.2201
   6623SM  H11G 8591   3.734   1.804  15.993  1.4295  0.4125 -0.2299
   6623SM  C12F 8592   3.650   1.665  15.862  0.7432 -0.3464  0.2740
   6623SM  H12F 8593   3.550   1.658  15.909  0.3129 -1.0448 -0.7281
   6623SM  H12G 8594   3.678   1.565  15.824 -0.7312 -0.3336 -0.9222
   6623SM  C13F 8595   3.656   1.748  15.735 -0.1908 -0.0241 -0.9561
   6623SM  H13F 8596   3.747   1.724  15.675 -1.6411 -1.2191 -2.8178
   6623SM  H13G 8597   3.662   1.855  15.763 -0.0827 -0.3485  0.3136
   6623SM  C14F 8598   3.527   1.726  15.651  0.4277 -0.0336 -0.3321
   6623SM  H14F 8599   3.437   1.723  15.715  1.1395  0.3302  0.7126
   6623SM  H14G 8600   3.530   1.618  15.624 -0.4610 -0.0746 -0.2799
   6623SM  C15F 8601   3.498   1.814  15.529  0.0059 -0.0978 -0.6321
   6623SM  H15F 8602   3.498   1.921  15.558 -0.5421  0.7355 -3.4119
   6623SM  H15G 8603   3.391   1.803  15.501 -0.4817 -0.6721  1.3027
   6623SM  C16F 8604   3.606   1.802  15.419 -0.0021  1.0965  0.3556
   6623SM  H16F 8605   3.607   1.695  15.389 -0.7071  1.5135 -1.2815
   6623SM  H16G 8606   3.702   1.822  15.471  1.5293 -1.7485 -1.0822
   6623SM  C17F 8607   3.589   1.902  15.306  0.4096 -0.1201  0.1083
   6623SM  H17F 8608   3.597   2.008  15.338 -0.3433 -0.1956  0.5639
   6623SM  H17G 8609   3.483   1.895  15.272  0.4546  0.8344 -0.2702
   6623SM  C18F 8610   3.685   1.884  15.193 -0.5727  0.4411  0.3890
   6623SM  H18F 8611   3.790   1.874  15.229  0.1684  1.9565 -1.1890
   6623SM  H18G 8612   3.685   1.967  15.119 -0.8694 -1.2240 -1.5575
   6623SM  C19F 8613   3.654   1.754  15.127  0.1406 -0.1158  0.1379
   6623SM  H19F 8614   3.547   1.756  15.098  0.7791 -0.2995 -2.5385
   6623SM  H19G 8615   3.674   1.661  15.184  1.2622 -1.1119 -1.7672
   6623SM  C20F 8616   3.732   1.748  14.990  0.8479  0.2276 -0.9212
   6623SM  H20F 8617   3.714   1.845  14.938  1.3726  1.7998  1.6110
   6623SM  H20G 8618   3.692   1.662  14.932  0.3992  0.9453 -1.6987
   6623SM  C21F 8619   3.885   1.730  15.009  0.3880  0.1652  0.0540
   6623SM  H21F 8620   3.927   1.813  15.070  1.6403  1.0279 -1.9058
   6623SM  H21G 8621   3.932   1.726  14.909 -0.6325 -1.7148 -0.4026
   6623SM  C22F 8622   3.926   1.596  15.077  0.6886  0.1203  0.2776
   6623SM  H22F 8623   3.897   1.507  15.019  1.1035 -0.8134  1.4643
   6623SM  H22G 8624   3.866   1.586  15.170  0.4643 -0.9230  0.0266
   6623SM  C23F 8625   4.074   1.599  15.118 -0.0301 -0.0396 -0.1920
   6623SM  H23F 8626   4.145   1.602  15.033  0.0586  0.2503 -0.1112
   6623SM  H23G 8627   4.089   1.501  15.167 -1.6129  0.1815  0.8049
   6623SM  H23H 8628   4.094   1.667  15.203  2.7073 -2.4873  1.3004
   6723SM     N 8629   4.811   6.223  16.956  0.0293 -0.0198  0.8890
   6723SM   C15 8630   4.939   6.196  16.882  0.6932  1.0521  0.5867
   6723SM  H15A 8631   4.919   6.147  16.788 -1.3376  3.2604 -0.2247
   6723SM  H15B 8632   4.991   6.125  16.945  1.6731  0.0653 -1.2607
   6723SM  H15C 8633   4.993   6.288  16.865  0.3772  0.8396 -1.9430
   6723SM   C14 8634   4.837   6.327  17.057  0.6402  0.3786  0.1126
   6723SM  H14A 8635   4.889   6.411  17.013 -1.2735  1.8303  0.4689
   6723SM  H14B 8636   4.900   6.283  17.133  2.0948  1.2929 -0.5241
   6723SM  H14C 8637   4.746   6.362  17.103 -0.6942 -1.3237 -1.1199
   6723SM   C13 8638   4.712   6.268  16.856 -0.5034 -1.2181 -0.1550
   6723SM  H13A 8639   4.695   6.198  16.776  1.0461  1.3451 -2.9387
   6723SM  H13B 8640   4.745   6.360  16.811  0.7665 -0.5094  2.0580
   6723SM  H13C 8641   4.612   6.278  16.897 -0.3356 -1.4324  0.3150
   6723SM   C12 8642   4.761   6.100  17.016 -0.0311  0.2130 -0.4043
   6723SM  H12A 8643   4.838   6.048  17.071 -1.2686  0.0995  1.2851
   6723SM  H12B 8644   4.731   6.033  16.937  1.7827 -1.3412  0.1331
   6723SM   C11 8645   4.645   6.122  17.116 -0.0770 -0.0118 -0.0501
   6723SM  H11A 8646   4.573   6.188  17.063 -0.1983 -1.7700 -2.1814
   6723SM  H11B 8647   4.681   6.176  17.207 -0.2843 -0.0919  0.0805
   6723SM     P 8648   4.476   5.928  17.075  0.4802 -0.1414 -0.1310
   6723SM   O13 8649   4.456   5.795  17.127  0.2041  0.5813 -0.7647
   6723SM   O14 8650   4.352   6.012  17.057  0.8144  0.0018 -0.9597
   6723SM   O11 8651   4.545   5.913  16.934  0.4696  0.1146 -0.2462
   6723SM   O12 8652   4.590   5.999  17.159  0.1416 -0.7675  0.9822
   6723SM   C1S 8653   4.480   5.971  16.814 -0.2588  0.3459  0.2760
   6723SM   H1S 8654   4.519   6.074  16.806  3.1003 -0.9310 -1.9464
   6723SM   H1T 8655   4.370   5.982  16.807  0.0512  2.5765 -4.0969
   6723SM    NF 8656   4.499   5.979  16.568 -0.0258  1.1145  0.4421
   6723SM   HNF 8657   4.411   5.963  16.524 -0.4051  1.9284  0.8768
   6723SM   C2S 8658   4.532   5.894  16.686  1.3960  0.5463 -0.4919
   6723SM   H2S 8659   4.642   5.885  16.693  1.6185  1.2517 -2.5340
   6723SM   C3S 8660   4.470   5.745  16.690  0.2445  0.0459  0.5667
   6723SM   H3S 8661   4.359   5.754  16.685  0.3933  1.5459 -0.8738
   6723SM    O3 8662   4.497   5.683  16.812 -0.1958 -0.2157 -0.1674
   6723SM   HO3 8663   4.548   5.750  16.859  1.7306 -1.7047 -0.0307
   6723SM   C4S 8664   4.528   5.662  16.584 -0.9052  0.3200  0.6890
   6723SM   H4S 8665   4.632   5.628  16.595 -1.5225 -2.2636 -0.6998
   6723SM   C5S 8666   4.466   5.629  16.471  0.0931 -0.0277  0.3467
   6723SM   H5S 8667   4.366   5.670  16.456 -0.1022 -0.2898  0.8767
   6723SM   C6S 8668   4.520   5.560  16.350  0.0579  0.4560  0.3942
   6723SM   H6S 8669   4.531   5.638  16.271  0.3898  1.8532  1.7639
   6723SM   H6T 8670   4.445   5.488  16.311 -2.8090  4.1374 -1.6336
   6723SM   C7S 8671   4.660   5.498  16.371  0.6485  0.2614  0.4835
   6723SM   H7S 8672   4.660   5.435  16.463  0.0223  0.6083  0.7252
   6723SM   H7T 8673   4.744   5.570  16.381  0.8782  0.0338  0.2491
   6723SM   C8S 8674   4.707   5.411  16.251  0.6381 -0.3632  0.6862
   6723SM   H8S 8675   4.627   5.334  16.250 -1.1911  1.4287 -1.0532
   6723SM   H8T 8676   4.807   5.369  16.272  0.4351 -0.6357  1.1101
   6723SM   C9S 8677   4.712   5.478  16.111 -0.2898  0.1435 -0.4921
   6723SM   H9S 8678   4.797   5.551  16.106 -0.5339  0.3580 -2.2786
   6723SM   H9T 8679   4.618   5.533  16.086 -1.9883 -1.6797  1.5882
   6723SM  C10S 8680   4.734   5.375  15.996  0.3962 -0.0217 -0.2176
   6723SM  H10S 8681   4.697   5.426  15.904  0.6702  1.0416  0.2463
   6723SM  H10T 8682   4.670   5.288  16.023  2.2866 -1.8022 -1.1676
   6723SM  C11S 8683   4.883   5.334  15.985  0.2482 -0.0081 -0.0179
   6723SM  H11S 8684   4.930   5.270  16.063  1.5802  2.1845  1.0741
   6723SM  H11T 8685   4.932   5.434  15.992 -0.9974  0.5991  0.3214
   6723SM  C12S 8686   4.918   5.267  15.850 -0.0943 -0.0477 -0.6821
   6723SM  H12S 8687   4.870   5.317  15.763 -0.8561 -1.0625 -0.8629
   6723SM  H12T 8688   4.847   5.182  15.856 -0.1428  0.0376 -0.0208
   6723SM  C13S 8689   5.065   5.230  15.840  0.0318 -0.8908 -1.0159
   6723SM  H13S 8690   5.100   5.203  15.943  0.7333  1.0822 -0.6957
   6723SM  H13T 8691   5.123   5.316  15.800  0.5104 -1.2357 -1.0748
   6723SM  C14S 8692   5.087   5.119  15.728  0.8495 -0.2595 -0.3633
   6723SM  H14S 8693   5.025   5.170  15.651 -0.7249  1.8204  2.1099
   6723SM  H14T 8694   5.028   5.026  15.744 -2.1763  1.0245 -2.8651
   6723SM  C15S 8695   5.228   5.088  15.679 -0.0615 -0.0255 -0.1641
   6723SM  H15S 8696   5.272   4.993  15.717  0.8262  0.1441 -0.7174
   6723SM  H15T 8697   5.289   5.169  15.724 -0.4604  0.2684 -0.1471
   6723SM  C16S 8698   5.247   5.091  15.526 -0.1557  0.4005  0.6527
   6723SM  H16S 8699   5.354   5.067  15.511 -0.5150 -1.3520  0.6714
   6723SM  H16T 8700   5.222   5.190  15.483  2.6499  0.3471 -1.3764
   6723SM  C17S 8701   5.164   4.988  15.461 -0.0586  0.4178  0.3171
   6723SM  H17S 8702   5.058   5.021  15.460 -1.2160 -2.8618 -2.0657
   6723SM  H17T 8703   5.169   4.896  15.523 -2.5055 -0.5380 -0.7623
   6723SM  C18S 8704   5.202   4.956  15.315  0.3433 -0.9834 -0.5553
   6723SM  H18S 8705   5.311   4.956  15.295  0.6181 -0.3620  0.8211
   6723SM  H18T 8706   5.162   5.040  15.254  1.9252  1.7046  1.8238
   6723SM  H18U 8707   5.165   4.853  15.300 -1.2277 -0.6673  0.7497
   6723SM   C1F 8708   4.576   6.086  16.550  0.2773  0.1559  0.1455
   6723SM    OF 8709   4.680   6.097  16.615 -0.1774 -0.5608 -0.4259
   6723SM   C2F 8710   4.536   6.187  16.445  0.0286  0.1688  0.2631
   6723SM   H2F 8711   4.516   6.283  16.497  3.2394  0.2526  1.5122
   6723SM   H2G 8712   4.445   6.154  16.390  0.4019  0.2250 -0.4007
   6723SM   C3F 8713   4.646   6.220  16.349  0.9258  0.5715  0.1369
   6723SM   H3F 8714   4.692   6.126  16.313  0.9544  0.0701  1.4541
   6723SM   H3G 8715   4.723   6.272  16.410  0.2527 -1.3962  2.8432
   6723SM   C4F 8716   4.601   6.307  16.230 -0.5028  0.4718 -0.3489
   6723SM   H4F 8717   4.575   6.404  16.277 -0.7791 -1.9794  5.4104
   6723SM   H4G 8718   4.514   6.253  16.186  0.5752  0.2013 -2.2504
   6723SM   C5F 8719   4.711   6.318  16.136 -0.0713  0.0513  0.2497
   6723SM   H5F 8720   4.742   6.217  16.099 -0.5727 -0.9321  2.3424
   6723SM   H5G 8721   4.800   6.367  16.181 -0.3363 -0.5690  1.4882
   6723SM   C6F 8722   4.678   6.402  16.008  0.0374  0.2456  0.4424
   6723SM   H6F 8723   4.636   6.498  16.045  0.6535 -0.1579  2.2863
   6723SM   H6G 8724   4.595   6.350  15.955  1.1404 -0.6047 -0.4975
   6723SM   C7F 8725   4.800   6.415  15.910  0.0617  0.2859 -0.4062
   6723SM   H7F 8726   4.826   6.313  15.874  0.0430  0.4160 -0.7925
   6723SM   H7G 8727   4.882   6.453  15.974 -1.4314  0.2815  1.6094
   6723SM   C8F 8728   4.774   6.507  15.782 -0.3133  0.6269  0.6419
   6723SM   H8F 8729   4.790   6.615  15.805  2.3240  0.4414 -0.0074
   6723SM   H8G 8730   4.668   6.490  15.753  0.0378 -1.4108  0.4300
   6723SM   C9F 8731   4.866   6.477  15.662  0.0201 -0.3501 -0.2751
   6723SM   H9F 8732   4.843   6.377  15.619  1.6301 -1.2952  0.9381
   6723SM   H9G 8733   4.968   6.475  15.707 -0.4669 -0.8821  0.8539
   6723SM  C10F 8734   4.853   6.590  15.557  0.4583  0.2533 -0.2797
   6723SM  H10F 8735   4.946   6.585  15.497  0.7923 -3.9898  0.3350
   6723SM  H10G 8736   4.865   6.685  15.615  2.5191 -0.7077  0.9786
   6723SM  C11F 8737   4.730   6.601  15.462 -0.2329  0.1434 -0.0890
   6723SM  H11F 8738   4.644   6.623  15.529 -0.5497 -1.4966  0.0929
   6723SM  H11G 8739   4.710   6.503  15.413  0.1786 -1.0449  1.9934
   6723SM  C12F 8740   4.773   6.692  15.344 -0.1332  0.2799  0.3402
   6723SM  H12F 8741   4.863   6.650  15.294 -0.5088  0.7019 -0.7200
   6723SM  H12G 8742   4.810   6.794  15.370  0.2920  0.1586  0.2148
   6723SM  C13F 8743   4.669   6.725  15.242  0.6929 -0.1834 -0.1443
   6723SM  H13F 8744   4.642   6.629  15.192 -0.0934  0.1129 -0.3147
   6723SM  H13G 8745   4.707   6.795  15.165  1.1308  2.1477  2.0823
   6723SM  C14F 8746   4.551   6.798  15.303  0.1012 -0.3033  0.0749
   6723SM  H14F 8747   4.596   6.880  15.363  1.6479  0.1720 -1.6755
   6723SM  H14G 8748   4.506   6.738  15.385  1.0693  1.4385  1.9725
   6723SM  C15F 8749   4.442   6.854  15.207 -0.6186  0.7420 -0.9583
   6723SM  H15F 8750   4.408   6.767  15.147 -1.3444  1.2615 -1.3056
   6723SM  H15G 8751   4.483   6.930  15.138 -0.6801  0.4448 -1.3237
   6723SM  C16F 8752   4.324   6.896  15.299 -0.3902  0.5077  0.2971
   6723SM  H16F 8753   4.328   6.988  15.361  2.6121 -0.4764  1.7892
   6723SM  H16G 8754   4.305   6.809  15.365 -2.4179 -0.6862 -1.7263
   6723SM  C17F 8755   4.197   6.910  15.210  0.1941 -0.0372 -0.2629
   6723SM  H17F 8756   4.212   6.868  15.108 -1.7953  3.1699 -2.0721
   6723SM  H17G 8757   4.182   7.015  15.177 -0.8604 -0.3279 -0.7480
   6723SM  C18F 8758   4.064   6.872  15.273 -0.4680  0.8579  0.3505
   6723SM  H18F 8759   4.048   6.928  15.367 -0.6088  1.7613 -0.1972
   6723SM  H18G 8760   4.070   6.763  15.298  0.1762  1.4611  3.2059
   6723SM  C19F 8761   3.944   6.892  15.181  0.4245  0.0685  0.0657
   6723SM  H19F 8762   3.984   6.865  15.081  2.8708  1.0409  0.7173
   6723SM  H19G 8763   3.925   7.002  15.179 -0.1649 -0.0423 -0.8361
   6723SM  C20F 8764   3.807   6.826  15.212  1.0311  0.5667  0.0755
   6723SM  H20F 8765   3.717   6.890  15.204  0.9458  0.3830 -0.5164
   6723SM  H20G 8766   3.813   6.799  15.319  0.2813  0.6459  0.1437
   6723SM  C21F 8767   3.774   6.690  15.142  0.0106  0.5529  0.6679
   6723SM  H21F 8768   3.840   6.612  15.184  0.2644 -1.1949 -2.6194
   6723SM  H21G 8769   3.806   6.694  15.035 -1.2682  0.3859  0.2581
   6723SM  C22F 8770   3.628   6.650  15.143  0.3369 -0.1864  0.3064
   6723SM  H22F 8771   3.573   6.727  15.085  0.5932 -0.5462 -0.4256
   6723SM  H22G 8772   3.583   6.652  15.244  1.2215 -1.7049  0.7647
   6723SM  C23F 8773   3.591   6.516  15.067 -0.3338 -0.2495  0.2461
   6723SM  H23F 8774   3.634   6.507  14.965 -0.3641 -2.8920  0.4097
   6723SM  H23G 8775   3.480   6.508  15.055 -0.0564 -1.0983 -2.3904
   6723SM  H23H 8776   3.636   6.430  15.120 -0.4084 -0.5898 -0.2308
   6823SM     N 8777   3.441   1.349  17.709 -0.1972 -0.0029  0.4367
   6823SM   C15 8778   3.348   1.239  17.695  0.4196  0.4798  0.1028
   6823SM  H15A 8779   3.401   1.150  17.663 -1.3421  0.5990 -3.6009
   6823SM  H15B 8780   3.278   1.253  17.614  1.7066 -3.5000 -2.0045
   6823SM  H15C 8781   3.294   1.221  17.786  0.0737  2.0336  0.2388
   6823SM   C14 8782   3.360   1.467  17.737 -0.4552 -0.1329 -0.1325
   6823SM  H14A 8783   3.291   1.458  17.821 -2.0346 -1.3226 -1.4920
   6823SM  H14B 8784   3.298   1.490  17.651 -0.7740  0.7692  0.3207
   6823SM  H14C 8785   3.429   1.550  17.737 -1.0317  0.3592 -0.5581
   6823SM   C13 8786   3.528   1.325  17.822  0.3882 -0.1410 -1.0612
   6823SM  H13A 8787   3.473   1.285  17.906  0.5097  0.8649 -0.4832
   6823SM  H13B 8788   3.593   1.404  17.858  0.6084 -1.0738  0.7183
   6823SM  H13C 8789   3.600   1.247  17.800  0.4866 -0.5031  0.4055
   6823SM   C12 8790   3.514   1.379  17.580 -0.1034 -0.0669 -0.1511
   6823SM  H12A 8791   3.582   1.462  17.598  0.3735 -0.3693 -0.5193
   6823SM  H12B 8792   3.453   1.411  17.497 -1.9912  2.3938  2.0082
   6823SM   C11 8793   3.602   1.268  17.521  0.5276  0.3052 -0.5191
   6823SM  H11A 8794   3.667   1.226  17.601 -1.2322 -0.3810  0.6066
   6823SM  H11B 8795   3.678   1.300  17.446  0.0961 -2.0691 -2.0754
   6823SM     P 8796   3.428   1.182  17.345 -0.2323 -0.1034 -0.1449
   6823SM   O13 8797   3.471   1.100  17.229 -0.0309 -0.0417  0.0034
   6823SM   O14 8798   3.286   1.170  17.400  0.6313 -0.5699 -0.1390
   6823SM   O11 8799   3.441   1.333  17.307  0.3000 -0.2967  1.0000
   6823SM   O12 8800   3.526   1.158  17.463  0.4354 -0.1995 -0.5054
   6823SM   C1S 8801   3.538   1.376  17.207 -0.3029  0.3063 -0.5664
   6823SM   H1S 8802   3.584   1.287  17.159 -3.6460 -0.2759 -3.0436
   6823SM   H1T 8803   3.617   1.449  17.235  0.0159  0.4848 -1.8717
   6823SM    NF 8804   3.542   1.472  16.977 -0.1436 -0.3198  0.4574
   6823SM   HNF 8805   3.561   1.569  16.965  0.5248 -0.0226  3.2470
   6823SM   C2S 8806   3.459   1.444  17.092 -0.1912  0.1001 -0.0715
   6823SM   H2S 8807   3.384   1.366  17.067 -0.7086  0.1849  1.1589
   6823SM   C3S 8808   3.371   1.569  17.147 -0.2004 -0.4962  0.2789
   6823SM   H3S 8809   3.448   1.647  17.163 -0.4204 -0.0143 -0.9369
   6823SM    O3 8810   3.312   1.556  17.280  0.6283  0.0793  0.0747
   6823SM   HO3 8811   3.354   1.478  17.317  0.0721  0.0884  0.7520
   6823SM   C4S 8812   3.273   1.618  17.036 -0.1339 -0.1674 -0.7006
   6823SM   H4S 8813   3.335   1.690  16.980  2.0614  0.1097  1.9109
   6823SM   C5S 8814   3.150   1.575  17.011  0.4291 -0.3111 -0.3936
   6823SM   H5S 8815   3.107   1.504  17.084 -0.9323  0.8557 -0.0204
   6823SM   C6S 8816   3.071   1.607  16.883  0.1998  0.7394  0.1738
   6823SM   H6S 8817   2.990   1.679  16.906 -1.3302 -1.1645  0.9931
   6823SM   H6T 8818   3.028   1.514  16.840  1.7812  0.5086 -1.0075
   6823SM   C7S 8819   3.161   1.657  16.769  0.0987  0.0388 -0.1278
   6823SM   H7S 8820   3.246   1.586  16.760  1.7391  1.8115  0.8154
   6823SM   H7T 8821   3.212   1.754  16.791  1.1374 -0.5700  0.2254
   6823SM   C8S 8822   3.089   1.663  16.628 -0.4136  0.4229 -0.2010
   6823SM   H8S 8823   2.999   1.727  16.614 -1.3873 -0.4678  1.6087
   6823SM   H8T 8824   3.058   1.557  16.619  2.5622 -0.3887 -1.9902
   6823SM   C9S 8825   3.187   1.696  16.515 -0.8161 -0.0296 -0.5741
   6823SM   H9S 8826   3.287   1.650  16.533 -0.5695  1.0221  0.8888
   6823SM   H9T 8827   3.190   1.807  16.518  0.8251 -0.0713  0.3519
   6823SM  C10S 8828   3.145   1.661  16.374  0.2009  0.2975  0.3038
   6823SM  H10S 8829   3.066   1.728  16.334 -1.1582 -1.7156 -0.5149
   6823SM  H10T 8830   3.098   1.561  16.368  0.4395  0.0967  1.5093
   6823SM  C11S 8831   3.269   1.679  16.280  0.4263  0.0033 -0.0389
   6823SM  H11S 8832   3.249   1.632  16.182  0.9971 -0.9519  0.2888
   6823SM  H11T 8833   3.352   1.618  16.323  1.0304  0.3400 -0.7048
   6823SM  C12S 8834   3.304   1.828  16.270  0.0443 -0.0378 -0.0260
   6823SM  H12S 8835   3.338   1.863  16.370  1.5126 -0.9206 -0.1816
   6823SM  H12T 8836   3.217   1.894  16.252  0.8655  1.1381  0.2234
   6823SM  C13S 8837   3.410   1.861  16.162 -0.3713  0.1586  0.1274
   6823SM  H13S 8838   3.378   1.815  16.066  2.1014  0.1478 -0.7465
   6823SM  H13T 8839   3.504   1.809  16.190 -0.1369  0.0872 -0.7537
   6823SM  C14S 8840   3.417   2.012  16.146  0.3888  0.7008  0.3917
   6823SM  H14S 8841   3.453   2.053  16.242  1.5867  0.3192  0.1226
   6823SM  H14T 8842   3.317   2.052  16.120 -0.0434 -0.6019  0.0062
   6823SM  C15S 8843   3.504   2.049  16.023  0.0692 -0.5445 -0.4203
   6823SM  H15S 8844   3.474   1.980  15.942 -2.7426  0.4769 -0.3647
   6823SM  H15T 8845   3.611   2.048  16.052 -0.5326 -2.0577  2.0921
   6823SM  C16S 8846   3.480   2.198  15.985 -0.3173  0.1822  0.5973
   6823SM  H16S 8847   3.516   2.261  16.069 -0.9184  1.9048 -0.4020
   6823SM  H16T 8848   3.372   2.215  15.967 -0.4127 -0.3305  0.6510
   6823SM  C17S 8849   3.553   2.245  15.857  0.1336  0.6193  0.1458
   6823SM  H17S 8850   3.661   2.255  15.881  0.4703 -0.4290 -0.8215
   6823SM  H17T 8851   3.505   2.344  15.840 -2.4410 -0.5197  0.3237
   6823SM  C18S 8852   3.546   2.161  15.736  0.2226  0.5624  0.5898
   6823SM  H18S 8853   3.614   2.073  15.742 -1.3227 -0.7259 -0.1189
   6823SM  H18T 8854   3.577   2.217  15.645  3.6487 -1.0504  0.5988
   6823SM  H18U 8855   3.446   2.117  15.716 -0.0191  2.3524 -2.9041
   6823SM   C1F 8856   3.597   1.380  16.900 -0.4470  0.0912 -0.4017
   6823SM    OF 8857   3.576   1.256  16.915  0.5663  0.0199  0.6617
   6823SM   C2F 8858   3.697   1.437  16.800 -0.2964  0.2742  0.5825
   6823SM   H2F 8859   3.797   1.427  16.848 -1.0625 -0.2607  2.1208
   6823SM   H2G 8860   3.683   1.547  16.789  1.2108  0.6620  2.0218
   6823SM   C3F 8861   3.694   1.365  16.667  0.7474  0.2151  0.2943
   6823SM   H3F 8862   3.684   1.256  16.684 -0.8211 -0.0522 -1.9948
   6823SM   H3G 8863   3.795   1.369  16.620 -0.1837 -1.6236 -2.0679
   6823SM   C4F 8864   3.593   1.422  16.569 -0.0368  0.3124  0.8992
   6823SM   H4F 8865   3.633   1.524  16.551  2.2275 -0.7897 -0.8403
   6823SM   H4G 8866   3.489   1.444  16.600 -0.0074  3.8244 -1.0465
   6823SM   C5F 8867   3.585   1.349  16.430  0.3905 -0.5094  0.2131
   6823SM   H5F 8868   3.541   1.249  16.449 -2.4720  1.0099  2.3846
   6823SM   H5G 8869   3.684   1.341  16.380 -0.3057 -2.3849 -0.9888
   6823SM   C6F 8870   3.484   1.422  16.341 -0.5069  0.1408 -0.2195
   6823SM   H6F 8871   3.534   1.514  16.303 -1.8372 -0.0457 -2.5788
   6823SM   H6G 8872   3.389   1.447  16.392 -0.3046 -2.9416  1.9331
   6823SM   C7F 8873   3.443   1.328  16.230  0.2772  0.1310 -0.0593
   6823SM   H7F 8874   3.355   1.274  16.272  1.7394 -2.9035 -0.6255
   6823SM   H7G 8875   3.523   1.255  16.207  0.7817  0.3568  0.9236
   6823SM   C8F 8876   3.417   1.401  16.100 -0.4179 -0.0081  0.4185
   6823SM   H8F 8877   3.503   1.454  16.055 -0.1541 -1.6645 -1.1649
   6823SM   H8G 8878   3.333   1.471  16.116 -1.2184 -1.1285  1.3249
   6823SM   C9F 8879   3.374   1.302  15.989  0.6691  0.0070 -0.1267
   6823SM   H9F 8880   3.267   1.280  16.009 -0.4960  1.7949 -3.6336
   6823SM   H9G 8881   3.422   1.202  15.990 -0.9393 -0.7923  0.8261
   6823SM  C10F 8882   3.365   1.376  15.851 -0.1970  0.1966 -0.3345
   6823SM  H10F 8883   3.463   1.428  15.841 -0.9010  1.5287 -0.5417
   6823SM  H10G 8884   3.289   1.457  15.847 -1.8778 -1.3442 -1.3707
   6823SM  C11F 8885   3.335   1.275  15.739 -0.3315  0.3149 -0.0295
   6823SM  H11F 8886   3.249   1.210  15.766  0.4484  0.1262  2.2193
   6823SM  H11G 8887   3.425   1.215  15.713 -0.5535  0.3219 -0.8514
   6823SM  C12F 8888   3.302   1.351  15.612 -0.4054 -0.3672  0.1068
   6823SM  H12F 8889   3.331   1.298  15.519 -0.8056  1.5610 -1.1595
   6823SM  H12G 8890   3.363   1.444  15.614  0.8610 -1.1648  2.4455
   6823SM  C13F 8891   3.155   1.383  15.592  0.2429  0.0817  0.0964
   6823SM  H13F 8892   3.119   1.472  15.647  2.3568  0.1854  1.4538
   6823SM  H13G 8893   3.083   1.303  15.619 -0.2876  1.5349  3.5259
   6823SM  C14F 8894   3.130   1.414  15.448 -0.5258 -0.0686 -0.3221
   6823SM  H14F 8895   3.169   1.326  15.391  0.1145  0.0085 -0.0112
   6823SM  H14G 8896   3.200   1.497  15.423  0.8999 -1.0552  0.2702
   6823SM  C15F 8897   2.984   1.442  15.422 -0.2521  0.2235 -0.1346
   6823SM  H15F 8898   2.940   1.533  15.467  0.1956 -0.8037  2.5416
   6823SM  H15G 8899   2.927   1.360  15.470  1.6013 -1.6818 -0.9972
   6823SM  C16F 8900   2.944   1.453  15.274  0.6012  0.5105  0.4062
   6823SM  H16F 8901   2.959   1.359  15.217 -0.5002 -0.5421  1.7712
   6823SM  H16G 8902   3.004   1.539  15.238 -0.1681  1.6671  1.7709
   6823SM  C17F 8903   2.796   1.494  15.248  0.0056  0.4687 -0.3093
   6823SM  H17F 8904   2.764   1.563  15.329  0.1688  1.6810 -1.2398
   6823SM  H17G 8905   2.740   1.400  15.267 -1.0235  0.9551 -0.8239
   6823SM  C18F 8906   2.759   1.530  15.104  0.0191 -0.2370  0.1263
   6823SM  H18F 8907   2.651   1.526  15.080  0.2162  0.9568 -1.0521
   6823SM  H18G 8908   2.804   1.456  15.035 -1.8345  0.5943 -2.0824
   6823SM  C19F 8909   2.805   1.669  15.048  0.5605 -0.2138 -0.9155
   6823SM  H19F 8910   2.916   1.670  15.057  0.6005 -1.4857 -1.1523
   6823SM  H19G 8911   2.752   1.747  15.108 -1.3595 -1.5580 -0.7797
   6823SM  C20F 8912   2.754   1.689  14.903 -0.1310  0.3259  0.2302
   6823SM  H20F 8913   2.746   1.793  14.865  2.9021  0.1076 -1.3735
   6823SM  H20G 8914   2.653   1.644  14.899  0.2879 -0.6121 -0.0001
   6823SM  C21F 8915   2.836   1.610  14.796  0.3867  0.0742 -0.0263
   6823SM  H21F 8916   2.819   1.500  14.801 -2.6569  0.4582  0.3054
   6823SM  H21G 8917   2.944   1.630  14.811 -0.1350  0.9969  3.6706
   6823SM  C22F 8918   2.789   1.643  14.658 -0.8025  0.1314 -0.0266
   6823SM  H22F 8919   2.797   1.753  14.645 -1.3438  0.2809  0.8236
   6823SM  H22G 8920   2.680   1.625  14.659 -0.8878  0.6580  0.3864
   6823SM  C23F 8921   2.869   1.567  14.555  0.1344  0.2436 -0.7825
   6823SM  H23F 8922   2.976   1.596  14.556  0.7698 -1.9019 -0.4700
   6823SM  H23G 8923   2.847   1.590  14.449 -0.1707 -2.7871 -1.4795
   6823SM  H23H 8924   2.860   1.457  14.570  0.6299  0.1903 -0.8681
   6923SM     N 8925   5.675   1.868  17.109 -0.5340 -0.2245  0.3782
   6923SM   C15 8926   5.681   1.858  17.261 -0.4420 -0.0374 -0.0286
   6923SM  H15A 8927   5.713   1.759  17.292  1.8552  0.1080 -1.6368
   6923SM  H15B 8928   5.582   1.873  17.302  0.5998  1.0925  2.2488
   6923SM  H15C 8929   5.741   1.937  17.304 -0.0284  0.2799 -1.1728
   6923SM   C14 8930   5.602   1.738  17.059  0.1453 -0.3103  0.0401
   6923SM  H14A 8931   5.597   1.728  16.951  1.0438 -1.6049  0.0894
   6923SM  H14B 8932   5.505   1.726  17.105  0.8214 -2.8954  0.9579
   6923SM  H14C 8933   5.663   1.651  17.079  0.9329  0.3882  0.7358
   6923SM   C13 8934   5.608   1.993  17.067 -0.2880 -0.3931 -0.1496
   6923SM  H13A 8935   5.517   2.005  17.124  0.0392 -0.2234  0.3502
   6923SM  H13B 8936   5.586   2.003  16.962 -1.6501 -0.3366  0.1250
   6923SM  H13C 8937   5.670   2.080  17.087 -1.1536 -0.1845  1.8334
   6923SM   C12 8938   5.812   1.873  17.044 -0.5196  0.2994  0.6759
   6923SM  H12A 8939   5.803   1.892  16.938  0.0390  0.1035  0.5847
   6923SM  H12B 8940   5.855   1.774  17.054 -0.1823  0.2461 -0.9198
   6923SM   C11 8941   5.921   1.969  17.100 -0.4265 -0.1463  0.6138
   6923SM  H11A 8942   6.016   1.951  17.045 -2.1880 -0.1971 -2.7259
   6923SM  H11B 8943   5.947   1.944  17.205  2.4136  0.6771  0.1908
   6923SM     P 8944   5.974   2.214  17.031  0.1670 -0.4248  0.1471
   6923SM   O13 8945   5.901   2.347  17.047 -0.5792 -0.1746  0.1643
   6923SM   O14 8946   6.118   2.212  17.071 -0.9938 -0.6476  0.4769
   6923SM   O11 8947   5.972   2.179  16.877  0.7431 -0.8476 -0.6814
   6923SM   O12 8948   5.884   2.108  17.103 -0.0907 -0.2424 -0.4807
   6923SM   C1S 8949   5.849   2.198  16.807 -0.1219  0.5560  0.5003
   6923SM   H1S 8950   5.811   2.302  16.813 -0.8768  0.2802  0.5704
   6923SM   H1T 8951   5.783   2.113  16.833  0.4736 -0.8177 -2.0856
   6923SM    NF 8952   5.748   2.212  16.574  0.2389  0.3652 -0.3697
   6923SM   HNF 8953   5.685   2.149  16.528 -0.2826 -0.2278  1.1082
   6923SM   C2S 8954   5.864   2.166  16.653 -0.1697 -0.6653  0.6854
   6923SM   H2S 8955   5.952   2.227  16.623 -1.1385  0.3629 -0.1060
   6923SM   C3S 8956   5.913   2.020  16.628 -0.1707 -0.0988  0.1391
   6923SM   H3S 8957   5.822   1.956  16.631  1.0367 -1.8949  2.7103
   6923SM    O3 8958   5.996   1.960  16.731 -0.0490 -0.2252  0.2477
   6923SM   HO3 8959   5.992   2.027  16.800 -0.5573 -1.5796  1.5833
   6923SM   C4S 8960   5.980   1.997  16.490  0.6573 -0.1331  0.2386
   6923SM   H4S 8961   6.065   2.061  16.462  2.1004 -1.8701  0.4632
   6923SM   C5S 8962   5.935   1.902  16.404 -0.5707  0.2543 -0.7135
   6923SM   H5S 8963   5.847   1.842  16.434 -0.1197  0.2898  0.7857
   6923SM   C6S 8964   5.989   1.875  16.267 -0.7488  0.2092  0.2469
   6923SM   H6S 8965   5.902   1.888  16.200 -0.2248 -2.0026 -0.9370
   6923SM   H6T 8966   6.008   1.766  16.270 -0.2236  0.3130  1.1222
   6923SM   C7S 8967   6.111   1.955  16.214 -0.3725  0.3329 -0.1508
   6923SM   H7S 8968   6.195   1.927  16.281  1.1289 -1.1147 -2.4969
   6923SM   H7T 8969   6.082   2.062  16.223 -0.3070  0.3079  0.3670
   6923SM   C8S 8970   6.151   1.918  16.072 -0.3373  0.3887  0.0726
   6923SM   H8S 8971   6.237   1.983  16.043  0.5335 -1.4684 -1.7611
   6923SM   H8T 8972   6.069   1.942  16.000  1.4627  2.0931 -1.5363
   6923SM   C9S 8973   6.185   1.763  16.055  0.4879 -0.2022 -0.0032
   6923SM   H9S 8974   6.088   1.715  16.079 -0.3377  0.5070 -1.7029
   6923SM   H9T 8975   6.259   1.742  16.135 -0.4427 -0.6253  0.7721
   6923SM  C10S 8976   6.230   1.718  15.923  0.3181 -0.5385  0.7154
   6923SM  H10S 8977   6.337   1.744  15.905  0.4723 -1.4063  0.3349
   6923SM  H10T 8978   6.162   1.743  15.839  2.0551 -2.6737 -1.4810
   6923SM  C11S 8979   6.231   1.563  15.932  0.8075  0.2366  0.5487
   6923SM  H11S 8980   6.127   1.542  15.961 -0.2334  2.4988 -1.1911
   6923SM  H11T 8981   6.285   1.524  16.021  0.2288 -1.7245  0.0845
   6923SM  C12S 8982   6.275   1.483  15.801  0.4119 -0.2984 -0.2130
   6923SM  H12S 8983   6.180   1.451  15.753  0.9483 -0.2489 -1.3451
   6923SM  H12T 8984   6.314   1.389  15.844  0.0752  0.5257  2.0129
   6923SM  C13S 8985   6.384   1.552  15.711 -0.8454  0.1645  0.0462
   6923SM  H13S 8986   6.481   1.555  15.766 -1.1153  1.8485  0.4890
   6923SM  H13T 8987   6.349   1.655  15.690 -0.9644  0.2690  0.7318
   6923SM  C14S 8988   6.401   1.474  15.576  0.2028  0.0483 -0.6328
   6923SM  H14S 8989   6.431   1.369  15.597  2.3780  0.6931 -0.2616
   6923SM  H14T 8990   6.493   1.519  15.533 -0.4476  0.7290 -1.3468
   6923SM  C15S 8991   6.281   1.490  15.478  0.1173  0.2095 -0.5261
   6923SM  H15S 8992   6.253   1.597  15.468 -0.9740 -0.0713 -0.5910
   6923SM  H15T 8993   6.188   1.449  15.525 -0.6810 -1.5555 -3.3913
   6923SM  C16S 8994   6.302   1.411  15.349  0.1604 -0.5283 -0.2132
   6923SM  H16S 8995   6.356   1.320  15.383  0.1403  0.1698  1.8126
   6923SM  H16T 8996   6.367   1.468  15.279  1.2236  1.8004  2.4968
   6923SM  C17S 8997   6.174   1.376  15.275  0.0587  0.6394  0.5938
   6923SM  H17S 8998   6.116   1.470  15.264  0.6928  1.0723  0.9169
   6923SM  H17T 8999   6.122   1.305  15.343 -0.2853 -1.7756 -2.0219
   6923SM  C18S 9000   6.185   1.321  15.134 -0.1694  0.0749 -0.3084
   6923SM  H18S 9001   6.086   1.298  15.089 -0.6676  1.5201 -0.0191
   6923SM  H18T 9002   6.251   1.232  15.143  0.6497  0.5764 -1.1423
   6923SM  H18U 9003   6.235   1.399  15.072 -0.5191 -0.2481 -1.0154
   6923SM   C1F 9004   5.727   2.339  16.547  0.8324  0.4066  0.1170
   6923SM    OF 9005   5.806   2.433  16.567  0.4455  0.0361 -0.1723
   6923SM   C2F 9006   5.601   2.365  16.472  0.0614  1.0908  1.0574
   6923SM   H2F 9007   5.517   2.336  16.539  0.1602 -2.0282 -0.0061
   6923SM   H2G 9008   5.602   2.297  16.384  1.1359 -0.4094  2.1725
   6923SM   C3F 9009   5.584   2.512  16.423 -0.0340 -0.1108  0.4074
   6923SM   H3F 9010   5.679   2.541  16.374 -0.6222 -0.5481 -1.0719
   6923SM   H3G 9011   5.574   2.565  16.520  0.1663 -1.7535  1.3682
   6923SM   C4F 9012   5.473   2.529  16.327 -0.4142 -0.2466 -0.0996
   6923SM   H4F 9013   5.450   2.638  16.322  2.6008  0.6457  2.5095
   6923SM   H4G 9014   5.377   2.493  16.372 -0.8061  1.9264  0.9582
   6923SM   C5F 9015   5.488   2.470  16.185  0.2761 -0.3645 -0.0852
   6923SM   H5F 9016   5.485   2.361  16.206  3.0317 -0.2649  1.2933
   6923SM   H5G 9017   5.580   2.499  16.132 -0.3354  2.5484  0.2728
   6923SM   C6F 9018   5.365   2.505  16.096  0.3446 -0.2189 -0.2594
   6923SM   H6F 9019   5.368   2.614  16.075 -0.5444 -0.2452 -0.5666
   6923SM   H6G 9020   5.267   2.489  16.145 -0.3792  1.5104 -1.0767
   6923SM   C7F 9021   5.357   2.426  15.963  0.1005  0.5201 -0.0881
   6923SM   H7F 9022   5.263   2.459  15.913  1.0325  2.7508 -0.5037
   6923SM   H7G 9023   5.350   2.317  15.980  0.5197 -0.1708 -3.4797
   6923SM   C8F 9024   5.464   2.466  15.861  0.3525  0.1399 -0.4064
   6923SM   H8F 9025   5.437   2.397  15.777  1.2968 -1.2806  0.4257
   6923SM   H8G 9026   5.563   2.447  15.905 -0.1682  0.0899  0.7711
   6923SM   C9F 9027   5.460   2.611  15.820 -0.3856  0.4391  0.6426
   6923SM   H9F 9028   5.476   2.678  15.908 -3.5895  1.3520  0.6815
   6923SM   H9G 9029   5.354   2.627  15.789 -0.3900 -0.1150  0.3732
   6923SM  C10F 9030   5.562   2.639  15.713  0.3875 -0.6059  0.1685
   6923SM  H10F 9031   5.665   2.635  15.756  0.4479 -0.7271  0.0147
   6923SM  H10G 9032   5.549   2.744  15.678  0.9687 -0.3388  0.7204
   6923SM  C11F 9033   5.546   2.561  15.593 -0.3165  0.3579  1.0029
   6923SM  H11F 9034   5.443   2.569  15.550  0.0637  1.9049  0.2937
   6923SM  H11G 9035   5.573   2.455  15.613  1.3909  0.4889 -0.3457
   6923SM  C12F 9036   5.635   2.608  15.480  0.1481  0.1285 -0.2882
   6923SM  H12F 9037   5.645   2.719  15.475  0.0123  0.1611  0.1709
   6923SM  H12G 9038   5.584   2.596  15.381  0.7031  1.2585 -0.7344
   6923SM  C13F 9039   5.776   2.560  15.492  0.0118 -1.0263 -0.4467
   6923SM  H13F 9040   5.795   2.460  15.445 -0.1364 -0.5047 -1.6599
   6923SM  H13G 9041   5.800   2.538  15.598  0.8647 -0.6902 -0.5641
   6923SM  C14F 9042   5.874   2.670  15.443  0.1466  0.4872  0.1445
   6923SM  H14F 9043   5.978   2.659  15.482 -0.5484 -0.5670  1.8369
   6923SM  H14G 9044   5.842   2.768  15.484 -0.0999  0.4311  0.0864
   6923SM  C15F 9045   5.885   2.673  15.287 -0.7248 -0.3924 -0.4665
   6923SM  H15F 9046   5.780   2.677  15.250 -0.6068  0.2125 -0.7347
   6923SM  H15G 9047   5.938   2.580  15.257 -0.2751  0.0596 -1.0992
   6923SM  C16F 9048   5.965   2.803  15.245 -0.0290  0.9087  0.5814
   6923SM  H16F 9049   6.061   2.814  15.300  0.1890  0.3058  0.3172
   6923SM  H16G 9050   5.911   2.897  15.274  0.7043  1.3130  0.6561
   6923SM  C17F 9051   5.997   2.817  15.095 -0.5356  0.3464  0.5093
   6923SM  H17F 9052   5.901   2.790  15.046  0.7558 -0.5299 -1.7036
   6923SM  H17G 9053   6.065   2.730  15.080 -3.1742 -2.0251  1.4581
   6923SM  C18F 9054   6.058   2.953  15.064  0.2112  0.5745 -0.1595
   6923SM  H18F 9055   6.152   2.974  15.120  0.0887  0.8425 -0.0547
   6923SM  H18G 9056   5.988   3.032  15.100  1.3180  1.7417 -0.4792
   6923SM  C19F 9057   6.087   2.971  14.911 -0.0425  0.5063 -0.7581
   6923SM  H19F 9058   5.999   2.941  14.849  0.2628 -2.3509  0.0700
   6923SM  H19G 9059   6.179   2.915  14.885  0.1108  0.8396 -0.9467
   6923SM  C20F 9060   6.089   3.117  14.860  0.3546  0.2268  0.6591
   6923SM  H20F 9061   6.185   3.165  14.890  0.4122  0.4969  0.0450
   6923SM  H20G 9062   5.997   3.154  14.910  0.6824  1.0561  0.6676
   6923SM  C21F 9063   6.075   3.127  14.707  0.2649  0.5668 -0.0760
   6923SM  H21F 9064   5.995   3.060  14.668  1.1241 -1.8051  1.9304
   6923SM  H21G 9065   6.165   3.095  14.651 -0.7448 -1.6256 -0.5513
   6923SM  C22F 9066   6.017   3.259  14.656 -0.1796  0.1432 -0.0363
   6923SM  H22F 9067   5.912   3.263  14.693 -0.3717 -1.9674 -0.2195
   6923SM  H22G 9068   6.006   3.256  14.546  1.8585  2.0177 -0.3496
   6923SM  C23F 9069   6.090   3.379  14.694  0.5563  0.0741  0.8315
   6923SM  H23F 9070   6.194   3.359  14.661  0.0838 -3.0097  0.9423
   6923SM  H23G 9071   6.092   3.393  14.805 -0.3582 -0.8158  0.9780
   6923SM  H23H 9072   6.049   3.472  14.650  0.8195 -0.8734 -1.5526
   7023SM     N 9073   5.664   1.150  17.143  0.1631  0.1760 -0.2060
   7023SM   C15 9074   5.774   1.129  17.046 -0.0316 -0.4278 -0.9496
   7023SM  H15A 9075   5.866   1.166  17.088 -0.8837  1.5012 -0.7092
   7023SM  H15B 9076   5.754   1.178  16.952  0.2879 -1.0606 -1.3578
   7023SM  H15C 9077   5.785   1.024  17.022 -0.1839 -1.0438  1.4057
   7023SM   C14 9078   5.690   1.064  17.262 -0.1521  0.3416 -0.8666
   7023SM  H14A 9079   5.695   0.959  17.236  0.9228 -0.6347  2.6271
   7023SM  H14B 9080   5.610   1.076  17.334  0.4081  0.2229 -0.2093
   7023SM  H14C 9081   5.779   1.083  17.321 -1.5771  1.9024  0.9161
   7023SM   C13 9082   5.655   1.293  17.183 -0.0931 -0.4824  0.4107
   7023SM  H13A 9083   5.559   1.321  17.224 -0.4264  0.5811 -1.0263
   7023SM  H13B 9084   5.673   1.353  17.096 -1.2998 -0.1933  0.3428
   7023SM  H13C 9085   5.733   1.319  17.254 -0.5877  1.2463  0.3734
   7023SM   C12 9086   5.530   1.097  17.081 -0.5220  0.1783  0.1648
   7023SM  H12A 9087   5.547   0.993  17.059 -1.1641  0.5275 -2.2198
   7023SM  H12B 9088   5.504   1.159  16.996  2.2965 -0.4473 -1.2771
   7023SM   C11 9089   5.403   1.106  17.168 -0.2725  0.1255 -0.4188
   7023SM  H11A 9090   5.421   1.043  17.258 -1.1504  0.0383 -0.3019
   7023SM  H11B 9091   5.323   1.048  17.119  1.1321 -1.1897 -1.2575
   7023SM     P 9092   5.248   1.314  17.148  0.1034 -0.0393  0.0766
   7023SM   O13 9093   5.123   1.238  17.140 -0.4083  0.3063 -0.2026
   7023SM   O14 9094   5.236   1.452  17.206 -0.0268  0.0759  0.1777
   7023SM   O11 9095   5.301   1.327  17.001 -0.2913  0.3125  0.1964
   7023SM   O12 9096   5.367   1.237  17.215  0.6120 -0.1059  0.1840
   7023SM   C1S 9097   5.318   1.458  16.936  0.7510 -0.1578 -0.1292
   7023SM   H1S 9098   5.404   1.517  16.975 -0.7727  2.6245 -0.7103
   7023SM   H1T 9099   5.226   1.519  16.947  0.3924 -0.9420  1.5752
   7023SM    NF 9100   5.364   1.571  16.704 -0.2378 -0.6398  0.0726
   7023SM   HNF 9101   5.294   1.612  16.646 -1.1456 -0.3257  1.3305
   7023SM   C2S 9102   5.334   1.446  16.780 -0.0346  1.2162  0.4880
   7023SM   H2S 9103   5.422   1.379  16.769 -0.4296  0.8405 -0.4717
   7023SM   C3S 9104   5.215   1.368  16.719 -0.5505  0.1539 -0.4223
   7023SM   H3S 9105   5.118   1.418  16.741 -0.6988 -0.1570 -0.3676
   7023SM    O3 9106   5.195   1.238  16.768 -0.2448  0.7082  0.0467
   7023SM   HO3 9107   5.276   1.222  16.817  1.3884  2.4011 -1.9245
   7023SM   C4S 9108   5.224   1.355  16.568  0.1640  0.2979 -0.2018
   7023SM   H4S 9109   5.155   1.427  16.521 -0.7420 -0.8696 -0.7006
   7023SM   C5S 9110   5.303   1.282  16.491  0.5403 -0.2418  0.4999
   7023SM   H5S 9111   5.388   1.236  16.543  0.1649 -0.4186  0.9658
   7023SM   C6S 9112   5.304   1.288  16.339 -0.2680  0.4943  0.4446
   7023SM   H6S 9113   5.260   1.189  16.315  1.0106 -0.7064  2.7285
   7023SM   H6T 9114   5.407   1.302  16.300 -0.9643  0.5073 -1.5179
   7023SM   C7S 9115   5.214   1.388  16.272 -0.0512 -0.5223  0.1688
   7023SM   H7S 9116   5.235   1.494  16.299  1.1271 -1.0205  1.2661
   7023SM   H7T 9117   5.108   1.364  16.297 -0.7578  0.5739 -1.5217
   7023SM   C8S 9118   5.218   1.366  16.123 -0.5723 -0.8452 -0.2408
   7023SM   H8S 9119   5.210   1.257  16.104 -0.5454 -1.3542  2.2418
   7023SM   H8T 9120   5.319   1.396  16.087 -0.8384 -1.0364 -1.1651
   7023SM   C9S 9121   5.130   1.451  16.032  0.4205 -0.0464  0.9153
   7023SM   H9S 9122   5.132   1.554  16.074  1.7927 -0.3439  1.6211
   7023SM   H9T 9123   5.022   1.423  16.027  0.2100  0.7697 -3.5433
   7023SM  C10S 9124   5.172   1.439  15.880  0.3896 -0.5731  0.5793
   7023SM  H10S 9125   5.089   1.483  15.820  0.1984 -1.9623 -0.2321
   7023SM  H10T 9126   5.185   1.332  15.851  1.0267  0.0369 -1.5811
   7023SM  C11S 9127   5.302   1.518  15.842  0.9144  0.1361 -0.1287
   7023SM  H11S 9128   5.317   1.504  15.733  1.7239  1.0797 -0.1447
   7023SM  H11T 9129   5.382   1.467  15.899  1.0035 -0.2963 -0.6332
   7023SM  C12S 9130   5.293   1.674  15.855 -0.0299 -0.1691  0.3720
   7023SM  H12S 9131   5.401   1.700  15.848 -0.2935  0.6633 -0.9717
   7023SM  H12T 9132   5.251   1.709  15.951  0.9497 -0.8822  1.0860
   7023SM  C13S 9133   5.206   1.748  15.753  0.1201  0.0788  0.5143
   7023SM  H13S 9134   5.207   1.856  15.778 -2.1232  0.1805  0.3515
   7023SM  H13T 9135   5.101   1.713  15.744  0.3946 -0.3320 -1.6096
   7023SM  C14S 9136   5.264   1.730  15.606  0.3981  0.9941 -0.1926
   7023SM  H14S 9137   5.258   1.621  15.588 -1.1379  1.2862 -1.8210
   7023SM  H14T 9138   5.371   1.761  15.601  1.2515 -1.9089 -1.6720
   7023SM  C15S 9139   5.187   1.798  15.493 -0.5485  0.0816 -0.1997
   7023SM  H15S 9140   5.204   1.907  15.489  1.2062 -0.1707 -0.1202
   7023SM  H15T 9141   5.080   1.791  15.524  0.4294 -0.0830  3.7697
   7023SM  C16S 9142   5.212   1.752  15.349 -0.0801  0.0182 -0.4388
   7023SM  H16S 9143   5.117   1.759  15.292 -0.7064 -2.4961  0.1439
   7023SM  H16T 9144   5.240   1.644  15.349 -0.1844 -0.0090 -0.4251
   7023SM  C17S 9145   5.301   1.837  15.260 -0.4387 -0.2354  0.2060
   7023SM  H17S 9146   5.406   1.842  15.296  0.2145  2.1130 -1.7389
   7023SM  H17T 9147   5.256   1.939  15.259 -0.1955 -0.1094 -1.8858
   7023SM  C18S 9148   5.310   1.776  15.116  0.5453 -0.0012 -0.1034
   7023SM  H18S 9149   5.364   1.847  15.049  0.4235  1.5474  1.3709
   7023SM  H18T 9150   5.204   1.765  15.083  0.4683  1.8996 -0.6078
   7023SM  H18U 9151   5.367   1.681  15.106 -0.6219 -0.8753  1.2354
   7023SM   C1F 9152   5.482   1.627  16.726  0.1514  0.2069 -0.3873
   7023SM    OF 9153   5.566   1.567  16.796 -0.2241  0.0624  0.3721
   7023SM   C2F 9154   5.513   1.752  16.658 -0.0218 -0.5487 -0.4446
   7023SM   H2F 9155   5.588   1.800  16.725  0.4510  0.3335 -1.5624
   7023SM   H2G 9156   5.428   1.820  16.637  0.3322  0.7709  2.0062
   7023SM   C3F 9157   5.593   1.731  16.527 -0.3251 -0.0648 -0.6864
   7023SM   H3F 9158   5.686   1.671  16.539  0.2832  0.7037 -1.4238
   7023SM   H3G 9159   5.618   1.824  16.473  1.1817 -1.2976 -2.2383
   7023SM   C4F 9160   5.500   1.658  16.427 -0.0401  0.2729 -0.1553
   7023SM   H4F 9161   5.408   1.720  16.426 -0.5572 -0.4794 -1.3795
   7023SM   H4G 9162   5.493   1.553  16.462  1.4324  0.3979  0.6167
   7023SM   C5F 9163   5.552   1.663  16.280  0.2142  0.2187 -0.1796
   7023SM   H5F 9164   5.586   1.765  16.254  1.0327  0.4691  1.7074
   7023SM   H5G 9165   5.476   1.629  16.207 -0.5296  1.3420  0.0510
   7023SM   C6F 9166   5.668   1.561  16.256 -0.1410  0.3958  0.7111
   7023SM   H6F 9167   5.644   1.463  16.302 -0.1775 -0.3069 -0.7303
   7023SM   H6G 9168   5.761   1.597  16.306 -0.4678  1.1717  0.7821
   7023SM   C7F 9169   5.694   1.547  16.109  0.0665  1.0012  0.0146
   7023SM   H7F 9170   5.688   1.645  16.058 -3.2694  0.6454 -0.4816
   7023SM   H7G 9171   5.608   1.483  16.078 -0.4448  0.0109  3.1112
   7023SM   C8F 9172   5.816   1.460  16.081 -0.0508  0.4895 -0.0372
   7023SM   H8F 9173   5.836   1.390  16.166 -2.9350  1.9436  2.0180
   7023SM   H8G 9174   5.903   1.528  16.071 -0.5415  0.9833 -1.0490
   7023SM   C9F 9175   5.811   1.375  15.960  0.5746  0.1004  0.2803
   7023SM   H9F 9176   5.727   1.305  15.977 -2.4910  2.6176 -2.7926
   7023SM   H9G 9177   5.895   1.305  15.942 -2.1664 -3.3375 -0.3330
   7023SM  C10F 9178   5.773   1.444  15.822 -0.0169 -0.1251 -0.2773
   7023SM  H10F 9179   5.670   1.485  15.824  0.0622  0.2895 -2.6079
   7023SM  H10G 9180   5.760   1.359  15.752 -0.2233 -0.0234 -0.3632
   7023SM  C11F 9181   5.888   1.536  15.787 -1.0729  0.0103  0.3849
   7023SM  H11F 9182   5.990   1.492  15.781 -0.5623  1.1566  0.4868
   7023SM  H11G 9183   5.881   1.624  15.855  1.1810 -2.1368  3.7397
   7023SM  C12F 9184   5.865   1.592  15.647 -0.0172 -0.1327 -0.1440
   7023SM  H12F 9185   5.763   1.635  15.646  0.3014  0.6307 -0.2163
   7023SM  H12G 9186   5.858   1.510  15.572  1.4888 -0.2871 -0.1516
   7023SM  C13F 9187   5.958   1.701  15.600 -0.6473 -0.3593  0.7863
   7023SM  H13F 9188   6.064   1.685  15.628 -0.5354  0.3261  0.7493
   7023SM  H13G 9189   5.921   1.793  15.648  0.7514  0.2704  0.6855
   7023SM  C14F 9190   5.942   1.721  15.445  0.6182  0.3492 -1.1685
   7023SM  H14F 9191   5.846   1.769  15.418 -0.5266 -1.8255 -1.1663
   7023SM  H14G 9192   5.941   1.617  15.407  0.5458 -0.0930  0.0006
   7023SM  C15F 9193   6.058   1.804  15.382 -0.5472 -0.0497  0.5195
   7023SM  H15F 9194   6.151   1.759  15.421 -0.0141  0.8579  0.3385
   7023SM  H15G 9195   6.063   1.911  15.413  1.8000 -0.2626  1.0501
   7023SM  C16F 9196   6.049   1.789  15.229  0.4683  0.0882  1.0533
   7023SM  H16F 9197   5.979   1.870  15.199 -0.8836 -1.0701  0.9527
   7023SM  H16G 9198   6.000   1.690  15.211  0.2384  0.1840  1.1467
   7023SM  C17F 9199   6.179   1.802  15.150  0.2230  0.2220 -0.0877
   7023SM  H17F 9200   6.247   1.728  15.197 -2.0005 -2.2918 -0.5705
   7023SM  H17G 9201   6.221   1.905  15.149  2.6244 -0.7017 -0.3933
   7023SM  C18F 9202   6.165   1.758  15.002  0.2026  0.1877 -0.2638
   7023SM  H18F 9203   6.085   1.818  14.955 -2.1074 -1.5622  1.2217
   7023SM  H18G 9204   6.140   1.650  14.996  1.2712 -0.3442  2.9179
   7023SM  C19F 9205   6.292   1.761  14.907  0.1691 -0.0582  0.1856
   7023SM  H19F 9206   6.368   1.701  14.961  1.3224 -0.6374 -1.9503
   7023SM  H19G 9207   6.325   1.865  14.883 -1.8147  0.8208  1.0194
   7023SM  C20F 9208   6.251   1.694  14.776  0.0836 -0.1680 -1.2026
   7023SM  H20F 9209   6.174   1.759  14.729 -1.4579 -1.5600 -0.7083
   7023SM  H20G 9210   6.200   1.601  14.808 -0.7183  1.4382  2.7107
   7023SM  C21F 9211   6.370   1.665  14.685  0.4590 -0.6118  0.1272
   7023SM  H21F 9212   6.430   1.579  14.720  1.8386 -0.4817 -1.7732
   7023SM  H21G 9213   6.445   1.746  14.697  0.4374 -0.6758  0.7362
   7023SM  C22F 9214   6.324   1.644  14.542  0.3080 -0.3940  0.4028
   7023SM  H22F 9215   6.405   1.602  14.478 -1.4747 -2.4229 -0.6826
   7023SM  H22G 9216   6.305   1.747  14.506  1.2302  0.2396  1.6758
   7023SM  C23F 9217   6.215   1.550  14.511  0.3833 -0.1236 -0.1750
   7023SM  H23F 9218   6.121   1.568  14.567  1.9120  1.3518  2.0892
   7023SM  H23G 9219   6.252   1.450  14.544  1.6593  0.0124 -1.1337
   7023SM  H23H 9220   6.196   1.565  14.403  1.6905  2.1682 -0.1480
   7123SM     N 9221   5.822   7.047  16.835  0.8131  0.5313  0.0205
   7123SM   C15 9222   5.800   6.985  16.972  0.1123 -0.2186  0.1770
   7123SM  H15A 9223   5.851   6.890  16.982 -0.8225 -0.8113 -0.5584
   7123SM  H15B 9224   5.695   6.969  16.991  0.0243  2.3587  2.5084
   7123SM  H15C 9225   5.837   7.046  17.053 -0.8988  0.0892  0.4174
   7123SM   C14 9226   5.734   7.168  16.823 -0.6909  0.3072  0.0978
   7123SM  H14A 9227   5.631   7.138  16.810 -0.5333 -1.2736  1.9946
   7123SM  H14B 9228   5.775   7.223  16.740  2.4942 -1.5142  0.2674
   7123SM  H14C 9229   5.748   7.228  16.911 -2.4988  2.0090 -0.7144
   7123SM   C13 9230   5.968   7.089  16.830  0.3771 -0.5692 -0.4532
   7123SM  H13A 9231   6.038   7.007  16.831  0.8984 -0.1428 -1.0168
   7123SM  H13B 9232   5.984   7.160  16.910  0.6899 -2.4235  1.1833
   7123SM  H13C 9233   5.993   7.144  16.740  1.1696  0.3644  0.3146
   7123SM   C12 9234   5.787   6.954  16.719  0.2331  0.1480 -0.1615
   7123SM  H12A 9235   5.751   7.009  16.634  0.1672 -2.3008 -1.7910
   7123SM  H12B 9236   5.700   6.900  16.755  0.8860 -0.2383  0.8976
   7123SM   C11 9237   5.889   6.845  16.694  0.7042 -0.1770 -0.0366
   7123SM  H11A 9238   5.973   6.904  16.650 -0.8716  2.7254  0.6231
   7123SM  H11B 9239   5.853   6.786  16.606  2.5718  0.9033 -1.6207
   7123SM     P 9240   6.037   6.703  16.843 -0.2027  0.1919 -0.2979
   7123SM   O13 9241   6.116   6.824  16.890  1.0421  0.0015 -0.5474
   7123SM   O14 9242   6.018   6.599  16.942 -0.0117  1.1471  0.1383
   7123SM   O11 9243   6.104   6.644  16.707 -0.2954  0.3209 -0.1090
   7123SM   O12 9244   5.898   6.758  16.803 -0.3170 -0.0976 -0.5588
   7123SM   C1S 9245   6.084   6.511  16.672 -0.5847  0.0702  0.1519
   7123SM   H1S 9246   5.982   6.470  16.683 -0.9136  0.5994 -0.8055
   7123SM   H1T 9247   6.153   6.434  16.714 -2.6540 -2.5345 -0.9368
   7123SM    NF 9248   6.110   6.353  16.487 -0.8395 -0.4368  0.2003
   7123SM   HNF 9249   6.198   6.308  16.474 -0.1323  0.7470  0.7078
   7123SM   C2S 9250   6.132   6.493  16.525  0.1965  1.5346  0.1989
   7123SM   H2S 9251   6.071   6.556  16.456 -0.6050  0.9975  0.4076
   7123SM   C3S 9252   6.283   6.539  16.504  0.2762 -0.1238  0.2583
   7123SM   H3S 9253   6.348   6.476  16.569 -2.5159 -3.0735  0.4684
   7123SM    O3 9254   6.313   6.672  16.549 -0.5839  0.1840 -0.1493
   7123SM   HO3 9255   6.239   6.684  16.609  0.9258  1.1058  1.5992
   7123SM   C4S 9256   6.329   6.510  16.362  0.1776  0.2965  0.3575
   7123SM   H4S 9257   6.398   6.425  16.365  0.1504  0.2471 -0.2537
   7123SM   C5S 9258   6.307   6.588  16.256 -0.4812  0.3959 -0.0032
   7123SM   H5S 9259   6.251   6.681  16.272  1.2113  1.2775  1.1912
   7123SM   C6S 9260   6.368   6.573  16.120 -1.1082 -0.4273  0.1041
   7123SM   H6S 9261   6.416   6.669  16.091  0.1027 -1.2853 -0.8731
   7123SM   H6T 9262   6.288   6.563  16.044  0.0458 -1.7788 -1.0042
   7123SM   C7S 9263   6.472   6.465  16.094  0.9458  0.0782 -0.1433
   7123SM   H7S 9264   6.423   6.366  16.081  0.0839  0.0232  2.7272
   7123SM   H7T 9265   6.546   6.463  16.177 -0.1753  1.2298  0.9323
   7123SM   C8S 9266   6.559   6.487  15.972  0.8927 -0.2358  1.1528
   7123SM   H8S 9267   6.593   6.593  15.971  0.7111 -0.0430 -3.1741
   7123SM   H8T 9268   6.502   6.485  15.877 -0.6216 -2.4819  2.0335
   7123SM   C9S 9269   6.683   6.393  15.959  0.3585 -0.1720  0.0034
   7123SM   H9S 9270   6.733   6.401  16.058  0.1096 -0.1938  0.1338
   7123SM   H9T 9271   6.754   6.426  15.880  1.0831  0.3491  0.8521
   7123SM  C10S 9272   6.644   6.249  15.931 -0.3695  0.5480 -0.6114
   7123SM  H10S 9273   6.591   6.251  15.834 -1.6291  1.0150  0.0704
   7123SM  H10T 9274   6.574   6.210  16.008  0.5204  1.0568  0.4932
   7123SM  C11S 9275   6.774   6.158  15.914 -0.4261 -0.0339 -0.5932
   7123SM  H11S 9276   6.811   6.147  16.018 -1.3656 -2.6245 -0.4438
   7123SM  H11T 9277   6.852   6.206  15.851  4.2702  0.1514  4.6312
   7123SM  C12S 9278   6.749   6.019  15.857  0.5946 -0.5233  1.0279
   7123SM  H12S 9279   6.657   5.992  15.913 -2.2432  2.0956 -1.9598
   7123SM  H12T 9280   6.830   5.946  15.876 -0.3230 -1.3285  2.0230
   7123SM  C13S 9281   6.729   6.024  15.703  0.5666 -0.1386  0.7860
   7123SM  H13S 9282   6.659   6.102  15.667  0.3497 -0.9075 -0.5367
   7123SM  H13T 9283   6.691   5.927  15.664 -1.0937  1.2673 -1.2837
   7123SM  C14S 9284   6.847   6.067  15.622  0.3160 -0.3530 -0.4283
   7123SM  H14S 9285   6.932   6.012  15.669 -1.6415 -0.6894  3.1071
   7123SM  H14T 9286   6.866   6.176  15.624 -0.0714 -0.2521 -1.6887
   7123SM  C15S 9287   6.826   6.030  15.473  0.3076 -0.1646  0.4093
   7123SM  H15S 9288   6.750   6.091  15.421  0.6739 -0.9280 -1.0824
   7123SM  H15T 9289   6.782   5.928  15.465 -0.6905  0.2346  0.7629
   7123SM  C16S 9290   6.952   6.040  15.382 -0.8419 -0.2227  0.4489
   7123SM  H16S 9291   7.027   5.981  15.440 -0.8230  0.1668  0.8183
   7123SM  H16T 9292   6.978   6.145  15.360 -0.9781 -0.5846 -1.7017
   7123SM  C17S 9293   6.933   5.962  15.255 -0.0388  0.3014 -0.0747
   7123SM  H17S 9294   6.850   5.995  15.189  0.3960 -1.7507 -1.7536
   7123SM  H17T 9295   6.913   5.859  15.292 -1.8335  1.5707  2.9004
   7123SM  C18S 9296   7.065   5.972  15.171 -0.0977 -0.0361 -0.2499
   7123SM  H18S 9297   7.088   6.079  15.152 -2.1438  0.3262 -0.9366
   7123SM  H18T 9298   7.071   5.922  15.072  1.3770  0.8578 -0.6418
   7123SM  H18U 9299   7.148   5.930  15.231  1.3960  2.9583 -0.0582
   7123SM   C1F 9300   5.989   6.302  16.469 -0.3959  0.3154 -0.4621
   7123SM    OF 9301   5.887   6.372  16.483  0.1352 -0.2832 -0.1740
   7123SM   C2F 9302   5.978   6.152  16.437 -0.6461 -0.8459  0.0026
   7123SM   H2F 9303   5.877   6.134  16.395 -0.4076  0.5464 -1.2524
   7123SM   H2G 9304   5.976   6.093  16.531 -1.3852 -0.1457  0.4425
   7123SM   C3F 9305   6.095   6.114  16.345 -0.0840 -0.1164 -0.2453
   7123SM   H3F 9306   6.188   6.112  16.405 -0.2769 -1.0941  0.0503
   7123SM   H3G 9307   6.129   6.184  16.266  0.9583 -0.4172 -0.0730
   7123SM   C4F 9308   6.085   5.976  16.273  0.0343 -0.3430 -0.1645
   7123SM   H4F 9309   5.985   5.971  16.225  0.1401  1.4988 -0.6618
   7123SM   H4G 9310   6.090   5.894  16.348  1.6948 -0.2621 -0.1520
   7123SM   C5F 9311   6.202   5.949  16.177 -0.1960  0.1033  0.7112
   7123SM   H5F 9312   6.186   5.848  16.132 -1.7046  0.0051  1.4160
   7123SM   H5G 9313   6.299   5.938  16.231  0.8513  0.4840 -1.0178
   7123SM   C6F 9314   6.227   6.047  16.070  0.2853 -0.3279  1.3375
   7123SM   H6F 9315   6.256   6.149  16.105 -1.3108  0.1612  1.3118
   7123SM   H6G 9316   6.133   6.073  16.017  0.1683  0.5615  1.9546
   7123SM   C7F 9317   6.331   6.002  15.960  0.0620 -0.1085 -0.8695
   7123SM   H7F 9318   6.435   6.000  15.998 -0.2410  1.9655  0.2335
   7123SM   H7G 9319   6.326   6.083  15.885 -0.6856 -1.2218 -2.0678
   7123SM   C8F 9320   6.291   5.872  15.892 -0.6777  0.0862  0.0351
   7123SM   H8F 9321   6.185   5.855  15.864 -0.1863 -2.8162 -0.4540
   7123SM   H8G 9322   6.322   5.784  15.954  0.4528  1.2205  1.1222
   7123SM   C9F 9323   6.368   5.862  15.762  0.3813 -0.1159 -0.2622
   7123SM   H9F 9324   6.471   5.903  15.763  0.2080  0.3303  0.3354
   7123SM   H9G 9325   6.317   5.928  15.688  0.1901  0.3287  0.2513
   7123SM  C10F 9326   6.385   5.718  15.712  0.2005  0.2093 -0.1260
   7123SM  H10F 9327   6.293   5.661  15.690  0.7502 -1.5983  1.8884
   7123SM  H10G 9328   6.439   5.664  15.793  0.5391 -1.8028 -1.6214
   7123SM  C11F 9329   6.480   5.711  15.592  0.6882 -0.5106 -0.2370
   7123SM  H11F 9330   6.480   5.602  15.570  2.8070 -0.6661  0.3074
   7123SM  H11G 9331   6.582   5.741  15.624 -0.1232  0.0165  1.9994
   7123SM  C12F 9332   6.430   5.782  15.458  0.2510  0.6021  0.5512
   7123SM  H12F 9333   6.445   5.890  15.476 -0.7369  0.7761  0.3814
   7123SM  H12G 9334   6.320   5.767  15.455  0.5501 -2.5957  1.6308
   7123SM  C13F 9335   6.510   5.738  15.336  1.0673 -0.3922 -0.1081
   7123SM  H13F 9336   6.486   5.631  15.316  3.8251 -0.9022 -1.2282
   7123SM  H13G 9337   6.618   5.760  15.351  1.1335 -0.8379  0.0738
   7123SM  C14F 9338   6.456   5.817  15.217  0.0912 -0.4530 -0.5862
   7123SM  H14F 9339   6.460   5.922  15.253  1.2478 -0.8726  0.5925
   7123SM  H14G 9340   6.352   5.777  15.212  0.8491 -2.4787 -1.3286
   7123SM  C15F 9341   6.531   5.798  15.088  0.1726  0.7583 -0.2625
   7123SM  H15F 9342   6.640   5.792  15.107  0.1925  0.0248 -0.5962
   7123SM  H15G 9343   6.503   5.872  15.010  1.6881  0.6593 -0.9401
   7123SM  C16F 9344   6.502   5.659  15.020  0.0483  0.2138 -0.1332
   7123SM  H16F 9345   6.392   5.656  15.004  0.2050 -3.6689 -1.5439
   7123SM  H16G 9346   6.522   5.576  15.091 -1.6413 -0.1036  0.0129
   7123SM  C17F 9347   6.583   5.649  14.889 -0.5581 -0.2329 -0.6476
   7123SM  H17F 9348   6.686   5.663  14.929 -1.1436  0.5297  0.6831
   7123SM  H17G 9349   6.571   5.722  14.806  2.9609  0.3846 -0.7781
   7123SM  C18F 9350   6.578   5.512  14.830  0.2740  0.2765  0.4119
   7123SM  H18F 9351   6.624   5.438  14.899 -1.6579 -2.3364 -0.9321
   7123SM  H18G 9352   6.638   5.511  14.737 -2.7749  1.8130 -1.7736
   7123SM  C19F 9353   6.444   5.465  14.791 -0.0842 -0.3001 -0.1990
   7123SM  H19F 9354   6.401   5.515  14.702  1.8660 -0.9221 -1.5595
   7123SM  H19G 9355   6.373   5.502  14.868  1.2287  2.1959 -0.1002
   7123SM  C20F 9356   6.419   5.314  14.764  0.6557 -0.3928  0.0864
   7123SM  H20F 9357   6.499   5.271  14.699  0.1523  0.3479 -1.0648
   7123SM  H20G 9358   6.322   5.299  14.712  0.3928  1.4205 -0.0359
   7123SM  C21F 9359   6.412   5.231  14.892  0.0039  0.6169 -0.4421
   7123SM  H21F 9360   6.330   5.269  14.957  0.2208  0.7678 -0.2543
   7123SM  H21G 9361   6.505   5.244  14.951 -0.4535  0.3075  0.3537
   7123SM  C22F 9362   6.410   5.084  14.858 -0.7994 -0.2253  0.4027
   7123SM  H22F 9363   6.416   5.025  14.952  3.1609 -0.9204 -0.1360
   7123SM  H22G 9364   6.512   5.063  14.819 -0.9135  0.7618 -0.4669
   7123SM  C23F 9365   6.317   5.028  14.749 -0.3272  0.0041  0.8653
   7123SM  H23F 9366   6.359   5.018  14.647 -1.6342 -1.2241  0.4192
   7123SM  H23G 9367   6.220   5.082  14.750 -0.0007  0.6103  2.8096
   7123SM  H23H 9368   6.298   4.920  14.765 -2.7991  0.3777  0.8187
   7223SM     N 9369   6.318   2.389  16.815 -0.3184 -0.0918  0.0283
   7223SM   C15 9370   6.340   2.412  16.965 -0.6688  0.0616 -0.4284
   7223SM  H15A 9371   6.262   2.360  17.019  1.0842 -0.9459  1.2512
   7223SM  H15B 9372   6.346   2.514  16.999 -2.3526  0.4076 -1.0831
   7223SM  H15C 9373   6.428   2.357  16.996  0.5083  1.8246 -0.4918
   7223SM   C14 9374   6.275   2.251  16.797 -0.7693  0.1196 -0.1319
   7223SM  H14A 9375   6.352   2.182  16.829  0.6425  0.8601 -1.7960
   7223SM  H14B 9376   6.228   2.236  16.700  1.3943  1.8320 -1.5312
   7223SM  H14C 9377   6.198   2.231  16.870 -0.9579 -0.3338 -0.4476
   7223SM   C13 9378   6.203   2.470  16.773 -0.3865  0.2082  0.4804
   7223SM  H13A 9379   6.121   2.452  16.840 -0.3713 -1.0132  0.1963
   7223SM  H13B 9380   6.179   2.444  16.671 -1.1830 -1.1142  0.9833
   7223SM  H13C 9381   6.224   2.576  16.774 -2.0304  0.5670 -0.5308
   7223SM   C12 9382   6.438   2.426  16.724  0.0478  0.0097  0.4050
   7223SM  H12A 9383   6.463   2.529  16.747  1.0402 -0.3069  0.7873
   7223SM  H12B 9384   6.396   2.425  16.625 -1.2451 -0.0002  0.9313
   7223SM   C11 9385   6.569   2.342  16.725  0.2765 -0.2443 -0.3409
   7223SM  H11A 9386   6.638   2.393  16.654 -0.1836  0.4208 -0.3299
   7223SM  H11B 9387   6.548   2.240  16.686 -3.5305  0.7725 -1.4005
   7223SM     P 9388   6.715   2.452  16.905 -0.2302 -0.2865 -0.1839
   7223SM   O13 9389   6.615   2.560  16.905  0.4356 -0.4845 -0.1238
   7223SM   O14 9390   6.772   2.417  17.039  0.0543  0.0349  0.2869
   7223SM   O11 9391   6.825   2.472  16.795  0.3168  0.1464 -0.0892
   7223SM   O12 9392   6.628   2.326  16.852 -0.4989  0.1928 -0.6496
   7223SM   C1S 9393   6.934   2.385  16.762  0.4618  0.1670  0.2689
   7223SM   H1S 9394   6.904   2.281  16.787  1.8953 -0.1195  0.9389
   7223SM   H1T 9395   7.021   2.393  16.831  1.4588 -2.5901 -0.5291
   7223SM    NF 9396   7.034   2.298  16.545 -0.4448  0.3737  0.2128
   7223SM   HNF 9397   7.124   2.319  16.508 -0.0954 -0.1825  0.7408
   7223SM   C2S 9398   6.969   2.409  16.608 -0.2406  0.5316 -0.7538
   7223SM   H2S 9399   6.872   2.439  16.562 -1.2457 -0.1291  0.8332
   7223SM   C3S 9400   7.062   2.538  16.597  0.2504 -0.3455 -0.0501
   7223SM   H3S 9401   7.167   2.515  16.626  0.0068 -1.2174  0.1910
   7223SM    O3 9402   7.013   2.642  16.684  0.0401  0.8686  0.6434
   7223SM   HO3 9403   6.929   2.602  16.709 -0.7160  1.6630 -0.5421
   7223SM   C4S 9404   7.072   2.578  16.460  0.6310  0.3386 -0.6077
   7223SM   H4S 9405   7.158   2.539  16.405 -2.7214 -3.3101 -3.9572
   7223SM   C5S 9406   6.988   2.669  16.394  0.0428  0.1715 -0.2893
   7223SM   H5S 9407   6.912   2.718  16.456 -0.8627 -1.7838  0.2465
   7223SM   C6S 9408   6.992   2.711  16.251 -0.3986  0.2997  0.3548
   7223SM   H6S 9409   6.997   2.822  16.256 -0.3943  0.3201 -0.1033
   7223SM   H6T 9410   6.901   2.685  16.191  0.6042  2.1411 -2.1185
   7223SM   C7S 9411   7.100   2.645  16.163 -0.2734  0.6001  0.2122
   7223SM   H7S 9412   7.103   2.534  16.174 -0.6360  0.6068  0.3940
   7223SM   H7T 9413   7.202   2.681  16.185  1.1648 -1.5430 -2.3913
   7223SM   C8S 9414   7.088   2.666  16.021  0.1957  0.3686  0.1495
   7223SM   H8S 9415   7.003   2.730  15.990 -1.1251 -1.0718  0.6741
   7223SM   H8T 9416   7.077   2.567  15.972  0.3025  1.2446 -1.7452
   7223SM   C9S 9417   7.217   2.730  15.964  0.6989 -0.4861  0.4897
   7223SM   H9S 9418   7.305   2.676  16.004  1.9208 -1.4692 -3.1000
   7223SM   H9T 9419   7.215   2.829  16.015  0.7946 -0.3283  0.1913
   7223SM  C10S 9420   7.217   2.748  15.804  0.0487  0.3561 -0.5158
   7223SM  H10S 9421   7.318   2.782  15.772  1.3640 -3.4397 -0.8890
   7223SM  H10T 9422   7.142   2.824  15.775  0.0634  1.7697  2.6664
   7223SM  C11S 9423   7.200   2.616  15.734  0.0402  0.2142 -1.0600
   7223SM  H11S 9424   7.105   2.562  15.754  1.0884 -1.1429  0.4758
   7223SM  H11T 9425   7.277   2.542  15.762 -2.6864 -2.8025 -0.9178
   7223SM  C12S 9426   7.211   2.638  15.583 -0.3435  0.5422 -0.2955
   7223SM  H12S 9427   7.281   2.724  15.571  1.3269 -0.7241  0.0021
   7223SM  H12T 9428   7.112   2.674  15.548 -0.3201 -0.1819 -1.1219
   7223SM  C13S 9429   7.264   2.511  15.500 -0.3362  0.3859 -0.4468
   7223SM  H13S 9430   7.197   2.428  15.531 -3.2974  2.3310 -1.1931
   7223SM  H13T 9431   7.368   2.487  15.530 -1.1157  0.4827  2.7480
   7223SM  C14S 9432   7.239   2.540  15.344 -0.6756 -0.1821 -0.8441
   7223SM  H14S 9433   7.276   2.644  15.328  0.8178 -0.7131 -1.0079
   7223SM  H14T 9434   7.129   2.541  15.335 -1.0343  0.2441  2.4673
   7223SM  C15S 9435   7.310   2.458  15.235  0.0317  0.0383 -0.8897
   7223SM  H15S 9436   7.258   2.360  15.240  1.7772 -0.8597  1.7813
   7223SM  H15T 9437   7.418   2.451  15.261  0.1626 -0.6503 -1.5952
   7223SM  C16S 9438   7.292   2.512  15.090 -0.1012  0.1272  0.1057
   7223SM  H16S 9439   7.332   2.615  15.076 -1.6700  0.6615 -0.6346
   7223SM  H16T 9440   7.185   2.504  15.061  0.6505 -1.7309 -2.5075
   7223SM  C17S 9441   7.374   2.413  15.008 -0.6115 -0.9263 -0.4969
   7223SM  H17S 9442   7.333   2.314  15.037 -0.8167 -0.0782  2.3890
   7223SM  H17T 9443   7.481   2.424  15.038 -0.4430  0.7190 -1.5673
   7223SM  C18S 9444   7.356   2.429  14.859 -0.2885 -0.6479  0.8052
   7223SM  H18S 9445   7.249   2.413  14.832 -0.6408  0.3598  1.5490
   7223SM  H18T 9446   7.412   2.350  14.805 -1.3403 -0.7420 -0.1995
   7223SM  H18U 9447   7.393   2.526  14.818  1.3288 -0.3606  2.7866
   7223SM   C1F 9448   6.984   2.177  16.526  0.5423 -0.6009  0.2631
   7223SM    OF 9449   6.868   2.158  16.560 -0.1082  0.1332 -0.5655
   7223SM   C2F 9450   7.070   2.076  16.460  0.3655  0.7958 -0.4247
   7223SM   H2F 9451   7.156   2.074  16.530 -0.1653  1.9569  0.3032
   7223SM   H2G 9452   7.101   2.113  16.361 -1.6275  1.1442 -0.9696
   7223SM   C3F 9453   6.992   1.940  16.458 -0.2553  0.6730  0.0032
   7223SM   H3F 9454   6.901   1.947  16.394 -1.1260 -1.7184  0.8643
   7223SM   H3G 9455   6.944   1.913  16.554 -2.8524  1.2061 -1.0535
   7223SM   C4F 9456   7.083   1.815  16.436  0.0270 -0.1199  0.7856
   7223SM   H4F 9457   7.019   1.725  16.452  0.3330 -0.2277  1.4608
   7223SM   H4G 9458   7.162   1.830  16.513 -1.2613  2.7373  1.7287
   7223SM   C5F 9459   7.140   1.822  16.296 -0.4761 -0.7993  0.5371
   7223SM   H5F 9460   7.219   1.899  16.290  1.2019 -2.4928 -0.4394
   7223SM   H5G 9461   7.063   1.849  16.221 -0.9679 -0.5323  1.1314
   7223SM   C6F 9462   7.193   1.687  16.261 -0.0290  0.5988 -0.0772
   7223SM   H6F 9463   7.111   1.613  16.259  0.9659 -0.5882  1.2075
   7223SM   H6G 9464   7.257   1.640  16.338 -0.1576 -1.9261 -1.4291
   7223SM   C7F 9465   7.258   1.676  16.117 -0.7057 -0.6697  0.1109
   7223SM   H7F 9466   7.309   1.578  16.103  0.1493 -0.3969  1.1658
   7223SM   H7G 9467   7.335   1.753  16.098  0.4925 -1.7386  0.5076
   7223SM   C8F 9468   7.148   1.690  16.003 -0.0949  0.2512 -0.0328
   7223SM   H8F 9469   7.180   1.728  15.903 -0.5781 -1.1968 -0.7585
   7223SM   H8G 9470   7.070   1.761  16.038  1.9044  0.9889  3.3637
   7223SM   C9F 9471   7.081   1.557  15.974  0.4897 -0.1211 -0.2186
   7223SM   H9F 9472   7.018   1.591  15.889  1.7090  1.5987 -0.4947
   7223SM   H9G 9473   7.017   1.519  16.056  0.2909 -1.8401 -1.1398
   7223SM  C10F 9474   7.166   1.441  15.910  0.2152 -0.7309  0.0439
   7223SM  H10F 9475   7.091   1.360  15.909 -1.6555  0.9212  0.1035
   7223SM  H10G 9476   7.253   1.411  15.972 -0.0201 -0.1332  0.6733
   7223SM  C11F 9477   7.200   1.461  15.761  0.0887 -0.0138 -0.1697
   7223SM  H11F 9478   7.243   1.562  15.750  1.0128 -0.3749  0.0706
   7223SM  H11G 9479   7.109   1.445  15.699  0.3973  0.2562 -0.7043
   7223SM  C12F 9480   7.320   1.369  15.715 -0.4825  0.0202 -0.7753
   7223SM  H12F 9481   7.372   1.344  15.810 -0.7431  0.2448 -0.5721
   7223SM  H12G 9482   7.390   1.440  15.665  0.1452  1.1711  1.6023
   7223SM  C13F 9483   7.283   1.255  15.630  0.6347  0.4730  0.7248
   7223SM  H13F 9484   7.374   1.195  15.610  0.8827  0.7856  0.9242
   7223SM  H13G 9485   7.232   1.293  15.539 -0.4701 -0.3953  0.9537
   7223SM  C14F 9486   7.179   1.166  15.697  0.1682  0.6176  0.0114
   7223SM  H14F 9487   7.090   1.230  15.713 -0.0193 -0.4090  4.5193
   7223SM  H14G 9488   7.217   1.146  15.800  0.0552  0.7163  0.0731
   7223SM  C15F 9489   7.143   1.041  15.616 -0.0828 -0.4320  0.0419
   7223SM  H15F 9490   7.235   0.988  15.585 -0.4105 -2.7834  2.6983
   7223SM  H15G 9491   7.096   1.063  15.518  1.7415  0.9386 -0.5957
   7223SM  C16F 9492   7.046   0.956  15.702 -0.1447  0.1051  0.4572
   7223SM  H16F 9493   6.956   1.020  15.717  0.0512  0.4802  0.0725
   7223SM  H16G 9494   7.093   0.951  15.802  2.3706  2.0716 -0.4768
   7223SM  C17F 9495   7.009   0.819  15.645 -0.1161 -0.4972  0.8181
   7223SM  H17F 9496   6.961   0.760  15.726  0.4399 -1.8235  0.2278
   7223SM  H17G 9497   7.101   0.763  15.616 -1.1320 -1.2504 -1.1593
   7223SM  C18F 9498   6.926   0.828  15.522  0.2872 -0.0990 -0.2414
   7223SM  H18F 9499   6.978   0.902  15.457 -1.0706  1.2950  0.1969
   7223SM  H18G 9500   6.824   0.867  15.545  0.4581  0.6051 -0.6410
   7223SM  C19F 9501   6.898   0.693  15.447  0.0253 -0.1141  0.0847
   7223SM  H19F 9502   6.801   0.704  15.393  0.0521  1.8665  0.3766
   7223SM  H19G 9503   6.893   0.608  15.519  0.3413 -1.5322 -1.5244
   7223SM  C20F 9504   7.008   0.665  15.341 -0.1236 -0.1815  0.2204
   7223SM  H20F 9505   7.037   0.557  15.337 -0.3154 -0.1991 -1.3189
   7223SM  H20G 9506   7.093   0.731  15.370 -1.0583  1.8921 -1.5138
   7223SM  C21F 9507   6.961   0.695  15.191 -0.6061  0.0662  0.4107
   7223SM  H21F 9508   6.863   0.646  15.173 -0.1640 -1.5615  2.1013
   7223SM  H21G 9509   7.040   0.648  15.130 -1.4657 -1.3479  0.3431
   7223SM  C22F 9510   6.962   0.846  15.171  0.5932  0.5737  0.0786
   7223SM  H22F 9511   7.066   0.879  15.190  1.0118 -0.1037 -0.9545
   7223SM  H22G 9512   6.912   0.894  15.258  1.0448  0.7892  0.2242
   7223SM  C23F 9513   6.907   0.896  15.041 -0.5164  0.5846  0.4413
   7223SM  H23F 9514   6.864   0.998  15.036  1.4973  1.4445 -0.5211
   7223SM  H23G 9515   6.825   0.830  15.004 -1.0863  2.3914 -1.7302
   7223SM  H23H 9516   6.984   0.895  14.961  0.6772  1.2560  1.5337
   7323SM     N 9517   6.247   0.740  17.259  0.4767  0.0729  0.3797
   7323SM   C15 9518   6.211   0.695  17.396  0.1307  0.3866 -0.0696
   7323SM  H15A 9519   6.253   0.757  17.473 -2.0035 -0.0194  1.4996
   7323SM  H15B 9520   6.251   0.597  17.414  1.2509  0.6076 -1.2116
   7323SM  H15C 9521   6.103   0.697  17.401  0.0852 -0.5463 -0.5267
   7323SM   C14 9522   6.395   0.784  17.268 -0.8966 -0.3657 -0.2582
   7323SM  H14A 9523   6.396   0.869  17.334  0.4614 -2.6670  2.9945
   7323SM  H14B 9524   6.439   0.819  17.176  2.5026  2.2263  2.0947
   7323SM  H14C 9525   6.456   0.707  17.315  3.4606  2.1006 -1.3269
   7323SM   C13 9526   6.230   0.619  17.175  0.2137 -0.4915  0.0462
   7323SM  H13A 9527   6.304   0.623  17.095  2.2677  0.2300  1.8861
   7323SM  H13B 9528   6.132   0.612  17.129  0.7756  0.3538 -1.3600
   7323SM  H13C 9529   6.250   0.531  17.234 -0.6179  0.0803  1.2047
   7323SM   C12 9530   6.165   0.858  17.206 -0.5363 -0.6844  0.4550
   7323SM  H12A 9531   6.204   0.885  17.110 -0.7836  4.0973  1.4629
   7323SM  H12B 9532   6.192   0.946  17.263 -0.5108 -0.4005  0.0085
   7323SM   C11 9533   6.014   0.853  17.209  0.0635  0.0414 -0.4076
   7323SM  H11A 9534   5.977   0.944  17.156  1.7731 -1.2664 -4.1575
   7323SM  H11B 9535   5.978   0.858  17.314  0.3759 -0.7426 -0.2567
   7323SM     P 9536   5.848   0.705  17.050  0.4299 -0.0378  0.1394
   7323SM   O13 9537   5.863   0.568  17.000 -0.0283  0.3338 -0.3360
   7323SM   O14 9538   5.711   0.732  17.105  0.8470 -0.1799 -0.5211
   7323SM   O11 9539   5.881   0.807  16.935 -0.4428  0.0727 -0.2914
   7323SM   O12 9540   5.960   0.734  17.156 -0.1378 -0.6021  0.0067
   7323SM   C1S 9541   5.993   0.796  16.838  0.2016  0.1688  0.5483
   7323SM   H1S 9542   6.050   0.701  16.849  0.6684  0.4476  0.5457
   7323SM   H1T 9543   6.063   0.879  16.859 -0.5604  1.1143 -0.5173
   7323SM    NF 9544   6.036   0.757  16.601  0.0062 -0.8401 -0.3391
   7323SM   HNF 9545   6.090   0.832  16.563 -1.5848  0.8093  0.4683
   7323SM   C2S 9546   5.939   0.813  16.691 -0.2675 -0.6295 -0.3986
   7323SM   H2S 9547   5.847   0.752  16.679  0.7753 -2.2870 -0.2120
   7323SM   C3S 9548   5.893   0.957  16.667  0.4130 -0.3261 -0.7011
   7323SM   H3S 9549   5.973   1.026  16.703 -0.1121 -0.8773  1.6492
   7323SM    O3 9550   5.781   0.989  16.752  0.9475  0.2553  0.4970
   7323SM   HO3 9551   5.783   0.920  16.819 -1.4910 -0.4362 -0.0352
   7323SM   C4S 9552   5.871   0.985  16.521 -0.0969 -0.1159  0.5993
   7323SM   H4S 9553   5.949   1.047  16.475 -0.8703  0.7460  0.4312
   7323SM   C5S 9554   5.764   0.954  16.442  0.3265 -0.1880 -0.6198
   7323SM   H5S 9555   5.676   0.907  16.489  0.8500 -1.6946 -1.0908
   7323SM   C6S 9556   5.742   0.989  16.299  0.3718 -0.4488  0.2128
   7323SM   H6S 9557   5.760   0.900  16.234  1.0547 -0.0920 -0.1041
   7323SM   H6T 9558   5.820   1.062  16.267  1.3514 -1.7766 -0.5611
   7323SM   C7S 9559   5.598   1.049  16.267 -0.5925 -0.2031 -0.3310
   7323SM   H7S 9560   5.582   1.136  16.335 -0.4946 -2.3498  2.6294
   7323SM   H7T 9561   5.512   0.984  16.293  0.4308 -1.9303 -1.0835
   7323SM   C8S 9562   5.581   1.089  16.118  0.2495 -0.4473 -0.9883
   7323SM   H8S 9563   5.670   1.149  16.090 -1.1831  2.1150 -0.3197
   7323SM   H8T 9564   5.499   1.164  16.122  0.1440 -0.6036 -0.0007
   7323SM   C9S 9565   5.554   0.968  16.033 -0.2474  0.1438 -0.1717
   7323SM   H9S 9566   5.477   0.897  16.072  1.6790 -2.3265 -0.6120
   7323SM   H9T 9567   5.649   0.911  16.041  0.9687  1.8699 -1.5397
   7323SM  C10S 9568   5.521   1.009  15.892 -0.2035  0.0129 -0.2350
   7323SM  H10S 9569   5.609   1.070  15.864 -1.1410 -0.0710 -3.7796
   7323SM  H10T 9570   5.434   1.077  15.885  0.0840  0.2031 -2.7285
   7323SM  C11S 9571   5.517   0.899  15.800 -0.1175  0.3442  0.2603
   7323SM  H11S 9572   5.415   0.859  15.814 -0.8382  1.4802 -1.4448
   7323SM  H11T 9573   5.593   0.819  15.816  0.2876  0.5259 -0.6514
   7323SM  C12S 9574   5.540   0.937  15.652  0.5821  0.1930  0.1835
   7323SM  H12S 9575   5.476   1.023  15.622  0.8609 -0.2061 -1.7131
   7323SM  H12T 9576   5.489   0.856  15.596 -1.9321  2.5908 -1.2512
   7323SM  C13S 9577   5.687   0.948  15.602  0.3974 -0.1018 -0.6360
   7323SM  H13S 9578   5.748   0.857  15.616  0.6038 -0.0871 -1.4094
   7323SM  H13T 9579   5.733   1.024  15.669 -0.7655  1.0082 -1.0520
   7323SM  C14S 9580   5.696   0.993  15.466 -0.1927  0.0638  0.3705
   7323SM  H14S 9581   5.805   1.001  15.445  0.1196 -1.7662  1.0956
   7323SM  H14T 9582   5.650   1.094  15.454  0.5985  0.2831 -1.1014
   7323SM  C15S 9583   5.654   0.898  15.353 -0.5032  0.7332 -1.3197
   7323SM  H15S 9584   5.546   0.871  15.364 -0.0163 -1.2162 -1.0215
   7323SM  H15T 9585   5.710   0.804  15.335  0.6674  0.9775  0.6702
   7323SM  C16S 9586   5.670   0.965  15.215  0.6880 -0.0941 -0.0286
   7323SM  H16S 9587   5.769   1.016  15.208 -0.0580  1.2345 -1.7595
   7323SM  H16T 9588   5.588   1.039  15.200  0.0891 -0.4717  1.2447
   7323SM  C17S 9589   5.649   0.862  15.099  0.3965  0.2358  0.3786
   7323SM  H17S 9590   5.542   0.836  15.108  0.1733  1.6673  2.5251
   7323SM  H17T 9591   5.714   0.771  15.105  0.1649  0.0364 -0.0759
   7323SM  C18S 9592   5.670   0.926  14.960  0.1753 -0.3109  0.6928
   7323SM  H18S 9593   5.775   0.925  14.924 -0.2110 -0.3282 -0.4712
   7323SM  H18T 9594   5.629   1.029  14.944 -0.7615 -0.4308  2.1166
   7323SM  H18U 9595   5.621   0.859  14.886  0.1062  1.1844 -0.6710
   7323SM   C1F 9596   6.053   0.627  16.586 -0.0243  0.2242  0.5252
   7323SM    OF 9597   5.982   0.547  16.648 -0.3355 -0.2256 -0.1606
   7323SM   C2F 9598   6.161   0.590  16.497 -0.4995  0.4746 -0.1476
   7323SM   H2F 9599   6.232   0.540  16.566  0.6058 -2.2425 -2.9971
   7323SM   H2G 9600   6.206   0.683  16.456 -0.0555 -0.0593 -0.9167
   7323SM   C3F 9601   6.115   0.490  16.389 -0.5882 -0.1689 -0.1974
   7323SM   H3F 9602   6.022   0.529  16.341  0.6535  2.7064 -0.4749
   7323SM   H3G 9603   6.098   0.392  16.438  0.1602 -0.1656  0.0801
   7323SM   C4F 9604   6.223   0.471  16.277 -0.5565 -0.6360 -0.1813
   7323SM   H4F 9605   6.181   0.378  16.232  0.7967 -1.3485 -0.0449
   7323SM   H4G 9606   6.320   0.443  16.324 -0.1377 -0.6690 -1.0394
   7323SM   C5F 9607   6.226   0.588  16.181 -0.1016  0.1690 -0.0941
   7323SM   H5F 9608   6.262   0.680  16.234  1.6926  0.6843 -2.0794
   7323SM   H5G 9609   6.124   0.614  16.148  0.2019  3.3319  1.0434
   7323SM   C6F 9610   6.305   0.569  16.060 -0.3911 -0.4560 -0.0322
   7323SM   H6F 9611   6.413   0.568  16.086 -0.5360  2.1312  0.9716
   7323SM   H6G 9612   6.284   0.661  16.002  1.5003  0.4056  0.5818
   7323SM   C7F 9613   6.286   0.436  15.987  0.2159 -0.2812  0.1608
   7323SM   H7F 9614   6.178   0.431  15.961 -0.1275  0.1256  1.4528
   7323SM   H7G 9615   6.304   0.338  16.037  0.1812 -0.7227 -0.6676
   7323SM   C8F 9616   6.372   0.432  15.858  0.2542  0.2729  0.2265
   7323SM   H8F 9617   6.480   0.442  15.880  0.0896  2.2893  0.2806
   7323SM   H8G 9618   6.342   0.517  15.793  1.5390  1.3408  0.9933
   7323SM   C9F 9619   6.356   0.295  15.785  0.3707 -0.3645  0.4136
   7323SM   H9F 9620   6.246   0.280  15.781  0.2209  0.8579 -1.3475
   7323SM   H9G 9621   6.403   0.213  15.843  0.7992 -0.6679 -0.3558
   7323SM  C10F 9622   6.399   0.289  15.639 -0.0310 -0.5587  0.7626
   7323SM  H10F 9623   6.356   0.375  15.583  1.3663 -0.9633 -1.0083
   7323SM  H10G 9624   6.356   0.192  15.604  1.3764 -1.6390  1.9121
   7323SM  C11F 9625   6.555   0.295  15.633  0.4271 -0.4135  0.1789
   7323SM  H11F 9626   6.600   0.223  15.705  1.3537  0.6519  0.6914
   7323SM  H11G 9627   6.586   0.397  15.661 -1.7603  0.1651  0.7084
   7323SM  C12F 9628   6.616   0.288  15.493 -0.7499 -0.3562  0.2938
   7323SM  H12F 9629   6.703   0.356  15.491 -1.1958  0.2188  0.0122
   7323SM  H12G 9630   6.551   0.342  15.420  2.1258  1.0497 -1.3890
   7323SM  C13F 9631   6.653   0.146  15.449  0.6827 -0.1051 -0.2439
   7323SM  H13F 9632   6.570   0.075  15.431  0.0387  0.3743  0.7574
   7323SM  H13G 9633   6.717   0.109  15.532  0.7791  0.1984 -0.1779
   7323SM  C14F 9634   6.738   0.154  15.323 -0.4577  0.4689  0.6630
   7323SM  H14F 9635   6.818   0.232  15.327  0.0270  0.0488 -0.4715
   7323SM  H14G 9636   6.684   0.174  15.228  2.4462  1.4315 -0.9201
   7323SM  C15F 9637   6.824   0.026  15.324 -0.0930  0.1017  0.1862
   7323SM  H15F 9638   6.776  -0.066  15.286  1.3502 -0.0180 -1.4357
   7323SM  H15G 9639   6.850  -0.003  15.428 -0.4233 -1.2644 -0.0954
   7323SM  C16F 9640   6.954   0.029  15.231 -0.0983 -0.0945 -0.2063
   7323SM  H16F 9641   7.020   0.116  15.246 -0.9618  1.0329 -2.4703
   7323SM  H16G 9642   6.910   0.046  15.130 -0.8942 -0.1597  0.1203
   7323SM  C17F 9643   7.031  -0.104  15.241 -0.4004  0.2992 -0.2220
   7323SM  H17F 9644   6.972  -0.196  15.220  1.3828 -0.6732 -1.1812
   7323SM  H17G 9645   7.063  -0.116  15.347 -1.6316 -2.4139 -0.0700
   7323SM  C18F 9646   7.147  -0.115  15.156  0.4098 -0.4734  0.1658
   7323SM  H18F 9647   7.202  -0.204  15.194  0.1567 -0.1789  1.2443
   7323SM  H18G 9648   7.195  -0.014  15.160 -1.1126  0.2218  2.3862
   7323SM  C19F 9649   7.111  -0.139  15.003 -0.8067 -0.5046  0.0415
   7323SM  H19F 9650   7.198  -0.138  14.934 -0.9740 -0.9734 -0.1798
   7323SM  H19G 9651   7.035  -0.065  14.970  0.8551  1.1625 -0.2495
   7323SM  C20F 9652   7.056  -0.277  14.972 -0.2189  0.2825 -0.0936
   7323SM  H20F 9653   6.956  -0.289  15.020 -0.3023  1.8230  0.1718
   7323SM  H20G 9654   7.118  -0.351  15.026 -1.9702 -0.2766  1.2371
   7323SM  C21F 9655   7.052  -0.315  14.825  0.2303 -0.0556 -0.5477
   7323SM  H21F 9656   7.143  -0.272  14.777  0.2366 -0.4208 -0.8695
   7323SM  H21G 9657   6.962  -0.272  14.777  0.0551  0.2498  0.0472
   7323SM  C22F 9658   7.058  -0.465  14.802  0.5003 -0.3126 -0.0235
   7323SM  H22F 9659   6.964  -0.511  14.766 -0.6308  2.4230 -0.8503
   7323SM  H22G 9660   7.090  -0.518  14.894 -0.3253 -0.1262  0.3755
   7323SM  C23F 9661   7.164  -0.502  14.694  0.0106 -0.9189  0.7149
   7323SM  H23F 9662   7.147  -0.603  14.650  4.5351 -0.8847 -1.7380
   7323SM  H23G 9663   7.261  -0.494  14.747 -1.0520 -0.9873  2.7846
   7323SM  H23H 9664   7.167  -0.426  14.613 -1.5668 -0.9791  0.5698
   7423SM     N 9665   2.154   4.530  17.049  0.7569  0.1100 -0.0668
   7423SM   C15 9666   2.237   4.443  17.139 -0.4649  0.0555  0.7128
   7423SM  H15A 9667   2.331   4.416  17.093 -1.2183 -0.0267 -0.8635
   7423SM  H15B 9668   2.190   4.355  17.179 -0.6532  0.1547  0.7119
   7423SM  H15C 9669   2.263   4.494  17.230 -0.1801 -0.8363  1.1448
   7423SM   C14 9670   2.042   4.568  17.144  0.2472 -0.1604  0.3411
   7423SM  H14A 9671   2.081   4.626  17.227  1.2922 -2.0524  1.2337
   7423SM  H14B 9672   2.002   4.478  17.188 -2.6216  1.8290  2.1231
   7423SM  H14C 9673   1.965   4.619  17.089 -0.8432 -2.6171 -0.5515
   7423SM   C13 9674   2.241   4.647  17.007 -0.3836 -0.0020  0.5127
   7423SM  H13A 9675   2.337   4.616  16.968 -1.1831 -1.1879 -0.6171
   7423SM  H13B 9676   2.249   4.715  17.090 -0.0315 -1.7474  1.9603
   7423SM  H13C 9677   2.200   4.700  16.922  2.3525  1.5927  0.0469
   7423SM   C12 9678   2.096   4.471  16.924  0.4806  0.3602 -0.2095
   7423SM  H12A 9679   2.175   4.442  16.856 -0.5716  0.3337 -1.4538
   7423SM  H12B 9680   2.032   4.537  16.867  1.7670  1.2654 -0.6576
   7423SM   C11 9681   2.011   4.345  16.954  0.4874  0.0005  0.1633
   7423SM  H11A 9682   2.061   4.284  17.032 -0.3747 -0.4535  0.3729
   7423SM  H11B 9683   2.006   4.276  16.867 -1.5141 -3.6627  2.9058
   7423SM     P 9684   1.782   4.278  17.065 -0.2390 -0.0220 -0.1320
   7423SM   O13 9685   1.846   4.147  17.077  0.0853  0.0031 -0.2058
   7423SM   O14 9686   1.744   4.341  17.196  0.3831 -0.1618 -0.0538
   7423SM   O11 9687   1.669   4.282  16.957  0.1765 -0.2436 -0.3177
   7423SM   O12 9688   1.883   4.385  17.001  0.4981  0.3688 -0.2649
   7423SM   C1S 9689   1.593   4.394  16.912 -0.7640  0.5805  0.0638
   7423SM   H1S 9690   1.662   4.477  16.884  0.5283 -0.5445 -0.2306
   7423SM   H1T 9691   1.514   4.417  16.986  0.6926 -0.5875  2.0949
   7423SM    NF 9692   1.448   4.478  16.734  0.2827  0.3407 -0.0473
   7423SM   HNF 9693   1.349   4.468  16.741  0.0554  2.6176  0.8584
   7423SM   C2S 9694   1.524   4.363  16.776 -0.5978  0.3672 -0.2443
   7423SM   H2S 9695   1.601   4.340  16.699  0.4737 -1.4845  1.2917
   7423SM   C3S 9696   1.441   4.232  16.779 -0.3733  1.1165 -0.3902
   7423SM   H3S 9697   1.357   4.244  16.850  0.0979 -0.9865  0.6289
   7423SM    O3 9698   1.509   4.118  16.834  0.2371 -0.0070 -0.5428
   7423SM   HO3 9699   1.576   4.163  16.886 -0.2757 -1.6208  1.7040
   7423SM   C4S 9700   1.390   4.190  16.644 -0.3093  0.0055 -0.0626
   7423SM   H4S 9701   1.287   4.225  16.634  0.3307  2.2943  0.7590
   7423SM   C5S 9702   1.447   4.108  16.557 -0.8499 -0.2998 -0.1768
   7423SM   H5S 9703   1.545   4.065  16.581 -0.6373 -0.1729 -0.7997
   7423SM   C6S 9704   1.393   4.056  16.427  0.4773  0.0176 -0.2677
   7423SM   H6S 9705   1.442   3.961  16.398 -2.3044 -1.2784 -0.9891
   7423SM   H6T 9706   1.425   4.117  16.340  4.6794 -1.4834 -0.0165
   7423SM   C7S 9707   1.241   4.045  16.408 -0.0868  0.1642 -0.4763
   7423SM   H7S 9708   1.215   4.151  16.387  0.5476 -0.3004 -4.2397
   7423SM   H7T 9709   1.195   4.016  16.505  1.4205 -0.4105  0.1073
   7423SM   C8S 9710   1.200   3.951  16.296 -0.5131  0.3623  0.2480
   7423SM   H8S 9711   1.093   3.927  16.315 -0.4934  0.6295  0.7067
   7423SM   H8T 9712   1.247   3.853  16.317 -0.3421  0.5605  0.8011
   7423SM   C9S 9713   1.236   3.996  16.158 -0.0594 -0.2112 -0.3745
   7423SM   H9S 9714   1.347   3.991  16.148  0.1730 -1.8352  2.1000
   7423SM   H9T 9715   1.196   4.097  16.133  0.1774 -0.1459 -0.4896
   7423SM  C10S 9716   1.173   3.906  16.054 -0.3100  0.2046  0.4769
   7423SM  H10S 9717   1.062   3.893  16.053 -0.0917 -1.9031 -0.5180
   7423SM  H10T 9718   1.212   3.803  16.071 -2.9564 -1.1339 -0.8946
   7423SM  C11S 9719   1.213   3.939  15.906  0.5078  0.0797 -0.3184
   7423SM  H11S 9720   1.321   3.918  15.912  0.8479  1.8012  0.3803
   7423SM  H11T 9721   1.205   4.048  15.886 -2.2741 -0.2594 -1.5925
   7423SM  C12S 9722   1.133   3.861  15.798  0.0807 -0.1313 -0.3846
   7423SM  H12S 9723   1.026   3.891  15.811 -0.1267 -0.8101 -0.4826
   7423SM  H12T 9724   1.139   3.751  15.811  1.1274  0.2095  2.5819
   7423SM  C13S 9725   1.168   3.896  15.658  0.2537  0.8032  0.3199
   7423SM  H13S 9726   1.277   3.875  15.646  0.3617  1.4552  0.1402
   7423SM  H13T 9727   1.160   4.005  15.640 -2.4939  0.8557  1.4276
   7423SM  C14S 9728   1.110   3.805  15.551 -0.0354 -0.8311  0.5519
   7423SM  H14S 9729   1.000   3.823  15.551 -0.0374 -0.3747 -2.6866
   7423SM  H14T 9730   1.145   3.703  15.577  0.6294 -0.7435  0.0190
   7423SM  C15S 9731   1.162   3.832  15.412  0.1404  0.0217 -0.0389
   7423SM  H15S 9732   1.262   3.880  15.407  0.4797 -0.7377 -0.8073
   7423SM  H15T 9733   1.091   3.908  15.373 -0.7292  0.5076  2.3142
   7423SM  C16S 9734   1.159   3.708  15.329  0.0879  0.1727  0.6689
   7423SM  H16S 9735   1.054   3.672  15.323 -0.0921  0.4475  1.9617
   7423SM  H16T 9736   1.220   3.632  15.382 -1.7940 -1.1949  0.9921
   7423SM  C17S 9737   1.199   3.737  15.187 -1.1281 -0.0837 -0.9498
   7423SM  H17S 9738   1.300   3.782  15.182  0.0139 -2.2541  0.7745
   7423SM  H17T 9739   1.129   3.816  15.151 -0.7110  0.0121 -1.5642
   7423SM  C18S 9740   1.182   3.615  15.093 -0.2264  0.3868 -0.0023
   7423SM  H18S 9741   1.118   3.645  15.008 -1.2011 -0.5419  0.3706
   7423SM  H18T 9742   1.141   3.517  15.127  2.0472  0.0067  1.9809
   7423SM  H18U 9743   1.288   3.591  15.071  0.6950  4.8098 -1.3184
   7423SM   C1F 9744   1.503   4.593  16.696 -0.1671 -0.1184  0.2958
   7423SM    OF 9745   1.619   4.617  16.689 -0.3527  0.2890  0.1027
   7423SM   C2F 9746   1.402   4.699  16.647 -0.2910  0.0044 -0.5445
   7423SM   H2F 9747   1.440   4.801  16.670  0.3543 -0.2943 -0.2629
   7423SM   H2G 9748   1.314   4.677  16.711  0.7865  0.8505  1.3124
   7423SM   C3F 9749   1.389   4.704  16.494 -0.3786  0.5049  0.3963
   7423SM   H3F 9750   1.494   4.701  16.457 -0.3723 -3.9990  0.2374
   7423SM   H3G 9751   1.334   4.793  16.457  1.4442  0.8689 -1.6853
   7423SM   C4F 9752   1.325   4.587  16.421  0.2296 -0.0514 -0.1256
   7423SM   H4F 9753   1.225   4.578  16.469  0.8936  1.4741  1.6726
   7423SM   H4G 9754   1.380   4.493  16.440 -0.1018 -0.3966 -0.8405
   7423SM   C5F 9755   1.306   4.610  16.272 -0.3133  0.3883 -0.1438
   7423SM   H5F 9756   1.409   4.619  16.230  0.3664 -0.6836  1.1889
   7423SM   H5G 9757   1.257   4.710  16.268  0.8062  1.0669  1.4748
   7423SM   C6F 9758   1.231   4.503  16.198 -0.8276  0.2942 -0.6123
   7423SM   H6F 9759   1.124   4.501  16.227 -1.1347  2.3519 -1.4000
   7423SM   H6G 9760   1.268   4.400  16.214 -1.0336  0.4772  1.1956
   7423SM   C7F 9761   1.230   4.529  16.048 -0.0090 -0.0271  0.6211
   7423SM   H7F 9762   1.336   4.543  16.019 -0.0526 -0.9545 -0.0063
   7423SM   H7G 9763   1.176   4.626  16.037 -1.9011 -0.8715  1.9980
   7423SM   C8F 9764   1.165   4.409  15.971 -0.7748  0.0366  0.1342
   7423SM   H8F 9765   1.060   4.395  16.004 -0.6516 -1.2319  0.0249
   7423SM   H8G 9766   1.224   4.326  16.015 -1.1350  1.4431  3.6389
   7423SM   C9F 9767   1.174   4.420  15.814 -0.2437  0.0940  0.2645
   7423SM   H9F 9768   1.283   4.416  15.792 -0.1828  1.6122  0.1869
   7423SM   H9G 9769   1.137   4.520  15.783 -1.1649 -0.6330 -1.0336
   7423SM  C10F 9770   1.089   4.317  15.752 -0.1421 -0.4760 -0.0765
   7423SM  H10F 9771   0.982   4.335  15.776 -0.2384  1.9773 -1.9039
   7423SM  H10G 9772   1.123   4.219  15.792  0.5114 -0.6431 -0.9928
   7423SM  C11F 9773   1.101   4.319  15.600 -0.0701  0.0490  0.0349
   7423SM  H11F 9774   1.057   4.414  15.562 -0.7648 -0.6574 -0.9978
   7423SM  H11G 9775   1.034   4.235  15.570 -0.5267  1.2465 -2.5943
   7423SM  C12F 9776   1.243   4.297  15.557  0.2144 -0.0801 -0.2440
   7423SM  H12F 9777   1.284   4.208  15.609  0.3458  0.6420  0.9452
   7423SM  H12G 9778   1.311   4.382  15.582 -1.0484  0.0674  3.3159
   7423SM  C13F 9779   1.235   4.267  15.409  0.2972 -0.2487 -0.1604
   7423SM  H13F 9780   1.164   4.182  15.401  1.0152 -0.9210  0.4275
   7423SM  H13G 9781   1.333   4.229  15.374 -0.4891 -0.1652 -2.5783
   7423SM  C14F 9782   1.192   4.384  15.313  0.3459  0.0265 -0.8091
   7423SM  H14F 9783   1.263   4.465  15.343 -1.3711  0.5830  2.2274
   7423SM  H14G 9784   1.087   4.416  15.332  0.5608  0.9233 -1.0898
   7423SM  C15F 9785   1.204   4.350  15.169 -0.3165  0.4850  0.5971
   7423SM  H15F 9786   1.299   4.294  15.152 -0.9288 -0.6725  0.9205
   7423SM  H15G 9787   1.199   4.443  15.108 -0.2350  0.0879 -0.0206
   7423SM  C16F 9788   1.090   4.259  15.113 -0.1088 -0.7990  0.7365
   7423SM  H16F 9789   0.993   4.309  15.133  0.0039 -0.8823  1.4942
   7423SM  H16G 9790   1.106   4.167  15.173 -1.7273 -1.5197  0.1164
   7423SM  C17F 9791   1.091   4.238  14.959  0.1877  0.0017 -0.2798
   7423SM  H17F 9792   1.071   4.331  14.901 -1.0328  0.4085  0.7440
   7423SM  H17G 9793   1.006   4.169  14.940  0.2833 -0.2089  0.0465
   7423SM  C18F 9794   1.225   4.171  14.920  0.0310 -0.2374  0.5019
   7423SM  H18F 9795   1.247   4.077  14.976  2.7007 -1.7202 -2.7019
   7423SM  H18G 9796   1.316   4.234  14.926  1.2107 -1.7049 -1.0729
   7423SM  C19F 9797   1.218   4.111  14.782 -0.2791  0.0428  0.6809
   7423SM  H19F 9798   1.230   4.191  14.705 -0.0537 -0.2069  0.4566
   7423SM  H19G 9799   1.121   4.059  14.769 -1.0389  1.6123 -0.2790
   7423SM  C20F 9800   1.329   4.004  14.756 -0.5179  0.1411 -1.1481
   7423SM  H20F 9801   1.329   3.976  14.649  2.5568  1.3921 -1.5732
   7423SM  H20G 9802   1.306   3.905  14.801 -1.4868 -0.6453 -3.2485
   7423SM  C21F 9803   1.475   4.047  14.801 -0.2286 -0.6266  0.1560
   7423SM  H21F 9804   1.491   4.042  14.911  0.3050  0.4015  0.1398
   7423SM  H21G 9805   1.492   4.155  14.783  1.3666 -0.4502  2.3762
   7423SM  C22F 9806   1.579   3.952  14.736  0.0261  0.6098 -0.5525
   7423SM  H22F 9807   1.546   3.962  14.630 -1.1711  0.8308 -0.1839
   7423SM  H22G 9808   1.564   3.849  14.773  1.6101  1.5016  2.9773
   7423SM  C23F 9809   1.722   4.000  14.761 -0.3032 -0.0472  0.0099
   7423SM  H23F 9810   1.743   4.000  14.870  1.0674  1.6272 -0.2131
   7423SM  H23G 9811   1.744   4.106  14.736 -0.2914 -0.0355  0.0710
   7423SM  H23H 9812   1.796   3.941  14.702 -0.1202 -2.2688  2.2624
   7523SM     N 9813   7.499   4.665  17.117 -0.0436  0.1650  0.6397
   7523SM   C15 9814   7.455   4.536  17.163  0.0735 -0.4012 -0.1772
   7523SM  H15A 9815   7.402   4.541  17.257 -1.1464  1.1206 -0.8847
   7523SM  H15B 9816   7.541   4.474  17.183  0.3288  0.2572  0.8985
   7523SM  H15C 9817   7.381   4.486  17.103 -1.3103 -1.7339  2.4812
   7523SM   C14 9818   7.384   4.758  17.115  0.2160 -0.1108  0.0403
   7523SM  H14A 9819   7.398   4.850  17.059 -0.6355 -0.1990 -0.3293
   7523SM  H14B 9820   7.356   4.805  17.209 -1.8663  0.2964 -0.7131
   7523SM  H14C 9821   7.298   4.704  17.079 -0.7445  0.5801  1.1894
   7523SM   C13 9822   7.599   4.706  17.224 -0.3656  0.2804  0.0025
   7523SM  H13A 9823   7.687   4.651  17.193 -1.3607 -1.3614  0.0203
   7523SM  H13B 9824   7.557   4.684  17.320  1.6787  1.1141  1.1584
   7523SM  H13C 9825   7.619   4.812  17.219 -1.2174  0.4779  0.5990
   7523SM   C12 9826   7.575   4.652  16.980  0.4806 -0.4591  0.0314
   7523SM  H12A 9827   7.498   4.642  16.905 -0.4743  0.2030  0.8837
   7523SM  H12B 9828   7.631   4.561  16.995  0.9536  0.1439  2.3771
   7523SM   C11 9829   7.670   4.763  16.934 -0.5103 -0.8564  0.4681
   7523SM  H11A 9830   7.603   4.851  16.929  0.1960 -0.3644 -0.7559
   7523SM  H11B 9831   7.686   4.738  16.827 -2.2119 -1.0775  0.2403
   7523SM     P 9832   7.883   4.913  16.977  0.0056 -0.2194  0.4922
   7523SM   O13 9833   7.819   5.025  17.044 -0.3562 -0.3569  0.1717
   7523SM   O14 9834   8.019   4.866  17.017  0.1428  0.8620 -0.3100
   7523SM   O11 9835   7.861   4.936  16.819 -0.2925  0.0658 -0.2393
   7523SM   O12 9836   7.787   4.788  17.003  0.2600  1.0761 -0.4022
   7523SM   C1S 9837   7.934   4.874  16.713  0.7581 -0.1381  0.2623
   7523SM   H1S 9838   7.959   4.768  16.734 -1.8831 -0.8680  0.0792
   7523SM   H1T 9839   8.029   4.930  16.694 -0.0843  0.8143 -1.4763
   7523SM    NF 9840   7.917   4.812  16.463  0.2672 -0.0679  0.7083
   7523SM   HNF 9841   7.961   4.876  16.401 -1.2590  0.5485  0.2155
   7523SM   C2S 9842   7.859   4.884  16.581 -0.6064  0.0866  0.3431
   7523SM   H2S 9843   7.764   4.833  16.608 -1.3759  1.1736 -0.2233
   7523SM   C3S 9844   7.812   5.038  16.548 -0.5779  0.7856 -0.5187
   7523SM   H3S 9845   7.900   5.106  16.547 -0.4431  0.6536  0.5847
   7523SM    O3 9846   7.725   5.089  16.644 -0.0157  0.3032 -0.6002
   7523SM   HO3 9847   7.737   5.028  16.718  0.5417  0.2807 -0.7076
   7523SM   C4S 9848   7.734   5.033  16.424 -0.8758 -0.0869  0.3211
   7523SM   H4S 9849   7.651   4.961  16.426 -1.9236  1.0858  0.3838
   7523SM   C5S 9850   7.750   5.105  16.304 -0.4389  0.6040 -0.6200
   7523SM   H5S 9851   7.835   5.175  16.292  0.7407 -0.8656 -1.0708
   7523SM   C6S 9852   7.672   5.100  16.173  0.2305  0.6207 -0.2375
   7523SM   H6S 9853   7.749   5.095  16.093 -0.2677 -2.6098 -0.6504
   7523SM   H6T 9854   7.598   5.182  16.166 -1.7764 -0.8055  2.3202
   7523SM   C7S 9855   7.581   4.970  16.144 -0.0415  0.5768  0.3079
   7523SM   H7S 9856   7.503   4.949  16.221 -1.6518  0.3487 -1.3211
   7523SM   H7T 9857   7.657   4.889  16.143  0.0681  0.6891 -0.4092
   7523SM   C8S 9858   7.514   4.983  16.009  0.1007 -0.4500 -0.2646
   7523SM   H8S 9859   7.591   5.038  15.952  1.8746 -0.6115  1.8490
   7523SM   H8T 9860   7.416   5.036  16.020 -1.4461 -3.3948  1.4873
   7523SM   C9S 9861   7.490   4.849  15.936  0.5801  0.5370 -0.3401
   7523SM   H9S 9862   7.387   4.818  15.967  0.4191  0.5366 -0.8676
   7523SM   H9T 9863   7.569   4.777  15.967 -0.6151 -0.4364  0.5658
   7523SM  C10S 9864   7.496   4.863  15.785  0.2035 -0.1752  0.2848
   7523SM  H10S 9865   7.589   4.909  15.745  0.8411 -0.8948  0.8958
   7523SM  H10T 9866   7.415   4.933  15.757  0.3539 -0.1998 -0.2275
   7523SM  C11S 9867   7.478   4.723  15.716  0.3990  0.3143  0.2641
   7523SM  H11S 9868   7.375   4.685  15.732  0.5149 -0.1263 -0.0237
   7523SM  H11T 9869   7.548   4.647  15.757 -0.2889  0.4636  1.7854
   7523SM  C12S 9870   7.505   4.719  15.569  0.0737 -0.0216  0.0984
   7523SM  H12S 9871   7.614   4.734  15.554  0.0083 -0.5080 -0.9597
   7523SM  H12T 9872   7.447   4.789  15.504 -0.4630 -2.5301 -2.3096
   7523SM  C13S 9873   7.463   4.582  15.512  0.3684  0.6927  0.1676
   7523SM  H13S 9874   7.358   4.576  15.548  0.4738 -1.4176  0.2490
   7523SM  H13T 9875   7.518   4.502  15.566 -1.3921 -0.6473  0.0983
   7523SM  C14S 9876   7.478   4.554  15.359 -0.1329 -0.2671 -0.3692
   7523SM  H14S 9877   7.390   4.595  15.306 -0.6854  1.6839  1.8816
   7523SM  H14T 9878   7.463   4.445  15.347 -1.9780 -0.2272  1.1285
   7523SM  C15S 9879   7.609   4.597  15.290  0.0759  0.2853  0.4759
   7523SM  H15S 9880   7.629   4.706  15.301 -1.9073  0.6639  0.7112
   7523SM  H15T 9881   7.619   4.585  15.180 -2.1060  0.3305  0.2119
   7523SM  C16S 9882   7.724   4.527  15.360 -0.6858  0.3085 -0.5387
   7523SM  H16S 9883   7.710   4.417  15.364  0.0476  0.2408  0.7342
   7523SM  H16T 9884   7.722   4.551  15.468  0.9872  0.9299 -0.6175
   7523SM  C17S 9885   7.867   4.562  15.315  0.1748 -0.3703 -0.0133
   7523SM  H17S 9886   7.931   4.506  15.386 -0.2634 -0.8901 -0.0211
   7523SM  H17T 9887   7.886   4.670  15.333  2.0820 -0.9928  2.0770
   7523SM  C18S 9888   7.917   4.508  15.178 -0.5349 -0.5042  0.6213
   7523SM  H18S 9889   8.022   4.540  15.159 -0.5175 -1.6430 -1.5093
   7523SM  H18T 9890   7.850   4.539  15.095 -0.3694 -2.3559 -0.2694
   7523SM  H18U 9891   7.925   4.398  15.196  2.5607 -0.5029 -0.0896
   7523SM   C1F 9892   7.928   4.676  16.469 -0.2525  0.0122  0.0724
   7523SM    OF 9893   7.878   4.618  16.564 -0.1077 -0.1643 -0.3510
   7523SM   C2F 9894   8.013   4.615  16.362 -0.6151  0.7838  0.3859
   7523SM   H2F 9895   8.058   4.522  16.402  3.7684  0.5916 -3.9391
   7523SM   H2G 9896   8.096   4.686  16.340  1.4661 -1.9738 -1.3981
   7523SM   C3F 9897   7.938   4.576  16.232 -0.2298 -0.1356 -0.1812
   7523SM   H3F 9898   7.922   4.661  16.163 -3.6751 -0.0754  0.5268
   7523SM   H3G 9899   7.836   4.541  16.259 -0.8964  0.4790 -1.8035
   7523SM   C4F 9900   8.011   4.465  16.148 -0.2218 -0.5111 -0.4138
   7523SM   H4F 9901   8.031   4.384  16.221 -0.4186 -1.0010 -0.9026
   7523SM   H4G 9902   8.107   4.495  16.100 -1.1524 -1.1395 -2.8005
   7523SM   C5F 9903   7.926   4.401  16.042 -0.2948  0.1309 -0.2020
   7523SM   H5F 9904   7.994   4.329  15.991  1.1536  1.2545  0.0849
   7523SM   H5G 9905   7.902   4.483  15.970  1.6821  0.1146 -0.9539
   7523SM   C6F 9906   7.795   4.339  16.084  0.1667 -0.3235  0.4011
   7523SM   H6F 9907   7.728   4.427  16.094  0.8258  0.6148 -2.5165
   7523SM   H6G 9908   7.803   4.295  16.186  0.4769 -1.7011 -0.2017
   7523SM   C7F 9909   7.729   4.240  15.986  0.3333  0.7371  0.3816
   7523SM   H7F 9910   7.623   4.234  16.019  0.8505 -1.3989  1.8594
   7523SM   H7G 9911   7.778   4.142  16.002 -0.4248 -0.2811 -2.6650
   7523SM   C8F 9912   7.713   4.281  15.834  0.4329  0.2558 -0.0786
   7523SM   H8F 9913   7.814   4.278  15.789  0.4296 -1.3502 -0.0409
   7523SM   H8G 9914   7.668   4.382  15.818  1.2971  0.4447 -1.4593
   7523SM   C9F 9915   7.632   4.173  15.749  0.6123  0.5404  0.1489
   7523SM   H9F 9916   7.523   4.190  15.764  0.4603 -0.5695  0.3998
   7523SM   H9G 9917   7.660   4.069  15.777  1.0547  0.6392  0.0631
   7523SM  C10F 9918   7.669   4.186  15.602  0.5260  0.0488 -0.9929
   7523SM  H10F 9919   7.777   4.201  15.587  0.6340  1.0704  0.5802
   7523SM  H10G 9920   7.616   4.281  15.579 -0.0584  0.3438  1.2981
   7523SM  C11F 9921   7.617   4.065  15.521  0.0023  0.2371 -0.1043
   7523SM  H11F 9922   7.514   4.030  15.544  0.0626 -1.3296 -1.9349
   7523SM  H11G 9923   7.680   3.980  15.554 -0.6739 -0.3104 -0.2080
   7523SM  C12F 9924   7.622   4.096  15.366  0.3180 -0.1353 -0.5177
   7523SM  H12F 9925   7.631   4.207  15.354 -0.1157 -0.0040  0.2781
   7523SM  H12G 9926   7.539   4.051  15.308 -0.6889  1.8676 -0.7171
   7523SM  C13F 9927   7.753   4.037  15.299  0.2697 -1.0029 -0.1349
   7523SM  H13F 9928   7.767   3.928  15.316  0.6791 -1.2614 -1.9400
   7523SM  H13G 9929   7.842   4.082  15.349  0.4734 -0.2601 -1.1411
   7523SM  C14F 9930   7.758   4.085  15.153 -0.9314 -0.0363 -0.0640
   7523SM  H14F 9931   7.776   4.195  15.155 -0.4174 -0.1338  1.7942
   7523SM  H14G 9932   7.659   4.059  15.110 -0.6419 -0.5564 -0.4187
   7523SM  C15F 9933   7.869   4.015  15.071  0.2206 -0.2238 -0.1957
   7523SM  H15F 9934   7.851   3.906  15.060  1.1441 -0.2627 -1.7079
   7523SM  H15G 9935   7.970   4.023  15.118 -0.8375  1.4415  1.9424
   7523SM  C16F 9936   7.881   4.053  14.920  1.1187 -0.1017 -0.1130
   7523SM  H16F 9937   7.936   4.150  14.911  0.7930  0.0600 -0.3633
   7523SM  H16G 9938   7.778   4.063  14.881  1.4680  0.3267 -0.9679
   7523SM  C17F 9939   7.944   3.954  14.825  0.8286  0.8208  0.2977
   7523SM  H17F 9940   7.883   3.864  14.803  1.9525  0.2552 -0.5891
   7523SM  H17G 9941   8.035   3.910  14.873 -0.6501  0.2390  2.7679
   7523SM  C18F 9942   7.974   4.012  14.692  0.1951 -0.6552 -0.3482
   7523SM  H18F 9943   8.029   4.106  14.717  1.4425 -1.6500  0.7914
   7523SM  H18G 9944   7.883   4.042  14.635 -0.6474  0.7026  1.5997
   7523SM  C19F 9945   8.053   3.916  14.616  0.1460 -0.2672 -0.1503
   7523SM  H19F 9946   7.992   3.826  14.593 -1.6458  1.3446 -2.0594
   7523SM  H19G 9947   8.146   3.890  14.672  1.1525  0.4923 -1.4150
   7523SM  C20F 9948   8.102   3.975  14.485 -0.1178  0.0750  0.3682
   7523SM  H20F 9949   8.136   4.079  14.504  2.2323 -0.2438 -1.5778
   7523SM  H20G 9950   8.011   3.986  14.421  0.9283  1.2168 -1.0109
   7523SM  C21F 9951   8.217   3.896  14.417 -0.0459  0.1734 -0.1273
   7523SM  H21F 9952   8.188   3.791  14.397 -1.6057  0.5575  0.0424
   7523SM  H21G 9953   8.299   3.894  14.492  0.0006 -2.4787 -0.1744
   7523SM  C22F 9954   8.280   3.960  14.290  0.2369 -0.1965 -0.2211
   7523SM  H22F 9955   8.327   4.055  14.324  0.9442 -0.5163 -0.2762
   7523SM  H22G 9956   8.196   3.982  14.221  1.1589  2.4374 -0.6223
   7523SM  C23F 9957   8.389   3.867  14.244  0.6735  0.2993  0.4031
   7523SM  H23F 9958   8.461   3.920  14.178  0.7724 -0.3483 -0.0162
   7523SM  H23G 9959   8.358   3.776  14.189  0.7714 -0.2940  1.3132
   7523SM  H23H 9960   8.461   3.844  14.325 -0.4593  1.7970  1.8977
   7623SM     N 9961   1.631   6.065  17.066  0.3498 -0.2129 -0.3863
   7623SM   C15 9962   1.780   6.060  17.064 -0.6596 -0.3668 -0.7935
   7623SM  H15A 9963   1.804   5.965  17.018 -1.3875 -1.6684  1.3782
   7623SM  H15B 9964   1.833   6.063  17.158 -2.9071 -0.8992  0.5492
   7623SM  H15C 9965   1.816   6.143  17.005 -0.7248 -2.2665 -3.7136
   7623SM   C14 9966   1.572   5.956  17.149 -0.6978 -0.3987 -0.1998
   7623SM  H14A 9967   1.593   5.864  17.098 -0.9167  0.4797 -1.9674
   7623SM  H14B 9968   1.468   5.973  17.175 -0.9641 -4.2317  1.8417
   7623SM  H14C 9969   1.627   5.944  17.240 -1.0093 -2.4973 -0.2491
   7623SM   C13 9970   1.605   6.187  17.145 -0.6315  0.4302  0.2423
   7623SM  H13A 9971   1.653   6.183  17.241  1.2615 -0.2182 -0.6770
   7623SM  H13B 9972   1.498   6.201  17.152 -0.6183  0.0319  1.2742
   7623SM  H13C 9973   1.647   6.277  17.101 -0.3850 -0.1637 -0.7861
   7623SM   C12 9974   1.577   6.072  16.924 -0.3757  0.3726 -1.1338
   7623SM  H12A 9975   1.637   6.139  16.864  2.0884 -1.4408 -0.8434
   7623SM  H12B 9976   1.477   6.113  16.935 -0.4434  0.8460 -3.0359
   7623SM   C11 9977   1.578   5.947  16.841 -0.4574  0.5641  0.2623
   7623SM  H11A 9978   1.531   5.953  16.740  0.0729  1.8224  0.0698
   7623SM  H11B 9979   1.532   5.862  16.896  1.8063  0.0332  1.4459
   7623SM     P 9980   1.805   5.977  16.711  0.0449  0.0475  0.0908
   7623SM   O13 9981   1.775   6.119  16.691 -0.1117  0.1543  0.3765
   7623SM   O14 9982   1.947   5.953  16.749  0.7570 -0.0238 -0.1090
   7623SM   O11 9983   1.777   5.903  16.574  0.3953 -0.2832 -0.0462
   7623SM   O12 9984   1.712   5.906  16.817  0.0958 -0.6585 -0.4041
   7623SM   C1S 9985   1.735   5.764  16.561 -0.4837 -0.3547 -0.2636
   7623SM   H1S 9986   1.637   5.752  16.612 -0.5799  0.9160 -0.1124
   7623SM   H1T 9987   1.812   5.704  16.614 -0.8356  0.8702  1.7537
   7623SM    NF 9988   1.694   5.575  16.409  0.1613  0.2477 -0.6838
   7623SM   HNF 9989   1.764   5.508  16.386 -0.5888 -1.5133  1.6807
   7623SM   C2S 9990   1.726   5.716  16.415 -0.8809 -0.1143 -0.0554
   7623SM   H2S 9991   1.652   5.775  16.358 -1.2141  0.6445  1.1282
   7623SM   C3S 9992   1.868   5.737  16.345 -0.3273 -0.4691  0.5308
   7623SM   H3S 9993   1.942   5.665  16.385  0.5264  1.2027  2.1610
   7623SM    O3 9994   1.940   5.853  16.386 -0.1221  0.1881 -0.5344
   7623SM   HO3 9995   1.891   5.894  16.458  0.7184 -0.1384  0.2432
   7623SM   C4S 9996   1.862   5.730  16.190 -0.2059 -0.2106 -0.1581
   7623SM   H4S 9997   1.849   5.625  16.159 -1.2126 -0.1184 -0.0691
   7623SM   C5S 9998   1.835   5.831  16.105 -0.5108  0.1687 -0.3383
   7623SM   H5S 9999   1.818   5.926  16.158  2.6606  1.8729 -2.0820
   7623SM   C6S10000   1.817   5.811  15.953  0.1377 -0.2179 -0.4552
   7623SM   H6S10001   1.858   5.716  15.911 -0.6940 -0.2542 -1.2194
   7623SM   H6T10002   1.867   5.891  15.895 -2.0593  0.9797 -0.7958
   7623SM   C7S10003   1.673   5.839  15.905 -0.3076 -0.1558  0.8563
   7623SM   H7S10004   1.652   5.942  15.939  2.7508  1.4152 -1.5199
   7623SM   H7T10005   1.611   5.760  15.953  0.0863 -1.0423 -0.0535
   7623SM   C8S10006   1.645   5.845  15.753 -0.8629  0.0586  0.8663
   7623SM   H8S10007   1.691   5.935  15.706 -1.9117 -0.3840 -1.1099
   7623SM   H8T10008   1.535   5.844  15.739 -0.8809 -0.9979  0.9935
   7623SM   C9S10009   1.692   5.725  15.674 -0.4791  0.6863 -0.7724
   7623SM   H9S10010   1.641   5.634  15.712  0.0683  1.1520  1.1954
   7623SM   H9T10011   1.798   5.710  15.701 -1.0578  0.1686  1.4641
   7623SM  C10S10012   1.682   5.724  15.528 -0.6007 -0.6802  0.4614
   7623SM  H10S10013   1.708   5.821  15.482 -0.9078  0.1216  1.9217
   7623SM  H10T10014   1.577   5.704  15.498 -0.4965  0.7936 -0.9706
   7623SM  C11S10015   1.780   5.619  15.457 -0.7705 -0.3976  0.0967
   7623SM  H11S10016   1.746   5.516  15.481  0.7355 -0.6488  1.3176
   7623SM  H11T10017   1.885   5.637  15.490 -1.1759  0.4128  0.9877
   7623SM  C12S10018   1.780   5.630  15.306 -0.1353  0.4692  0.6993
   7623SM  H12S10019   1.877   5.589  15.273  0.3085  1.9706  0.0769
   7623SM  H12T10020   1.770   5.735  15.272  1.2737  0.1125 -0.9428
   7623SM  C13S10021   1.672   5.548  15.244 -0.4330 -0.2696 -0.3869
   7623SM  H13S10022   1.575   5.600  15.259 -2.0186 -2.8811 -0.9909
   7623SM  H13T10023   1.674   5.448  15.293  1.3042 -0.1488 -0.1540
   7623SM  C14S10024   1.676   5.544  15.089  0.4627 -0.2359 -0.1254
   7623SM  H14S10025   1.593   5.480  15.054 -1.1186  1.6389  0.0581
   7623SM  H14T10026   1.769   5.493  15.055  3.7927  3.8103  1.9508
   7623SM  C15S10027   1.666   5.681  15.014 -0.8930  0.5504  0.6838
   7623SM  H15S10028   1.760   5.738  15.026  0.3743 -1.0710 -1.0791
   7623SM  H15T10029   1.576   5.734  15.052 -0.5126  1.0421  0.9158
   7623SM  C16S10030   1.664   5.644  14.867  0.0485  0.6224  0.6913
   7623SM  H16S10031   1.578   5.580  14.838  0.8114  0.4970 -1.5372
   7623SM  H16T10032   1.749   5.580  14.835  0.0258  0.6795  0.5100
   7623SM  C17S10033   1.665   5.762  14.774  0.7126  0.2561  0.6271
   7623SM  H17S10034   1.561   5.802  14.771  0.7854  0.4141  0.0231
   7623SM  H17T10035   1.704   5.737  14.673  0.8907 -2.1897  1.2329
   7623SM  C18S10036   1.754   5.878  14.817  0.1999  0.0684 -0.0580
   7623SM  H18S10037   1.749   5.961  14.742  0.7084  0.9995  0.9173
   7623SM  H18T10038   1.857   5.839  14.828  0.7868  1.3585 -0.6901
   7623SM  H18U10039   1.723   5.931  14.909 -0.1482  1.8763 -1.1547
   7623SM   C1F10040   1.585   5.514  16.455  0.6412  0.7629  0.4662
   7623SM    OF10041   1.498   5.583  16.507  0.0639  0.1227  0.6697
   7623SM   C2F10042   1.576   5.364  16.457 -0.4273 -0.0647 -0.0777
   7623SM   H2F10043   1.595   5.332  16.562 -1.8500 -0.2139  0.1665
   7623SM   H2G10044   1.659   5.333  16.391 -1.1775 -1.2991 -0.4724
   7623SM   C3F10045   1.444   5.315  16.394  0.2391  0.6925 -0.1137
   7623SM   H3F10046   1.421   5.371  16.300 -1.0763  0.3152 -0.0364
   7623SM   H3G10047   1.365   5.342  16.467 -1.3051  0.0533 -1.4792
   7623SM   C4F10048   1.443   5.165  16.364 -0.2114 -0.1701  0.2038
   7623SM   H4F10049   1.479   5.117  16.457  1.1935  0.5528  0.0606
   7623SM   H4G10050   1.522   5.140  16.289  1.3490 -1.6491  2.2248
   7623SM   C5F10051   1.299   5.121  16.334 -0.2689 -0.2858  0.0230
   7623SM   H5F10052   1.244   5.192  16.269 -0.8534 -1.2591 -0.5694
   7623SM   H5G10053   1.242   5.118  16.430 -0.6138  0.0926 -0.1684
   7623SM   C6F10054   1.285   4.997  16.255  0.5614 -0.2695  1.1012
   7623SM   H6F10055   1.194   4.940  16.284 -0.7418  1.1884  0.0806
   7623SM   H6G10056   1.364   4.923  16.278  1.3079  0.3766  0.6458
   7623SM   C7F10057   1.283   5.025  16.103 -0.1441  0.1422  0.1562
   7623SM   H7F10058   1.372   5.084  16.071 -1.4029  0.4722 -3.0405
   7623SM   H7G10059   1.188   5.075  16.078 -0.3237  0.4351  1.3816
   7623SM   C8F10060   1.295   4.901  16.016  0.0485  0.2687  0.4721
   7623SM   H8F10061   1.201   4.842  16.022  0.5041 -0.5452 -0.1073
   7623SM   H8G10062   1.368   4.834  16.066  0.4273 -1.5424 -2.2623
   7623SM   C9F10063   1.344   4.928  15.875  0.2056  0.2278  0.1417
   7623SM   H9F10064   1.453   4.951  15.878  0.5666 -0.8812 -2.0943
   7623SM   H9G10065   1.280   5.011  15.840  1.2146  0.4284 -1.3057
   7623SM  C10F10066   1.330   4.805  15.779  0.1616 -0.3497  0.0403
   7623SM  H10F10067   1.223   4.779  15.769  0.5921 -2.1223 -0.2394
   7623SM  H10G10068   1.374   4.713  15.822  1.8029 -1.0672 -2.8934
   7623SM  C11F10069   1.394   4.831  15.644  0.1526 -0.2284  0.1211
   7623SM  H11F10070   1.504   4.847  15.656  0.3370  0.2963 -1.8965
   7623SM  H11G10071   1.366   4.933  15.612  0.7341  0.2819  1.2043
   7623SM  C12F10072   1.358   4.720  15.543 -0.3206 -0.2988  0.2834
   7623SM  H12F10073   1.251   4.694  15.556 -0.7854  0.4698 -1.6700
   7623SM  H12G10074   1.411   4.626  15.572 -1.5529 -0.7270  1.2567
   7623SM  C13F10075   1.390   4.760  15.395 -0.0176  0.4369 -0.2235
   7623SM  H13F10076   1.366   4.664  15.344 -0.7610  0.2395  0.4875
   7623SM  H13G10077   1.497   4.787  15.389 -0.1186  0.7939 -0.4443
   7623SM  C14F10078   1.313   4.872  15.323  0.3346  0.4251  0.1831
   7623SM  H14F10079   1.336   4.876  15.215 -3.4181  1.3580 -0.7123
   7623SM  H14G10080   1.332   4.975  15.361  0.0112  0.4755  0.2112
   7623SM  C15F10081   1.164   4.842  15.322  0.1206  0.0344  0.7065
   7623SM  H15F10082   1.140   4.749  15.379  2.1837 -0.7419  0.4049
   7623SM  H15G10083   1.139   4.816  15.217  0.0515  0.5018  0.6070
   7623SM  C16F10084   1.088   4.963  15.371 -0.1276 -0.6749 -0.0380
   7623SM  H16F10085   1.138   5.011  15.457 -1.1623  0.3288  0.0243
   7623SM  H16G10086   0.986   4.941  15.409  0.4867  0.3053  2.3363
   7623SM  C17F10087   1.065   5.073  15.263 -0.1870 -0.3636  0.5427
   7623SM  H17F10088   1.163   5.094  15.216  0.0797 -0.6090  0.9800
   7623SM  H17G10089   1.034   5.165  15.318  0.5579  0.2053  0.0270
   7623SM  C18F10090   0.960   5.027  15.160  0.6302 -0.0102 -0.6368
   7623SM  H18F10091   0.872   4.987  15.214 -0.3309  1.5187 -0.9966
   7623SM  H18G10092   1.000   4.945  15.097 -2.0559 -0.7610 -1.4556
   7623SM  C19F10093   0.931   5.145  15.075 -0.4807  0.0756 -0.4242
   7623SM  H19F10094   1.027   5.188  15.039  0.9212 -1.7254  0.9531
   7623SM  H19G10095   0.877   5.224  15.130 -1.2359  0.6778 -1.9738
   7623SM  C20F10096   0.835   5.104  14.965 -0.2383  0.2096 -0.5709
   7623SM  H20F10097   0.885   5.018  14.915  1.7884  1.1137 -0.2101
   7623SM  H20G10098   0.832   5.177  14.882 -0.6429 -0.0275 -0.7699
   7623SM  C21F10099   0.694   5.068  15.011  0.3615  0.2209 -0.1554
   7623SM  H21F10100   0.652   5.138  15.087  0.3285 -0.6928  0.6924
   7623SM  H21G10101   0.704   4.969  15.061  0.5089  0.3116 -0.0039
   7623SM  C22F10102   0.588   5.044  14.904 -0.1886  0.0239 -0.2203
   7623SM  H22F10103   0.498   5.005  14.956  2.4441 -1.0576  3.9920
   7623SM  H22G10104   0.606   4.968  14.824  1.1030 -0.4242  0.4562
   7623SM  C23F10105   0.549   5.169  14.835 -0.0658 -0.6416  0.0811
   7623SM  H23F10106   0.519   5.244  14.911 -1.6396 -1.6978  0.5571
   7623SM  H23G10107   0.459   5.163  14.770  0.1714  1.7881 -0.5729
   7623SM  H23H10108   0.629   5.206  14.767 -0.2567 -0.2561  0.0624
   7723SM     N10109   1.231   2.179  17.519  0.4424  0.6019  0.3684
   7723SM   C1510110   1.309   2.301  17.491 -0.2622  0.1447  0.3316
   7723SM  H15A10111   1.312   2.313  17.384 -0.6139 -0.0909  0.2917
   7723SM  H15B10112   1.413   2.289  17.518  0.3052 -0.8925 -2.0957
   7723SM  H15C10113   1.264   2.386  17.541 -0.8333 -0.9766  1.8146
   7723SM   C1410114   1.308   2.067  17.451 -0.4795  0.2981  0.2717
   7723SM  H14A10115   1.275   1.969  17.482  0.6080 -0.2971 -0.3853
   7723SM  H14B10116   1.414   2.069  17.471 -0.0820  1.9514 -1.6949
   7723SM  H14C10117   1.277   2.072  17.347  0.9862  0.5455 -0.1728
   7723SM   C1310118   1.227   2.158  17.670  0.0132  0.1903 -0.0048
   7723SM  H13A10119   1.149   2.215  17.717 -1.1773 -2.1220  1.0137
   7723SM  H13B10120   1.327   2.181  17.706 -0.8752  0.6514  2.3541
   7723SM  H13C10121   1.205   2.053  17.688 -1.5888  0.5220  0.0868
   7723SM   C1210122   1.091   2.185  17.471  0.0392 -0.0925 -0.4162
   7723SM  H12A10123   1.048   2.086  17.477  1.4766 -0.6952  0.9748
   7723SM  H12B10124   1.080   2.221  17.370  0.6849  3.2450  0.5918
   7723SM   C1110125   0.989   2.281  17.546 -0.2834 -0.1633  0.1558
   7723SM  H11A10126   0.972   2.239  17.647  0.3598 -1.9478 -0.4384
   7723SM  H11B10127   0.888   2.280  17.501 -0.0347  1.0758 -0.4900
   7723SM     P10128   1.000   2.515  17.438 -0.2268 -0.2175  0.0958
   7723SM   O1310129   0.878   2.594  17.482  0.4500  0.0553  0.1506
   7723SM   O1410130   1.119   2.596  17.407  0.0396  0.4877  0.2812
   7723SM   O1110131   0.965   2.436  17.302 -0.1398  0.4511  0.3689
   7723SM   O1210132   1.040   2.412  17.547  0.8038 -0.4079  0.3024
   7723SM   C1S10133   0.877   2.501  17.209  0.2800  0.1377 -0.3812
   7723SM   H1S10134   0.919   2.600  17.181 -0.2194  0.1061 -1.2736
   7723SM   H1T10135   0.776   2.512  17.255  0.5684  3.2302 -0.2755
   7723SM    NF10136   0.794   2.497  16.973  0.3132  0.3623  0.0815
   7723SM   HNF10137   0.707   2.459  16.943  0.8891 -0.6338 -0.3690
   7723SM   C2S10138   0.863   2.420  17.079 -0.5320  0.4092 -0.6212
   7723SM   H2S10139   0.963   2.404  17.035 -0.3967 -1.0027  0.1110
   7723SM   C3S10140   0.804   2.277  17.117 -0.4114  0.5915 -0.5832
   7723SM   H3S10141   0.701   2.304  17.146 -0.3359 -0.5002  0.7689
   7723SM    O310142   0.856   2.212  17.235  0.4243  0.0020  0.2577
   7723SM   HO310143   0.906   2.281  17.281  1.3470 -1.2000  1.1367
   7723SM   C4S10144   0.793   2.196  16.989 -0.8004 -0.3688 -0.2729
   7723SM   H4S10145   0.705   2.214  16.925 -1.4592  2.7130  1.2978
   7723SM   C5S10146   0.885   2.105  16.955  0.0824 -0.2202 -0.3397
   7723SM   H5S10147   0.966   2.084  17.026  0.9083  1.2844 -0.7896
   7723SM   C6S10148   0.889   2.025  16.836  0.2476  0.3668  0.4432
   7723SM   H6S10149   0.889   1.921  16.875  1.2973  0.2855  0.2575
   7723SM   H6T10150   0.984   2.039  16.781 -0.3709 -1.9625 -1.3850
   7723SM   C7S10151   0.775   2.034  16.733 -0.4351  0.5249  0.7062
   7723SM   H7S10152   0.768   2.137  16.692 -1.7029  0.2383  0.1430
   7723SM   H7T10153   0.678   2.002  16.778 -0.6183 -1.8352 -1.1720
   7723SM   C8S10154   0.808   1.940  16.621  0.3965 -0.2504  0.4039
   7723SM   H8S10155   0.799   1.838  16.663  1.9408 -0.2414  0.8230
   7723SM   H8T10156   0.914   1.955  16.593  0.3827  2.0708  1.3612
   7723SM   C9S10157   0.699   1.938  16.508 -0.8454 -0.2542 -0.1828
   7723SM   H9S10158   0.745   1.887  16.421  2.1235 -0.5810  1.4299
   7723SM   H9T10159   0.680   2.043  16.476  0.5797  0.1901  0.3437
   7723SM  C10S10160   0.574   1.860  16.542  0.3726 -0.3605  0.5557
   7723SM  H10S10161   0.531   1.910  16.631 -0.7122 -0.4674  0.1127
   7723SM  H10T10162   0.596   1.754  16.570 -0.7680 -0.9986 -0.8297
   7723SM  C11S10163   0.461   1.856  16.444 -0.4045  0.0529  1.2681
   7723SM  H11S10164   0.481   1.782  16.363 -2.1946  0.6204  0.2289
   7723SM  H11T10165   0.458   1.957  16.397 -1.3421 -0.9849 -1.1075
   7723SM  C12S10166   0.327   1.803  16.510 -0.2792 -0.4516 -0.0547
   7723SM  H12S10167   0.308   1.863  16.602  2.7658 -2.5478  2.1652
   7723SM  H12T10168   0.338   1.697  16.543 -1.3666  0.1656  2.4622
   7723SM  C13S10169   0.205   1.826  16.417  0.8530  0.1088  0.2959
   7723SM  H13S10170   0.115   1.797  16.474 -1.1439  1.1491 -2.1402
   7723SM  H13T10171   0.216   1.763  16.327 -0.5373  1.3927 -0.8221
   7723SM  C14S10172   0.181   1.973  16.375  0.6994 -0.0107 -0.3260
   7723SM  H14S10173   0.253   2.012  16.300  2.3932  1.0696  1.7561
   7723SM  H14T10174   0.190   2.042  16.461 -0.1990 -1.4860  0.9993
   7723SM  C15S10175   0.039   2.004  16.322 -0.0658  0.0151  0.2153
   7723SM  H15S10176   0.043   2.109  16.286 -0.0676  0.0142  0.2135
   7723SM  H15T10177  -0.030   1.992  16.408 -0.5980 -0.6503 -0.2988
   7723SM  C16S10178  -0.013   1.913  16.214 -0.0578 -0.5279 -0.4610
   7723SM  H16S10179  -0.107   1.961  16.177  1.3385  2.8174  0.0065
   7723SM  H16T10180  -0.027   1.803  16.227 -1.8197 -0.3458 -0.5012
   7723SM  C17S10181   0.064   1.920  16.080  0.3935 -0.2189  0.2658
   7723SM  H17S10182   0.170   1.886  16.084  1.0369  1.3628 -1.5249
   7723SM  H17T10183   0.073   2.026  16.047 -2.0335 -0.4767 -1.5124
   7723SM  C18S10184  -0.002   1.839  15.963  0.8961 -0.0244 -0.0155
   7723SM  H18S10185  -0.103   1.878  15.937 -0.5501 -1.9540  2.3710
   7723SM  H18T10186  -0.014   1.734  15.996  1.3584  0.4290  1.6917
   7723SM  H18U10187   0.054   1.837  15.867 -2.9828  0.6598 -2.5223
   7723SM   C1F10188   0.832   2.610  16.915 -0.3177 -0.0172 -0.1982
   7723SM    OF10189   0.944   2.654  16.932 -0.0544  0.2510  0.7376
   7723SM   C2F10190   0.733   2.677  16.820  0.0874 -0.1375 -0.1493
   7723SM   H2F10191   0.737   2.785  16.849 -1.2060 -0.3135  0.7726
   7723SM   H2G10192   0.630   2.645  16.846  0.2945  0.0191  0.9320
   7723SM   C3F10193   0.769   2.646  16.671  0.2948 -0.3220 -0.3707
   7723SM   H3F10194   0.877   2.630  16.647  0.1257 -2.4543  0.1091
   7723SM   H3G10195   0.726   2.720  16.600  0.5021  1.0027  0.8422
   7723SM   C4F10196   0.713   2.509  16.621 -0.3903 -0.0911  0.0847
   7723SM   H4F10197   0.603   2.498  16.636 -0.0275 -2.0528  1.7758
   7723SM   H4G10198   0.764   2.424  16.671 -0.9287 -0.8317 -0.6092
   7723SM   C5F10199   0.749   2.500  16.469  0.4896 -0.6798  0.5168
   7723SM   H5F10200   0.859   2.490  16.457  0.6055 -0.5266  1.3870
   7723SM   H5G10201   0.709   2.590  16.418 -0.0246 -1.5540 -0.6599
   7723SM   C6F10202   0.697   2.372  16.393 -0.4334  0.4073  0.0336
   7723SM   H6F10203   0.593   2.356  16.428 -0.4971 -0.4943 -0.5431
   7723SM   H6G10204   0.760   2.282  16.413  0.5751  1.1285  0.2027
   7723SM   C7F10205   0.667   2.389  16.240  0.0806  0.0221 -0.2905
   7723SM   H7F10206   0.765   2.416  16.196  1.3653 -0.2178  2.2057
   7723SM   H7G10207   0.595   2.473  16.237 -0.0477 -0.1030 -0.6758
   7723SM   C8F10208   0.599   2.260  16.187 -0.3017 -0.0326  0.0841
   7723SM   H8F10209   0.506   2.241  16.245 -1.7707  0.0284 -2.1364
   7723SM   H8G10210   0.660   2.171  16.213 -0.4311 -0.0699  0.2610
   7723SM   C9F10211   0.562   2.273  16.038  0.0895 -0.4067  0.4114
   7723SM   H9F10212   0.654   2.277  15.976  0.1151  1.6234  0.5016
   7723SM   H9G10213   0.515   2.371  16.012  1.3616  0.1303  0.0845
   7723SM  C10F10214   0.484   2.151  15.991  0.1418  0.5069 -0.0664
   7723SM  H10F10215   0.380   2.143  16.028  0.3286  0.8460  0.5394
   7723SM  H10G10216   0.537   2.055  16.009  2.2444  1.5151 -0.5361
   7723SM  C11F10217   0.472   2.168  15.837 -0.2715 -0.4206 -0.6467
   7723SM  H11F10218   0.570   2.170  15.785  0.3030 -0.6516  0.3881
   7723SM  H11G10219   0.432   2.271  15.827  0.4138 -0.1061 -0.2084
   7723SM  C12F10220   0.385   2.062  15.763 -0.2771  0.2405  0.7044
   7723SM  H12F10221   0.298   2.043  15.829 -0.6531  1.1184  0.4858
   7723SM  H12G10222   0.435   1.969  15.727 -2.3257  0.1088 -2.1185
   7723SM  C13F10223   0.336   2.116  15.626  0.0610  0.2203 -0.0231
   7723SM  H13F10224   0.265   2.200  15.641  0.7275  1.5795 -3.5708
   7723SM  H13G10225   0.296   2.031  15.567  1.2953 -0.1408 -0.3580
   7723SM  C14F10226   0.448   2.184  15.540 -0.9437  0.0507 -0.7505
   7723SM  H14F10227   0.539   2.120  15.536 -1.2229 -0.4490  0.4536
   7723SM  H14G10228   0.473   2.282  15.585 -1.5740 -0.9409  1.9406
   7723SM  C15F10229   0.400   2.217  15.399  0.6940 -0.2842 -0.3136
   7723SM  H15F10230   0.322   2.296  15.396  0.3767 -0.5770  0.0339
   7723SM  H15G10231   0.359   2.120  15.363 -0.6506  0.0954  0.1505
   7723SM  C16F10232   0.512   2.265  15.309  0.3111  0.1731  0.0725
   7723SM  H16F10233   0.599   2.198  15.293 -0.6146 -0.7317 -1.4414
   7723SM  H16G10234   0.554   2.359  15.351 -0.0303  0.3037  0.1216
   7723SM  C17F10235   0.461   2.309  15.177 -0.2276  0.3853 -0.0893
   7723SM  H17F10236   0.372   2.374  15.187  0.5522  1.4649 -0.0557
   7723SM  H17G10237   0.422   2.219  15.124  1.4118 -0.1115 -0.5045
   7723SM  C18F10238   0.566   2.364  15.079 -1.1654 -1.3454  0.4027
   7723SM  H18F10239   0.640   2.284  15.060  0.0184 -0.0257 -0.8318
   7723SM  H18G10240   0.624   2.449  15.120 -1.1169 -0.2962 -1.7235
   7723SM  C19F10241   0.506   2.405  14.945 -0.0492  0.1931  0.1117
   7723SM  H19F10242   0.576   2.474  14.893  0.7230  0.3269  1.2956
   7723SM  H19G10243   0.411   2.459  14.963 -1.5330 -2.3950  0.6088
   7723SM  C20F10244   0.460   2.285  14.857 -0.1741  0.0439 -0.0559
   7723SM  H20F10245   0.380   2.228  14.909  2.2973 -1.5406  2.2936
   7723SM  H20G10246   0.553   2.225  14.861  0.1833  0.6092  0.2129
   7723SM  C21F10247   0.417   2.317  14.714  0.8653 -0.0018 -0.0835
   7723SM  H21F10248   0.422   2.223  14.655 -0.9241  0.0736 -0.4156
   7723SM  H21G10249   0.489   2.384  14.662 -1.0625  1.4664 -0.9979
   7723SM  C22F10250   0.285   2.388  14.703 -0.1083 -0.1694  0.2984
   7723SM  H22F10251   0.271   2.426  14.600 -0.4216  0.0104  0.4043
   7723SM  H22G10252   0.279   2.466  14.782 -0.1597 -0.4490  0.5751
   7723SM  C23F10253   0.163   2.298  14.732 -0.6010  0.6870 -0.3453
   7723SM  H23F10254   0.166   2.236  14.824 -0.1443  0.4659 -0.5084
   7723SM  H23G10255   0.149   2.234  14.642  0.0103  1.0033 -0.6718
   7723SM  H23H10256   0.071   2.358  14.745 -1.0759 -0.3730  1.8325
   7823SM     N10257   2.460   7.025  17.183  0.3630  0.5418 -0.3022
   7823SM   C1510258   2.462   7.067  17.324  0.0424 -0.6329 -0.1834
   7823SM  H15A10259   2.469   6.977  17.384 -0.2173 -0.0856  0.6817
   7823SM  H15B10260   2.374   7.115  17.365 -0.9098 -0.7628 -1.9506
   7823SM  H15C10261   2.540   7.134  17.354 -0.8224  1.9517 -3.1698
   7823SM   C1410262   2.573   6.925  17.165  0.3284  0.1164  0.2684
   7823SM  H14A10263   2.578   6.851  17.243  0.0131  0.7821  0.9295
   7823SM  H14B10264   2.668   6.976  17.177  1.3364 -1.2246 -1.4545
   7823SM  H14C10265   2.570   6.882  17.066 -0.7053 -0.0862  0.3824
   7823SM   C1310266   2.342   6.944  17.152  0.3806  0.8309 -0.2630
   7823SM  H13A10267   2.252   7.004  17.146  0.3108  0.6477 -1.3042
   7823SM  H13B10268   2.334   6.859  17.218 -1.3393 -0.2603 -1.7592
   7823SM  H13C10269   2.350   6.908  17.050  1.1154  1.9634 -0.6252
   7823SM   C1210270   2.480   7.153  17.093 -0.0347 -0.4875 -0.2687
   7823SM  H12A10271   2.580   7.191  17.108 -0.8161  1.2421  0.8575
   7823SM  H12B10272   2.413   7.227  17.133 -0.4072 -1.0916  0.2452
   7823SM   C1110273   2.453   7.150  16.943  1.1596  0.5270  0.8035
   7823SM  H11A10274   2.521   7.070  16.905 -0.1171 -0.1926 -0.0392
   7823SM  H11B10275   2.488   7.236  16.882 -1.8384  0.6978 -0.8253
   7823SM     P10276   2.190   7.189  16.936 -0.4639  0.0943 -0.5260
   7823SM   O1310277   2.079   7.100  16.901 -0.7758 -0.6197 -0.1985
   7823SM   O1410278   2.190   7.232  17.078 -0.2866 -0.1238  0.3197
   7823SM   O1110279   2.208   7.311  16.842  0.0144 -0.3074 -0.5760
   7823SM   O1210280   2.319   7.111  16.904 -0.6911  0.2703 -0.1047
   7823SM   C1S10281   2.209   7.309  16.694 -0.1588  0.1852 -0.1606
   7823SM   H1S10282   2.108   7.280  16.658 -1.6649 -0.3055  3.9176
   7823SM   H1T10283   2.276   7.230  16.652 -1.9514 -0.4255 -2.0431
   7823SM    NF10284   2.211   7.446  16.486 -0.3439 -0.3203  0.0264
   7823SM   HNF10285   2.291   7.436  16.427  0.7676  2.0647  1.0043
   7823SM   C2S10286   2.236   7.453  16.630 -0.3341 -0.0275  0.1696
   7823SM   H2S10287   2.163   7.519  16.681 -1.4470  0.6079 -2.0952
   7823SM   C3S10288   2.377   7.504  16.677 -0.1900  0.3274 -0.3459
   7823SM   H3S10289   2.446   7.424  16.641  0.5720 -1.0127  3.5813
   7823SM    O310290   2.397   7.514  16.819 -0.2786  0.4842  0.1484
   7823SM   HO310291   2.338   7.451  16.861  0.3373 -0.0538  0.2264
   7823SM   C4S10292   2.410   7.630  16.618  0.0927 -0.1048 -0.3646
   7823SM   H4S10293   2.331   7.706  16.608 -0.4614 -0.4558  1.1373
   7823SM   C5S10294   2.535   7.655  16.575  0.6030 -0.2323  0.1447
   7823SM   H5S10295   2.620   7.585  16.579 -0.3221 -1.3471  0.9756
   7823SM   C6S10296   2.569   7.786  16.510 -0.2312 -0.0087  0.8899
   7823SM   H6S10297   2.677   7.809  16.525  0.0088 -0.5322  0.0490
   7823SM   H6T10298   2.503   7.866  16.550 -1.9668 -0.1842 -1.4106
   7823SM   C7S10299   2.542   7.775  16.363  0.7516  0.2617 -0.6606
   7823SM   H7S10300   2.437   7.756  16.333  1.3910 -0.9672 -2.2271
   7823SM   H7T10301   2.600   7.691  16.319 -1.2781 -1.1544 -0.7555
   7823SM   C8S10302   2.599   7.894  16.276  0.0288  0.1810 -0.6188
   7823SM   H8S10303   2.696   7.927  16.318  0.9442 -1.2051 -1.5934
   7823SM   H8T10304   2.525   7.977  16.288 -0.4432 -0.2989 -0.1560
   7823SM   C9S10305   2.609   7.854  16.124  0.0989 -0.1367  0.3813
   7823SM   H9S10306   2.517   7.803  16.090  1.4390 -0.9973 -2.2874
   7823SM   H9T10307   2.693   7.782  16.112  0.7629  0.7578 -0.5949
   7823SM  C10S10308   2.633   7.974  16.030 -0.2169  0.0241  0.2532
   7823SM  H10S10309   2.737   8.014  16.030  0.9434 -2.7122 -0.8527
   7823SM  H10T10310   2.571   8.063  16.054  0.3018  0.5595 -0.3568
   7823SM  C11S10311   2.599   7.931  15.881 -0.3991 -0.1237  0.3431
   7823SM  H11S10312   2.627   7.825  15.865 -1.3602 -0.0041 -2.8531
   7823SM  H11T10313   2.664   8.001  15.824 -3.5714  1.8151 -1.1982
   7823SM  C12S10314   2.454   7.959  15.856  0.4965  0.1965  0.5760
   7823SM  H12S10315   2.433   8.067  15.844 -0.6546 -0.1419 -0.6564
   7823SM  H12T10316   2.381   7.921  15.931  1.4828  1.0144  1.9967
   7823SM  C13S10317   2.406   7.901  15.713 -0.6643 -0.0567 -0.4298
   7823SM  H13S10318   2.409   7.790  15.709  0.3428 -0.1008  0.8297
   7823SM  H13T10319   2.479   7.938  15.638 -0.7026 -0.6050 -0.7426
   7823SM  C14S10320   2.273   7.953  15.671  0.7142  0.2265  0.3414
   7823SM  H14S10321   2.282   8.056  15.630  0.2462  0.2903  0.3877
   7823SM  H14T10322   2.200   7.948  15.755  0.2108 -0.0223 -0.1031
   7823SM  C15S10323   2.207   7.861  15.558  0.0952 -0.2687 -0.5314
   7823SM  H15S10324   2.186   7.760  15.599 -0.6969  0.5936  1.2937
   7823SM  H15T10325   2.276   7.858  15.471  0.1539  3.3439 -0.7608
   7823SM  C16S10326   2.076   7.920  15.496 -0.3476  0.5624  1.0710
   7823SM  H16S10327   2.094   8.025  15.466  2.1816  0.3884  1.6901
   7823SM  H16T10328   1.996   7.916  15.573  0.6436  1.0389  2.1519
   7823SM  C17S10329   2.028   7.845  15.374 -0.8081 -0.1145  0.4177
   7823SM  H17S10330   1.937   7.896  15.334  0.2723  1.2687 -0.3712
   7823SM  H17T10331   2.001   7.745  15.414  3.1332 -1.4005  0.3082
   7823SM  C18S10332   2.129   7.833  15.250 -0.5616 -0.6973 -0.3216
   7823SM  H18S10333   2.157   7.933  15.211  1.8651 -1.4009 -0.6129
   7823SM  H18T10334   2.084   7.775  15.166 -0.7102 -0.7324 -0.2169
   7823SM  H18U10335   2.218   7.779  15.288 -1.3636  0.0219  2.7928
   7823SM   C1F10336   2.091   7.431  16.427 -0.1432  0.6084 -0.6066
   7823SM    OF10337   1.988   7.447  16.495 -0.3645  0.3156  0.7017
   7823SM   C2F10338   2.085   7.388  16.281  0.2288 -0.0068  0.1531
   7823SM   H2F10339   2.179   7.331  16.267 -0.0127 -0.3179 -0.2328
   7823SM   H2G10340   2.076   7.476  16.214  2.2368  1.9857  2.3105
   7823SM   C3F10341   1.969   7.295  16.248  0.6007  0.4281  0.2260
   7823SM   H3F10342   1.873   7.316  16.298 -0.0826 -1.7423 -0.0794
   7823SM   H3G10343   2.010   7.202  16.294  0.1405 -0.6794 -1.5281
   7823SM   C4F10344   1.961   7.261  16.098  0.9702  0.0509  0.7051
   7823SM   H4F10345   1.949   7.355  16.039  2.5182 -0.6832 -0.8503
   7823SM   H4G10346   1.877   7.189  16.085  3.3558 -2.8985  0.6606
   7823SM   C5F10347   2.086   7.187  16.046  0.3565 -0.2272  0.5929
   7823SM   H5F10348   2.099   7.100  16.114  0.6639  0.9665  2.1223
   7823SM   H5G10349   2.173   7.255  16.044  0.3130 -0.1819 -0.7806
   7823SM   C6F10350   2.063   7.143  15.899 -0.0373  0.0867 -0.0254
   7823SM   H6F10351   2.025   7.233  15.846 -1.9400 -0.7938 -0.2586
   7823SM   H6G10352   1.978   7.071  15.896 -1.5745  1.8301 -2.7684
   7823SM   C7F10353   2.187   7.095  15.836  0.0726 -0.0452 -0.1038
   7823SM   H7F10354   2.242   7.027  15.905  1.5319 -0.3070 -1.4611
   7823SM   H7G10355   2.253   7.179  15.808  0.9269 -1.0121 -1.0905
   7823SM   C8F10356   2.177   7.026  15.703  0.4557  0.6428 -0.6779
   7823SM   H8F10357   2.098   7.067  15.636 -1.9108 -0.4976  1.2652
   7823SM   H8G10358   2.155   6.922  15.735  1.6054  0.0646 -1.6916
   7823SM   C9F10359   2.308   7.030  15.632 -0.4720 -0.4928 -0.4226
   7823SM   H9F10360   2.389   7.045  15.707  0.5038 -1.2960 -1.2871
   7823SM   H9G10361   2.314   7.117  15.563 -0.3918 -0.4727 -0.3911
   7823SM  C10F10362   2.335   6.906  15.543  0.1198  0.0088  0.0077
   7823SM  H10F10363   2.249   6.892  15.474 -0.1719 -1.0406  0.5563
   7823SM  H10G10364   2.340   6.822  15.616  4.2060  0.5338  0.5577
   7823SM  C11F10365   2.466   6.915  15.482  0.6815  0.0808  0.4077
   7823SM  H11F10366   2.490   6.813  15.445 -1.5054 -0.9540  1.6431
   7823SM  H11G10367   2.537   6.947  15.561 -0.2363 -1.2145  1.8141
   7823SM  C12F10368   2.492   7.007  15.361  0.4194  0.8491 -0.0024
   7823SM  H12F10369   2.451   7.108  15.384 -0.6639  0.3833  0.1996
   7823SM  H12G10370   2.428   6.963  15.282 -1.0668  0.3971  1.3907
   7823SM  C13F10371   2.645   7.003  15.320  0.0586 -0.2288 -0.3458
   7823SM  H13F10372   2.666   6.895  15.306 -0.4453 -0.2282 -1.2312
   7823SM  H13G10373   2.709   7.037  15.404 -0.9364 -0.2312  0.4411
   7823SM  C14F10374   2.675   7.084  15.193 -0.4677 -0.3556  0.3640
   7823SM  H14F10375   2.650   7.191  15.212  3.3632  0.6931  0.2026
   7823SM  H14G10376   2.617   7.053  15.104 -0.8017  1.7542 -0.2114
   7823SM  C15F10377   2.824   7.088  15.157  0.2280  0.2298 -0.2190
   7823SM  H15F10378   2.845   7.114  15.051  2.8654 -0.1360  0.1491
   7823SM  H15G10379   2.865   6.986  15.171  0.8814  0.6946  1.4547
   7823SM  C16F10380   2.894   7.192  15.246  0.0862  0.2255  0.3780
   7823SM  H16F10381   2.859   7.187  15.351  0.7479 -0.9038  0.5556
   7823SM  H16G10382   2.851   7.288  15.211  2.4755  2.0321  2.1568
   7823SM  C17F10383   3.045   7.195  15.241 -0.2180  0.2434  0.6466
   7823SM  H17F10384   3.079   7.295  15.273  0.8314  0.8206 -2.0087
   7823SM  H17G10385   3.070   7.182  15.134 -1.9760 -0.4950  0.2805
   7823SM  C18F10386   3.105   7.086  15.327 -0.4703  0.5436 -0.2085
   7823SM  H18F10387   3.197   7.043  15.280 -0.6066 -1.1073  0.9573
   7823SM  H18G10388   3.034   7.002  15.332 -0.7687  0.8543  0.9717
   7823SM  C19F10389   3.146   7.135  15.464 -0.0417 -0.6757  0.2863
   7823SM  H19F10390   3.059   7.180  15.515  0.5065 -1.1006  1.6485
   7823SM  H19G10391   3.226   7.211  15.448 -0.0914 -0.7335 -0.2675
   7823SM  C20F10392   3.176   7.026  15.569  0.0267  0.3823  0.3622
   7823SM  H20F10393   3.095   6.972  15.622  0.1983 -0.6952 -0.4544
   7823SM  H20G10394   3.230   7.079  15.651  0.1769  0.1878  0.3927
   7823SM  C21F10395   3.264   6.913  15.519  0.2232 -0.5276  0.0231
   7823SM  H21F10396   3.214   6.863  15.434 -0.5040 -0.3407  0.3339
   7823SM  H21G10397   3.276   6.844  15.605 -0.7052  2.1926  2.5155
   7823SM  C22F10398   3.403   6.964  15.487  0.0644  0.5539 -0.2561
   7823SM  H22F10399   3.441   7.043  15.555  2.4696 -3.0582  3.0792
   7823SM  H22G10400   3.400   7.013  15.388 -3.0155 -0.0528 -0.5581
   7823SM  C23F10401   3.502   6.849  15.467 -0.3847  0.3107  0.3930
   7823SM  H23F10402   3.543   6.803  15.560  0.2620  0.1568  0.0417
   7823SM  H23G10403   3.587   6.884  15.404  1.0277 -0.7577  1.6333
   7823SM  H23H10404   3.449   6.773  15.407 -0.1466  0.9772 -0.6960
   7923SM     N10405   1.429   7.623  17.188 -0.7633  0.2120  0.1304
   7923SM   C1510406   1.454   7.707  17.071 -0.3045  0.0734 -1.0420
   7923SM  H15A10407   1.540   7.768  17.092 -0.6468 -0.3887  2.1308
   7923SM  H15B10408   1.375   7.773  17.039 -1.0872  0.5450  1.6589
   7923SM  H15C10409   1.482   7.639  16.991 -1.0902 -1.9451  0.3014
   7923SM   C1410410   1.560   7.568  17.225  0.0745  0.3003  0.6879
   7923SM  H14A10411   1.620   7.643  17.275  0.1811  2.4106 -2.3558
   7923SM  H14B10412   1.612   7.512  17.149 -2.4676 -2.3471  0.7316
   7923SM  H14C10413   1.535   7.495  17.301  1.2930 -1.3983 -0.4744
   7923SM   C1310414   1.381   7.713  17.297  0.6302  0.1796 -0.9017
   7923SM  H13A10415   1.280   7.748  17.285  0.2059 -0.3944  0.7045
   7923SM  H13B10416   1.436   7.806  17.313 -0.0936  0.3265  1.0093
   7923SM  H13C10417   1.386   7.668  17.395  3.5028 -1.1262 -1.5389
   7923SM   C1210418   1.334   7.516  17.156  0.8733  0.3881 -0.0643
   7923SM  H12A10419   1.242   7.566  17.129  1.4476  1.4983 -0.0171
   7923SM  H12B10420   1.310   7.468  17.250 -1.8239  1.1897 -0.2591
   7923SM   C1110421   1.376   7.412  17.049  0.8768  0.4614 -0.0319
   7923SM  H11A10422   1.303   7.329  17.049  2.4325 -0.9423 -0.0020
   7923SM  H11B10423   1.475   7.369  17.074 -0.0389 -0.6585  1.8810
   7923SM     P10424   1.268   7.494  16.820 -0.2103 -0.0064  0.1851
   7923SM   O1310425   1.189   7.369  16.808 -0.5623 -0.2178 -0.1474
   7923SM   O1410426   1.203   7.622  16.860 -0.0280 -0.2745  0.0043
   7923SM   O1110427   1.348   7.510  16.682  0.0946  0.8079 -0.2999
   7923SM   O1210428   1.391   7.460  16.917 -0.2496 -0.1403  0.5925
   7923SM   C1S10429   1.420   7.395  16.644 -0.2280  0.4899  0.2272
   7923SM   H1S10430   1.355   7.306  16.629  1.3844 -0.4592 -1.6224
   7923SM   H1T10431   1.503   7.372  16.715  0.5520  3.7205  0.5316
   7923SM    NF10432   1.504   7.307  16.434 -0.2429 -0.3303 -0.2407
   7923SM   HNF10433   1.596   7.268  16.440 -0.6246 -1.4494 -1.3187
   7923SM   C2S10434   1.484   7.432  16.503  0.2656  0.7220  0.0504
   7923SM   H2S10435   1.408   7.488  16.445  0.2492  1.4156  0.7309
   7923SM   C3S10436   1.610   7.523  16.527  0.3551  0.0911  0.0263
   7923SM   H3S10437   1.685   7.457  16.575 -0.0320 -0.8404 -0.6212
   7923SM    O310438   1.587   7.632  16.620 -0.0544 -0.3200 -0.7291
   7923SM   HO310439   1.493   7.622  16.639  0.1916 -2.5128 -0.3331
   7923SM   C4S10440   1.663   7.573  16.400 -1.0278  0.1908 -1.0089
   7923SM   H4S10441   1.734   7.498  16.360 -0.6199 -0.3582  0.6661
   7923SM   C5S10442   1.643   7.690  16.336 -0.0632  0.2075 -0.2372
   7923SM   H5S10443   1.560   7.750  16.375  0.3436  0.2376  0.6009
   7923SM   C6S10444   1.704   7.733  16.201 -0.3740  0.0386 -0.2791
   7923SM   H6S10445   1.789   7.665  16.179 -0.9238 -0.9340  0.5309
   7923SM   H6T10446   1.748   7.835  16.211  3.3082 -1.5457  1.3524
   7923SM   C7S10447   1.614   7.722  16.080  0.3875  1.2392  0.1364
   7923SM   H7S10448   1.670   7.743  15.986 -1.6369  2.3514 -0.8879
   7923SM   H7T10449   1.536   7.801  16.076  0.3331  1.2747  1.4967
   7923SM   C8S10450   1.566   7.577  16.058  0.7648 -0.2579  0.0826
   7923SM   H8S10451   1.493   7.548  16.136  0.5006  2.9623  1.1709
   7923SM   H8T10452   1.656   7.511  16.055  2.0927  1.4544  0.5647
   7923SM   C9S10453   1.483   7.561  15.928 -0.4715 -0.0094  0.0626
   7923SM   H9S10454   1.451   7.455  15.919  1.6496 -0.8172  1.3462
   7923SM   H9T10455   1.537   7.589  15.836  1.8969 -2.0084  0.7556
   7923SM  C10S10456   1.346   7.639  15.939 -1.1511  0.1274 -0.3062
   7923SM  H10S10457   1.373   7.746  15.942 -0.6836 -0.0130  1.1258
   7923SM  H10T10458   1.297   7.595  16.029  0.4841  1.7590  1.4789
   7923SM  C11S10459   1.267   7.616  15.813 -0.4759  0.1579  0.5406
   7923SM  H11S10460   1.328   7.606  15.721 -0.1109  2.6246  0.4587
   7923SM  H11T10461   1.214   7.712  15.796 -1.1394 -0.3944 -0.6423
   7923SM  C12S10462   1.156   7.503  15.826  0.3758 -0.1445 -0.6373
   7923SM  H12S10463   1.075   7.545  15.889 -1.4746 -1.7177 -1.8486
   7923SM  H12T10464   1.195   7.405  15.858  1.1694  0.1175 -0.7961
   7923SM  C13S10465   1.072   7.477  15.700 -0.3154 -0.0852  0.4722
   7923SM  H13S10466   1.004   7.394  15.728 -0.0550 -0.4265  0.0970
   7923SM  H13T10467   1.148   7.436  15.630  0.7542  1.4580  0.6787
   7923SM  C14S10468   1.000   7.602  15.655 -0.5027  0.4031 -0.0170
   7923SM  H14S10469   1.076   7.672  15.616  1.0598 -0.8953  0.5801
   7923SM  H14T10470   0.942   7.655  15.734 -0.0060 -1.2601  1.5228
   7923SM  C15S10471   0.898   7.571  15.539  0.5143 -0.6200  0.1138
   7923SM  H15S10472   0.861   7.673  15.514 -0.8686 -1.2567 -0.5371
   7923SM  H15T10473   0.818   7.513  15.588  1.4759 -0.8466  1.4627
   7923SM  C16S10474   0.953   7.499  15.413  0.2085  0.2598  0.4601
   7923SM  H16S10475   0.883   7.422  15.376  1.2771  0.6787 -2.6640
   7923SM  H16T10476   1.060   7.476  15.432  0.3303  0.9169  0.5968
   7923SM  C17S10477   0.960   7.609  15.300  0.5402  0.4178  0.0644
   7923SM  H17S10478   1.005   7.705  15.332 -0.3508  0.7296  0.4295
   7923SM  H17T10479   0.852   7.628  15.281  0.2237  1.4970  2.5374
   7923SM  C18S10480   1.022   7.561  15.164  0.0616  0.1913  0.2583
   7923SM  H18S10481   1.002   7.635  15.084  0.3508  1.4816  1.3457
   7923SM  H18T10482   0.964   7.477  15.120 -0.0541 -0.4953  1.6456
   7923SM  H18U10483   1.127   7.528  15.180 -0.3090 -1.1929 -0.0593
   7923SM   C1F10484   1.404   7.243  16.381 -0.7469 -0.0665 -0.3682
   7923SM    OF10485   1.296   7.298  16.363 -0.7843  0.4386  0.2287
   7923SM   C2F10486   1.440   7.093  16.345 -0.2777 -0.0567  0.5171
   7923SM   H2F10487   1.363   7.016  16.367  0.3955 -0.1495  2.9269
   7923SM   H2G10488   1.517   7.069  16.422  0.2362 -0.4666 -0.1240
   7923SM   C3F10489   1.514   7.084  16.211  0.7870  0.6991  1.1033
   7923SM   H3F10490   1.524   6.976  16.185  0.6476  0.4433  2.0574
   7923SM   H3G10491   1.615   7.130  16.211  0.5616  1.2138  1.8521
   7923SM   C4F10492   1.438   7.155  16.088 -0.2916  0.5869 -0.6942
   7923SM   H4F10493   1.505   7.152  16.000  0.9742  0.7391  0.2409
   7923SM   H4G10494   1.392   7.252  16.117  1.4379  0.9592  1.0151
   7923SM   C5F10495   1.321   7.065  16.055  0.1602 -0.7682 -0.5543
   7923SM   H5F10496   1.244   7.059  16.134 -0.2424  1.6786 -0.7045
   7923SM   H5G10497   1.350   6.957  16.052  0.1310 -0.8863  1.7380
   7923SM   C6F10498   1.233   7.087  15.935 -0.8861 -0.2218  0.4703
   7923SM   H6F10499   1.177   7.183  15.933 -0.4620  0.0701  1.8031
   7923SM   H6G10500   1.147   7.016  15.932 -0.3454 -0.9252  1.0984
   7923SM   C7F10501   1.318   7.100  15.808  0.5367  0.3084  0.4477
   7923SM   H7F10502   1.397   7.022  15.805  0.6292  0.4177 -2.7146
   7923SM   H7G10503   1.373   7.197  15.807 -0.3589  0.8266  0.0457
   7923SM   C8F10504   1.240   7.093  15.673  0.1342 -0.1700 -0.2557
   7923SM   H8F10505   1.157   7.167  15.680  1.3004  1.1509  0.0644
   7923SM   H8G10506   1.196   6.994  15.649  1.3211 -0.3451 -1.8879
   7923SM   C9F10507   1.321   7.140  15.555 -0.0067 -0.2729 -0.2881
   7923SM   H9F10508   1.418   7.088  15.541 -0.5597 -1.2932 -0.4022
   7923SM   H9G10509   1.348   7.248  15.557 -1.4816  0.1143  0.3459
   7923SM  C10F10510   1.239   7.131  15.424  0.0358 -0.2574 -0.3249
   7923SM  H10F10511   1.147   7.187  15.451 -2.3584 -3.6231 -0.9007
   7923SM  H10G10512   1.211   7.025  15.407 -0.7086 -0.3395  1.1970
   7923SM  C11F10513   1.310   7.186  15.307  0.2679 -0.0953  0.8451
   7923SM  H11F10514   1.396   7.118  15.288  0.5282  0.3787  0.2881
   7923SM  H11G10515   1.353   7.287  15.322  0.1084  0.1225 -0.1546
   7923SM  C12F10516   1.220   7.205  15.189 -0.3465 -0.2949 -0.1656
   7923SM  H12F10517   1.145   7.287  15.200  0.5445  0.3077  1.7289
   7923SM  H12G10518   1.158   7.114  15.181 -1.3927  0.4628 -0.9625
   7923SM  C13F10519   1.293   7.218  15.057 -0.2245  0.3348  0.0287
   7923SM  H13F10520   1.387   7.159  15.053 -0.8499 -0.6735  0.0939
   7923SM  H13G10521   1.338   7.320  15.054 -0.9911  0.7000  0.7503
   7923SM  C14F10522   1.219   7.186  14.931  0.5054 -0.1780  0.1656
   7923SM  H14F10523   1.133   7.256  14.921  0.1761 -0.4916  0.8070
   7923SM  H14G10524   1.180   7.083  14.942  3.0171 -1.1158  0.9408
   7923SM  C15F10525   1.304   7.185  14.803  0.4739 -0.0537  0.3022
   7923SM  H15F10526   1.386   7.111  14.817  0.2764 -0.5213 -0.8864
   7923SM  H15G10527   1.347   7.288  14.794  4.1369 -1.3703  0.7351
   7923SM  C16F10528   1.217   7.156  14.673 -0.5724 -0.6836 -0.7527
   7923SM  H16F10529   1.126   7.220  14.669 -1.0595 -1.1379  1.6747
   7923SM  H16G10530   1.172   7.055  14.667  0.0800 -0.9003 -2.6083
   7923SM  C17F10531   1.313   7.162  14.552  0.2665  0.3940  0.2337
   7923SM  H17F10532   1.269   7.116  14.461 -0.4710 -0.6050  1.0725
   7923SM  H17G10533   1.405   7.105  14.575  0.4071  0.6240  0.2493
   7923SM  C18F10534   1.355   7.305  14.510  0.6920  0.0793 -0.1503
   7923SM  H18F10535   1.441   7.299  14.439 -0.7827 -1.9482 -1.8982
   7923SM  H18G10536   1.376   7.371  14.597 -1.2779  0.8888 -0.2471
   7923SM  C19F10537   1.240   7.381  14.445 -0.0422  0.0671  0.3829
   7923SM  H19F10538   1.168   7.399  14.528  0.7066  0.1466  1.0231
   7923SM  H19G10539   1.184   7.305  14.386  0.6238 -1.9934  2.2953
   7923SM  C20F10540   1.278   7.503  14.361  0.7995  0.5443 -0.1918
   7923SM  H20F10541   1.370   7.487  14.301  1.9288  2.3987  0.9339
   7923SM  H20G10542   1.305   7.581  14.436 -1.4479  0.1461  1.1088
   7923SM  C21F10543   1.171   7.544  14.265 -0.1400 -0.6207 -0.5733
   7923SM  H21F10544   1.085   7.578  14.326  0.7015 -0.4496  0.5328
   7923SM  H21G10545   1.130   7.448  14.226 -2.1168 -0.4821  1.0473
   7923SM  C22F10546   1.215   7.650  14.162 -0.7061  0.2884  0.8109
   7923SM  H22F10547   1.276   7.735  14.198 -0.5269  0.6701 -0.3420
   7923SM  H22G10548   1.123   7.690  14.113 -1.0653  0.3867  1.5414
   7923SM  C23F10549   1.293   7.594  14.041  0.4265  0.6392 -0.3412
   7923SM  H23F10550   1.387   7.544  14.074  0.7527 -0.8387 -3.1527
   7923SM  H23G10551   1.317   7.683  13.979 -0.2913  1.7859  0.9844
   7923SM  H23H10552   1.232   7.518  13.987 -1.0743  1.1259  0.6351
   8023SM     N10553   1.825   7.371  16.885 -0.2801  0.3794 -0.8188
   8023SM   C1510554   1.814   7.271  16.996 -0.0226  0.0817  0.6814
   8023SM  H15A10555   1.787   7.324  17.087  0.5399  1.1737  0.2325
   8023SM  H15B10556   1.908   7.221  17.015 -0.6305 -1.2338  0.3344
   8023SM  H15C10557   1.733   7.204  16.971  0.7562 -0.1863 -1.2724
   8023SM   C1410558   1.865   7.299  16.758 -0.3020  0.5873 -0.5387
   8023SM  H14A10559   1.933   7.218  16.781  0.8959  0.7163 -3.2405
   8023SM  H14B10560   1.905   7.362  16.680 -1.1926  1.0975 -0.5995
   8023SM  H14C10561   1.776   7.253  16.719  0.4229 -1.9715  0.6094
   8023SM   C1310562   1.695   7.441  16.879  1.0070 -0.7736 -0.4589
   8023SM  H13A10563   1.676   7.495  16.787  0.0747  0.4662  0.4263
   8023SM  H13B10564   1.678   7.506  16.964  0.4278 -0.2487 -0.9611
   8023SM  H13C10565   1.616   7.368  16.879  1.0434 -0.8148  0.0727
   8023SM   C1210566   1.939   7.470  16.913  0.1371  0.0094  0.5934
   8023SM  H12A10567   1.946   7.542  16.833 -0.7361 -0.5986 -0.0464
   8023SM  H12B10568   2.034   7.418  16.909  0.8849  1.4134 -2.0276
   8023SM   C1110569   1.938   7.548  17.049 -0.2238  0.1680 -0.2623
   8023SM  H11A10570   2.031   7.608  17.053  0.3158 -0.6110 -0.8542
   8023SM  H11B10571   1.951   7.474  17.131  2.0186 -1.3573 -1.8625
   8023SM     P10572   1.851   7.781  17.103  0.0877  0.1320 -0.3238
   8023SM   O1310573   1.720   7.850  17.130 -0.3674  0.0674  0.0033
   8023SM   O1410574   1.954   7.780  17.213 -0.0674  0.3547  0.6690
   8023SM   O1110575   1.911   7.836  16.967 -0.0196 -0.0011 -0.0288
   8023SM   O1210576   1.816   7.622  17.071 -0.5840 -0.0579  0.2562
   8023SM   C1S10577   1.806   7.864  16.868 -0.1040 -0.3375  0.5042
   8023SM   H1S10578   1.737   7.945  16.899 -0.3925 -0.6560  0.6987
   8023SM   H1T10579   1.744   7.772  16.865  2.6167 -2.3605  1.7564
   8023SM    NF10580   1.744   7.903  16.631  0.3618  0.9597  0.6058
   8023SM   HNF10581   1.713   7.813  16.601 -1.9764  1.4656  1.3159
   8023SM   C2S10582   1.858   7.886  16.719 -0.1628  0.0098 -0.4837
   8023SM   H2S10583   1.914   7.981  16.730  0.0785 -0.3467  2.0144
   8023SM   C3S10584   1.965   7.773  16.680  0.1778 -0.7485  0.0666
   8023SM   H3S10585   1.919   7.674  16.701  1.1554 -0.6803  2.8526
   8023SM    O310586   2.080   7.773  16.755 -0.8809 -0.2560 -0.4067
   8023SM   HO310587   2.063   7.835  16.826 -1.5456 -0.3949 -0.4439
   8023SM   C4S10588   1.993   7.787  16.534  0.3671  0.0081  0.1489
   8023SM   H4S10589   1.952   7.698  16.483  0.1691 -0.5965  1.3324
   8023SM   C5S10590   2.067   7.877  16.469 -0.3168 -0.0747  0.6300
   8023SM   H5S10591   2.111   7.965  16.519  1.2031  0.2905 -1.2110
   8023SM   C6S10592   2.087   7.877  16.320 -0.1169 -0.1739  0.2436
   8023SM   H6S10593   2.179   7.932  16.291 -0.0575  0.0833  0.8998
   8023SM   H6T10594   2.009   7.928  16.259  1.2584  2.1648  0.3464
   8023SM   C7S10595   2.104   7.735  16.254  0.2787 -1.0799  0.0965
   8023SM   H7S10596   2.008   7.679  16.259 -1.1614  1.0939 -1.4458
   8023SM   H7T10597   2.181   7.693  16.322 -1.1514 -0.7240  2.0102
   8023SM   C8S10598   2.169   7.728  16.112 -0.4331  0.4072 -0.8657
   8023SM   H8S10599   2.205   7.623  16.112 -1.8398 -0.1527  1.0937
   8023SM   H8T10600   2.251   7.802  16.107 -1.5968  1.7728 -0.5328
   8023SM   C9S10601   2.083   7.758  15.986 -0.2175 -0.1245  0.0159
   8023SM   H9S10602   2.156   7.779  15.904  0.7396 -1.4928  0.4904
   8023SM   H9T10603   2.036   7.856  16.008  2.6021  2.1229 -2.8833
   8023SM  C10S10604   1.995   7.645  15.956 -0.3333 -0.0890 -0.3904
   8023SM  H10S10605   1.928   7.633  16.043  0.4341 -1.3816  0.0395
   8023SM  H10T10606   2.055   7.552  15.948 -0.2526 -0.1346  0.6832
   8023SM  C11S10607   1.926   7.684  15.823  0.5982 -0.2081  0.5527
   8023SM  H11S10608   2.001   7.716  15.747 -0.8356 -3.2189 -2.3945
   8023SM  H11T10609   1.869   7.779  15.836  1.7271  0.3371  1.7221
   8023SM  C12S10610   1.844   7.577  15.749  0.3542  0.5148  0.3484
   8023SM  H12S10611   1.761   7.537  15.812 -0.6344 -0.5504 -1.5516
   8023SM  H12T10612   1.908   7.489  15.731 -0.4965 -0.5099  2.0334
   8023SM  C13S10613   1.787   7.626  15.613  0.2682  0.0307  0.4539
   8023SM  H13S10614   1.856   7.684  15.549 -1.3429  2.2315  0.6084
   8023SM  H13T10615   1.715   7.707  15.637 -0.6237 -0.1578 -1.4136
   8023SM  C14S10616   1.711   7.517  15.530  0.5147  0.5619  0.1975
   8023SM  H14S10617   1.638   7.477  15.604 -0.7346  1.5995 -0.4218
   8023SM  H14T10618   1.778   7.433  15.502  0.9662  1.7228 -2.5138
   8023SM  C15S10619   1.637   7.568  15.405 -0.3375  0.4851 -0.5408
   8023SM  H15S10620   1.558   7.640  15.434 -0.2376  0.5300 -0.3789
   8023SM  H15T10621   1.587   7.490  15.343  0.5526 -0.2705 -0.3246
   8023SM  C16S10622   1.730   7.648  15.314 -0.2816  0.1954  0.5779
   8023SM  H16S10623   1.827   7.594  15.307  0.1316  1.1801 -3.1262
   8023SM  H16T10624   1.753   7.750  15.353  0.6154  0.3676 -0.3698
   8023SM  C17S10625   1.670   7.670  15.171  0.3611 -0.1242  0.4597
   8023SM  H17S10626   1.732   7.747  15.120  1.3460 -0.0881  1.6592
   8023SM  H17T10627   1.570   7.712  15.194 -1.2867 -1.7516 -2.9575
   8023SM  C18S10628   1.659   7.546  15.083  0.2369 -0.2488 -0.2686
   8023SM  H18S10629   1.757   7.495  15.091  0.5163  0.0494 -1.6307
   8023SM  H18T10630   1.643   7.586  14.981 -0.0080  1.5000  0.4083
   8023SM  H18U10631   1.577   7.482  15.122  0.5564 -0.8200 -0.5255
   8023SM   C1F10632   1.664   8.007  16.621  0.6406 -0.5416  0.1427
   8023SM    OF10633   1.706   8.111  16.676 -0.1722  0.8495  0.1353
   8023SM   C2F10634   1.521   7.987  16.569  0.4831 -0.3581 -0.4679
   8023SM   H2F10635   1.447   7.968  16.650  0.4574 -2.0615 -0.8591
   8023SM   H2G10636   1.520   7.894  16.508 -1.7144 -0.1080 -0.8927
   8023SM   C3F10637   1.471   8.111  16.486 -0.2833  0.7492 -0.9466
   8023SM   H3F10638   1.545   8.106  16.404  1.1803 -0.8934  0.3843
   8023SM   H3G10639   1.470   8.204  16.546 -1.4284 -0.2183  0.6224
   8023SM   C4F10640   1.336   8.088  16.422 -0.0394  0.2020  0.3311
   8023SM   H4F10641   1.259   8.095  16.502  0.0816  2.2650  0.3203
   8023SM   H4G10642   1.334   7.989  16.372  0.0626  0.6416 -0.5597
   8023SM   C5F10643   1.306   8.203  16.327  0.6233  0.0366 -0.0040
   8023SM   H5F10644   1.276   8.294  16.384  1.0947  0.3678 -0.2811
   8023SM   H5G10645   1.209   8.186  16.275  1.3328  1.1772 -1.7929
   8023SM   C6F10646   1.413   8.244  16.231  0.0313  0.2384  0.5436
   8023SM   H6F10647   1.466   8.153  16.194 -0.4170 -0.2541  1.1044
   8023SM   H6G10648   1.491   8.299  16.287  2.7196 -2.7481  0.0574
   8023SM   C7F10649   1.357   8.336  16.120 -0.1312  0.4811 -0.3765
   8023SM   H7F10650   1.310   8.430  16.155  0.5230  0.8514 -0.4872
   8023SM   H7G10651   1.282   8.279  16.061  1.3777 -2.5590  0.3883
   8023SM   C8F10652   1.465   8.382  16.014 -0.0040 -0.6822 -0.3675
   8023SM   H8F10653   1.494   8.293  15.955 -1.2518 -1.4546  0.1356
   8023SM   H8G10654   1.553   8.422  16.069 -0.1199  0.1328 -0.7516
   8023SM   C9F10655   1.426   8.496  15.927  0.6778 -0.2199 -0.0306
   8023SM   H9F10656   1.412   8.586  15.991 -0.3695 -0.7981  0.5764
   8023SM   H9G10657   1.326   8.466  15.888 -0.9897  0.9735  2.9529
   8023SM  C10F10658   1.527   8.525  15.819 -0.6595  0.2070 -0.6587
   8023SM  H10F10659   1.580   8.438  15.774 -0.0226  0.4677 -0.4259
   8023SM  H10G10660   1.607   8.580  15.873 -1.5239  1.1825 -0.3255
   8023SM  C11F10661   1.467   8.617  15.712  0.1381 -0.0469 -0.2529
   8023SM  H11F10662   1.401   8.685  15.771  0.2868 -1.8534  2.1603
   8023SM  H11G10663   1.392   8.563  15.651 -2.1846  1.2883  1.2434
   8023SM  C12F10664   1.579   8.684  15.630 -0.3658  0.6960  0.5538
   8023SM  H12F10665   1.650   8.607  15.593 -3.0219 -1.0586 -1.1978
   8023SM  H12G10666   1.623   8.752  15.707 -1.9541  1.1198  1.1194
   8023SM  C13F10667   1.537   8.773  15.506 -0.6074 -0.0496 -0.0734
   8023SM  H13F10668   1.629   8.822  15.468 -0.5123  0.1825  0.4531
   8023SM  H13G10669   1.468   8.860  15.517  1.1983  1.1734  2.2191
   8023SM  C14F10670   1.481   8.692  15.387 -0.2584  0.7231  0.1785
   8023SM  H14F10671   1.475   8.757  15.297  2.0642 -2.2093 -2.2950
   8023SM  H14G10672   1.378   8.670  15.421  0.3643 -0.2028  1.5700
   8023SM  C15F10673   1.557   8.563  15.354 -0.4972 -0.1374 -0.2071
   8023SM  H15F10674   1.531   8.484  15.427  1.2324  0.1652  0.7844
   8023SM  H15G10675   1.667   8.582  15.361 -0.2193 -1.3516 -0.9694
   8023SM  C16F10676   1.539   8.519  15.205  0.3878 -0.2562  0.2408
   8023SM  H16F10677   1.570   8.412  15.202  0.0360 -0.3455 -0.3270
   8023SM  H16G10678   1.624   8.565  15.150  1.3962 -1.4363  0.7617
   8023SM  C17F10679   1.413   8.533  15.134 -0.5996 -1.1098  0.3703
   8023SM  H17F10680   1.439   8.511  15.028  0.0852  1.6958 -0.1248
   8023SM  H17G10681   1.389   8.641  15.135 -0.0707 -0.9927  1.4871
   8023SM  C18F10682   1.308   8.452  15.193  0.4366 -0.2958 -0.4597
   8023SM  H18F10683   1.277   8.483  15.295 -0.1927 -0.3901 -0.6173
   8023SM  H18G10684   1.334   8.344  15.188  0.1063 -0.4575  0.8123
   8023SM  C19F10685   1.174   8.468  15.118  0.5125 -0.0005 -0.0298
   8023SM  H19F10686   1.156   8.578  15.121  1.7596  0.1918  1.7608
   8023SM  H19G10687   1.090   8.424  15.176 -0.1082  2.5220  1.1433
   8023SM  C20F10688   1.160   8.409  14.974  0.3644 -0.1475 -0.4777
   8023SM  H20F10689   1.170   8.299  14.984 -0.4577  0.0175  3.6742
   8023SM  H20G10690   1.235   8.453  14.905 -1.9557  0.6405 -2.7005
   8023SM  C21F10691   1.026   8.438  14.898 -0.4776 -0.4621  0.1674
   8023SM  H21F10692   0.993   8.539  14.931 -1.3144 -0.2852 -1.1664
   8023SM  H21G10693   0.954   8.370  14.949 -1.5596  1.4864  1.3581
   8023SM  C22F10694   1.026   8.434  14.744  0.0400  0.0717 -0.1281
   8023SM  H22F10695   1.103   8.510  14.718 -0.3057  1.5112  2.6943
   8023SM  H22G10696   0.921   8.461  14.720 -0.4805  1.1421  2.8894
   8023SM  C23F10697   1.060   8.298  14.692 -0.5417  0.0239  0.1236
   8023SM  H23F10698   0.990   8.226  14.740 -0.7900 -0.7431 -1.3494
   8023SM  H23G10699   1.164   8.268  14.716 -0.6389  0.3396  0.9698
   8023SM  H23H10700   1.042   8.291  14.583 -4.2270  2.2761  0.4037
   8123SM     N10701   4.741   3.401  12.797 -0.2134 -0.3176  0.0906
   8123SM   C1510702   4.722   3.544  12.821 -0.2671 -0.4233  0.0392
   8123SM  H15A10703   4.621   3.567  12.789  0.2637 -0.6818 -1.9528
   8123SM  H15B10704   4.787   3.608  12.763 -1.4617 -0.0729 -0.9536
   8123SM  H15C10705   4.731   3.561  12.927 -2.9830 -0.8705  0.4292
   8123SM   C1410706   4.723   3.372  12.651 -0.4976 -0.5087  0.2062
   8123SM  H14A10707   4.742   3.267  12.631  0.7332 -0.6110  1.6886
   8123SM  H14B10708   4.787   3.431  12.587 -1.0750  1.4962  1.4096
   8123SM  H14C10709   4.619   3.391  12.628 -0.4970 -1.3332 -0.5203
   8123SM   C1310710   4.879   3.365  12.835 -0.1863 -0.6402 -0.4745
   8123SM  H13A10711   4.942   3.423  12.769 -0.5212 -0.2211 -0.4365
   8123SM  H13B10712   4.900   3.260  12.828  0.9565 -0.4374 -0.2043
   8123SM  H13C10713   4.899   3.385  12.939  2.3247  0.3622 -1.0871
   8123SM   C1210714   4.644   3.315  12.878  0.2759 -0.2942  0.7678
   8123SM  H12A10715   4.672   3.215  12.848 -1.9313 -0.3426 -1.5379
   8123SM  H12B10716   4.544   3.320  12.836  1.0637 -1.2229 -1.3396
   8123SM   C1110717   4.630   3.327  13.031 -0.7581 -0.3102 -0.1589
   8123SM  H11A10718   4.541   3.269  13.064  0.9821 -1.5464  2.7822
   8123SM  H11B10719   4.597   3.429  13.062 -0.8433 -0.7572  1.2897
   8123SM     P10720   4.778   3.132  13.107 -0.2361  0.2712 -0.4983
   8123SM   O1310721   4.709   3.051  13.013  0.8098  0.6974  0.0304
   8123SM   O1410722   4.922   3.117  13.104 -0.3670  0.2664 -0.1231
   8123SM   O1110723   4.723   3.113  13.249 -0.1009 -0.3434  0.3693
   8123SM   O1210724   4.756   3.290  13.090  0.5248  0.8693  0.1156
   8123SM   C1S10725   4.721   3.214  13.359  0.2870  0.0375 -0.3116
   8123SM   H1S10726   4.640   3.289  13.348 -0.0556 -0.2501  0.2027
   8123SM   H1T10727   4.819   3.267  13.359  1.0459 -1.2919  0.3437
   8123SM    NF10728   4.673   3.253  13.598  0.3985 -0.6508 -0.1860
   8123SM   HNF10729   4.757   3.270  13.647 -0.0387  1.3163 -0.0498
   8123SM   C2S10730   4.686   3.152  13.497 -0.2958  0.3105 -0.1196
   8123SM   H2S10731   4.589   3.101  13.478  0.3583 -0.2845 -2.0551
   8123SM   C3S10732   4.790   3.038  13.527  0.2381 -0.5389  0.6087
   8123SM   H3S10733   4.889   3.087  13.513  0.0117 -0.6780 -1.7966
   8123SM    O310734   4.779   2.932  13.435 -0.0562  0.0773 -0.7229
   8123SM   HO310735   4.732   2.970  13.360 -0.4501  1.8748  0.3785
   8123SM   C4S10736   4.781   2.980  13.664 -0.0197 -0.5535 -0.6390
   8123SM   H4S10737   4.724   2.889  13.685 -0.3885 -0.5134 -1.4150
   8123SM   C5S10738   4.849   3.037  13.774 -0.4074  0.2158  0.0854
   8123SM   H5S10739   4.920   3.120  13.764  0.4824 -0.4693  0.5140
   8123SM   C6S10740   4.857   2.983  13.915  0.5654 -0.2805  0.8204
   8123SM   H6S10741   4.959   2.949  13.942  0.8790  0.0728  0.0970
   8123SM   H6T10742   4.798   2.889  13.914 -1.7258  1.0811  1.1998
   8123SM   C7S10743   4.803   3.086  14.025 -0.2177 -0.3314  0.5127
   8123SM   H7S10744   4.880   3.165  14.039 -0.3028  0.0329 -0.9034
   8123SM   H7T10745   4.799   3.026  14.118 -0.1223 -0.7717  0.2366
   8123SM   C8S10746   4.655   3.123  14.020 -0.2711 -0.1177 -0.3845
   8123SM   H8S10747   4.604   3.024  14.020  2.0902 -1.4131 -0.9942
   8123SM   H8T10748   4.626   3.177  13.928  1.0085  1.1579 -0.0666
   8123SM   C9S10749   4.606   3.205  14.142 -0.9104 -0.1803  0.8622
   8123SM   H9S10750   4.504   3.218  14.099  0.6877  2.3594 -2.6744
   8123SM   H9T10751   4.668   3.297  14.147  1.7198 -1.8973  1.3470
   8123SM  C10S10752   4.609   3.132  14.280 -0.1284 -0.8178  0.4211
   8123SM  H10S10753   4.700   3.071  14.299 -0.3030 -1.6405 -1.2118
   8123SM  H10T10754   4.531   3.054  14.273  1.1401 -2.1278  0.2906
   8123SM  C11S10755   4.570   3.229  14.396  0.2459  0.1944 -0.1834
   8123SM  H11S10756   4.513   3.170  14.471 -0.6387  2.2064  0.8029
   8123SM  H11T10757   4.517   3.315  14.350  1.3365  0.9309 -0.0884
   8123SM  C12S10758   4.701   3.286  14.456  0.9144  0.6349 -0.6357
   8123SM  H12S10759   4.742   3.367  14.391  2.8895 -1.1434 -1.7260
   8123SM  H12T10760   4.785   3.215  14.468  0.1193  0.0669  2.2306
   8123SM  C13S10761   4.680   3.340  14.599 -0.5570 -0.4028 -0.1019
   8123SM  H13S10762   4.655   3.266  14.678  0.0892  0.4839  0.9807
   8123SM  H13T10763   4.600   3.416  14.586  0.5157  1.1074  1.4829
   8123SM  C14S10764   4.803   3.422  14.642 -0.1365  0.1816 -0.0710
   8123SM  H14S10765   4.812   3.506  14.570  0.3435 -0.1074 -0.3561
   8123SM  H14T10766   4.899   3.366  14.632  1.5597  2.5754  1.6399
   8123SM  C15S10767   4.801   3.484  14.782 -0.0335 -0.3748  0.1321
   8123SM  H15S10768   4.692   3.504  14.790  0.0886  0.5820 -0.4518
   8123SM  H15T10769   4.848   3.585  14.787 -1.4962  0.3150  0.7002
   8123SM  C16S10770   4.838   3.377  14.889  0.6002  0.4635 -0.4835
   8123SM  H16S10771   4.941   3.338  14.879  0.3806 -0.4187  0.4754
   8123SM  H16T10772   4.763   3.295  14.882  1.8205 -0.7242 -0.0718
   8123SM  C17S10773   4.834   3.431  15.039 -0.1769  0.2494  0.5005
   8123SM  H17S10774   4.828   3.341  15.103  0.4176 -2.1231 -2.5440
   8123SM  H17T10775   4.738   3.486  15.045  0.2596  1.1201 -0.1756
   8123SM  C18S10776   4.962   3.523  15.061 -0.1035  0.4821 -0.0798
   8123SM  H18S10777   4.966   3.551  15.169 -1.3240  2.4949 -0.5071
   8123SM  H18T10778   4.952   3.615  15.000 -1.2882  0.7049  0.4127
   8123SM  H18U10779   5.050   3.459  15.042 -1.6309 -1.4798 -0.9076
   8123SM   C1F10780   4.564   3.337  13.603 -0.0274 -0.3851 -0.3017
   8123SM    OF10781   4.462   3.302  13.548 -0.1612 -0.0886 -0.1166
   8123SM   C2F10782   4.585   3.461  13.686  0.5310  0.0138 -0.8826
   8123SM   H2F10783   4.596   3.553  13.625  0.9294  0.5731  0.0019
   8123SM   H2G10784   4.680   3.454  13.744  0.6728 -0.1965 -1.1388
   8123SM   C3F10785   4.471   3.505  13.783  0.1374  0.0517 -0.4229
   8123SM   H3F10786   4.428   3.416  13.833 -1.9557  1.8218  1.1223
   8123SM   H3G10787   4.397   3.539  13.708 -1.4759 -1.3109  0.4863
   8123SM   C4F10788   4.502   3.623  13.884 -0.4463  0.5150  0.3021
   8123SM   H4F10789   4.399   3.665  13.895 -1.1294 -1.3595  1.6131
   8123SM   H4G10790   4.568   3.697  13.833  0.2265  0.4372  1.0553
   8123SM   C5F10791   4.541   3.572  14.024 -0.1205 -0.8415  0.0357
   8123SM   H5F10792   4.631   3.506  14.021  1.1941  0.8838  0.0395
   8123SM   H5G10793   4.454   3.511  14.057 -0.1581 -0.6459  0.2972
   8123SM   C6F10794   4.563   3.689  14.113 -0.5290 -0.6242 -0.2186
   8123SM   H6F10795   4.482   3.764  14.100  0.0295  0.2308  1.0721
   8123SM   H6G10796   4.654   3.744  14.082 -1.4045  1.2890  0.4717
   8123SM   C7F10797   4.570   3.660  14.261  0.8612 -0.3676  0.2337
   8123SM   H7F10798   4.635   3.570  14.269 -3.0882 -3.9615 -3.0322
   8123SM   H7G10799   4.463   3.642  14.283  0.8583 -0.5037  0.1071
   8123SM   C8F10800   4.611   3.781  14.343 -0.0486  0.2761 -0.0122
   8123SM   H8F10801   4.551   3.870  14.314  0.3698 -0.2202 -2.5912
   8123SM   H8G10802   4.714   3.809  14.314 -0.8130  0.9048 -2.3131
   8123SM   C9F10803   4.616   3.764  14.496  0.2200 -1.0278 -0.1708
   8123SM   H9F10804   4.684   3.679  14.517 -0.0750 -1.0752  0.6524
   8123SM   H9G10805   4.521   3.725  14.539  0.9342  0.3681  3.0277
   8123SM  C10F10806   4.677   3.883  14.569  0.0389 -0.3354 -0.1386
   8123SM  H10F10807   4.599   3.962  14.560  1.0616  1.0729  2.3881
   8123SM  H10G10808   4.773   3.921  14.528  0.7871  1.2294  2.7583
   8123SM  C11F10809   4.715   3.860  14.709 -0.4867 -0.2471  0.0523
   8123SM  H11F10810   4.777   3.943  14.749 -0.9698  1.1302 -1.9131
   8123SM  H11G10811   4.785   3.773  14.713  0.5340  0.3640 -2.5061
   8123SM  C12F10812   4.603   3.835  14.808  0.1243 -0.0538 -0.2020
   8123SM  H12F10813   4.516   3.784  14.761  0.9744 -2.1090  0.3126
   8123SM  H12G10814   4.564   3.938  14.818  0.2711  0.1774 -1.7186
   8123SM  C13F10815   4.638   3.770  14.941  0.1091  0.5462 -0.4146
   8123SM  H13F10816   4.740   3.801  14.974 -0.8263 -0.0221  3.5294
   8123SM  H13G10817   4.633   3.660  14.926 -0.2212  0.6614 -1.1381
   8123SM  C14F10818   4.545   3.790  15.058  0.6918 -0.7987 -0.4677
   8123SM  H14F10819   4.576   3.743  15.154  1.2007  0.5602  0.0549
   8123SM  H14G10820   4.446   3.756  15.022  0.9661 -1.3361 -0.7202
   8123SM  C15F10821   4.526   3.939  15.098  0.2126 -0.2037 -0.5785
   8123SM  H15F10822   4.482   4.008  15.022 -2.5068  1.4859  2.2860
   8123SM  H15G10823   4.621   3.984  15.132  0.6067 -1.4884  0.0773
   8123SM  C16F10824   4.440   3.952  15.227 -0.1719 -0.0441 -0.5331
   8123SM  H16F10825   4.471   3.871  15.296  1.0486  0.9286  0.0868
   8123SM  H16G10826   4.331   3.936  15.210  0.2919 -1.9747 -2.1690
   8123SM  C17F10827   4.450   4.092  15.296  0.4170  0.1144  0.1492
   8123SM  H17F10828   4.545   4.144  15.271  0.6970  0.6839  2.1973
   8123SM  H17G10829   4.474   4.079  15.404  0.7102  2.1713  0.3791
   8123SM  C18F10830   4.332   4.182  15.283 -0.0774  0.6063  0.1163
   8123SM  H18F10831   4.253   4.112  15.318  1.1410 -1.5815 -1.2767
   8123SM  H18G10832   4.310   4.212  15.178  1.0904  2.2926  0.3129
   8123SM  C19F10833   4.323   4.309  15.364  0.2043  0.5886  0.4607
   8123SM  H19F10834   4.357   4.282  15.466  3.4040 -0.3317 -0.7256
   8123SM  H19G10835   4.222   4.355  15.368  0.6238  1.6497 -0.2919
   8123SM  C20F10836   4.417   4.418  15.308  0.0632  0.8491  0.3937
   8123SM  H20F10837   4.523   4.384  15.308  0.3561  1.7439  0.5972
   8123SM  H20G10838   4.408   4.502  15.380  1.9412  0.9320  0.5869
   8123SM  C21F10839   4.383   4.464  15.167 -0.0757  0.2776 -0.4139
   8123SM  H21F10840   4.277   4.498  15.173  0.6066  2.3455  0.8303
   8123SM  H21G10841   4.387   4.379  15.095 -0.0647 -0.8473  0.8665
   8123SM  C22F10842   4.459   4.586  15.126 -0.3375  0.3387 -0.4564
   8123SM  H22F10843   4.563   4.573  15.164 -0.6314 -1.1471 -0.0904
   8123SM  H22G10844   4.406   4.671  15.175 -1.9127 -0.9535  0.1669
   8123SM  C23F10845   4.458   4.619  14.979  0.4379  0.4744  0.7773
   8123SM  H23F10846   4.486   4.530  14.919  1.1335 -1.7998  4.1991
   8123SM  H23G10847   4.530   4.697  14.948 -0.7896  1.2374 -0.2177
   8123SM  H23H10848   4.356   4.648  14.944  0.6770  1.0835  0.5730
   8223SM     N10849   5.535   4.158  12.492  0.3866 -0.3483 -0.5948
   8223SM   C1510850   5.529   4.037  12.406 -0.0757 -0.3091 -0.5448
   8223SM  H15A10851   5.595   4.046  12.322 -0.6137  0.1353 -0.9263
   8223SM  H15B10852   5.429   4.016  12.369  0.2031 -2.7892 -0.1207
   8223SM  H15C10853   5.552   3.943  12.455 -1.6619  0.0125  0.9315
   8223SM   C1410854   5.670   4.163  12.566  0.5313  0.2668  0.1790
   8223SM  H14A10855   5.752   4.166  12.495 -0.1751  0.3017 -0.6469
   8223SM  H14B10856   5.680   4.079  12.633 -0.8609 -0.1913 -0.1643
   8223SM  H14C10857   5.667   4.253  12.626 -1.3734 -0.3329  1.0606
   8223SM   C1310858   5.535   4.277  12.405  0.5407 -0.5741  1.0820
   8223SM  H13A10859   5.473   4.270  12.316  0.6717 -0.0661  0.9434
   8223SM  H13B10860   5.638   4.288  12.373 -0.1233 -0.4317 -1.1833
   8223SM  H13C10861   5.513   4.359  12.471 -0.6646  0.7797 -0.9070
   8223SM   C1210862   5.426   4.168  12.587  0.0829 -0.6938 -0.5605
   8223SM  H12A10863   5.412   4.076  12.643 -0.3587 -1.0375 -1.2307
   8223SM  H12B10864   5.334   4.188  12.534  1.0103  0.8296 -1.6777
   8223SM   C1110865   5.431   4.273  12.693  0.0960 -0.3106  0.3976
   8223SM  H11A10866   5.506   4.243  12.769 -0.0774 -0.8593  0.3533
   8223SM  H11B10867   5.335   4.256  12.747 -0.1723 -0.6338 -0.1726
   8223SM     P10868   5.355   4.516  12.646  0.1646  0.3109  0.2036
   8223SM   O1310869   5.421   4.641  12.613 -0.2032  0.1003  0.4475
   8223SM   O1410870   5.230   4.476  12.581  0.2129 -0.2415 -0.3357
   8223SM   O1110871   5.326   4.516  12.803 -0.0781  0.7344  0.4146
   8223SM   O1210872   5.462   4.405  12.648  0.1175 -0.0530 -0.5170
   8223SM   C1S10873   5.189   4.551  12.838 -0.4263  1.0137  0.7063
   8223SM   H1S10874   5.117   4.486  12.785  1.4849  0.2406 -1.0685
   8223SM   H1T10875   5.168   4.658  12.816 -0.9731  0.9027  0.6674
   8223SM    NF10876   5.026   4.564  13.017 -0.0786  0.4239  0.4427
   8223SM   HNF10877   4.994   4.655  13.040  2.1726  0.9620  1.7319
   8223SM   C2S10878   5.169   4.548  12.991  0.2435 -0.4648 -0.2778
   8223SM   H2S10879   5.201   4.449  13.030 -0.4854 -0.2438  0.9552
   8223SM   C3S10880   5.259   4.661  13.044  0.6599 -0.3671 -0.0843
   8223SM   H3S10881   5.216   4.754  13.003  1.7706 -0.3834 -1.3531
   8223SM    O310882   5.394   4.665  12.988  0.3557 -1.0459  0.2194
   8223SM   HO310883   5.382   4.619  12.905  0.6547 -0.7954  0.0367
   8223SM   C4S10884   5.258   4.669  13.196 -0.0184 -0.6847  0.7758
   8223SM   H4S10885   5.183   4.736  13.242 -0.2304 -0.1838 -0.2642
   8223SM   C5S10886   5.357   4.624  13.275  0.2989  0.7324  0.4747
   8223SM   H5S10887   5.436   4.560  13.233  0.6537  2.4123 -1.6172
   8223SM   C6S10888   5.375   4.661  13.421  0.5349  0.8064  0.4507
   8223SM   H6S10889   5.279   4.642  13.474 -0.2677  1.4144 -0.7521
   8223SM   H6T10890   5.388   4.771  13.427  2.0420  0.7175 -0.5323
   8223SM   C7S10891   5.490   4.579  13.490  0.3743  0.1443 -0.8121
   8223SM   H7S10892   5.586   4.604  13.440  0.9366 -0.0843  0.1365
   8223SM   H7T10893   5.466   4.474  13.464 -1.7751  0.6801 -1.2337
   8223SM   C8S10894   5.503   4.602  13.638  0.0732 -0.5979  0.6471
   8223SM   H8S10895   5.405   4.584  13.688  0.5470 -0.5454  1.6222
   8223SM   H8T10896   5.532   4.710  13.639  0.4490 -0.6900  0.2598
   8223SM   C9S10897   5.622   4.528  13.691  0.5567  0.0521 -0.3860
   8223SM   H9S10898   5.711   4.569  13.638  1.1532 -1.1978 -0.3878
   8223SM   H9T10899   5.607   4.419  13.672  0.0183  0.0658 -0.0303
   8223SM  C10S10900   5.647   4.552  13.847 -0.2435 -0.2046  0.5554
   8223SM  H10S10901   5.550   4.527  13.894  0.2205 -1.7263  0.7774
   8223SM  H10T10902   5.664   4.660  13.863  2.4768 -0.3724 -0.4882
   8223SM  C11S10903   5.762   4.476  13.906  0.0430  0.7154 -0.0782
   8223SM  H11S10904   5.858   4.519  13.870 -0.0110  1.4589  0.6529
   8223SM  H11T10905   5.760   4.369  13.877  1.5356  0.5053  0.5442
   8223SM  C12S10906   5.754   4.486  14.059 -0.0294  0.1607  0.2045
   8223SM  H12S10907   5.654   4.457  14.099  0.1548 -0.2123  0.4033
   8223SM  H12T10908   5.786   4.589  14.083  0.8996 -0.0238 -0.1696
   8223SM  C13S10909   5.871   4.411  14.132 -0.3333  0.1741  0.4290
   8223SM  H13S10910   5.965   4.451  14.089 -1.1574  1.6706 -0.0411
   8223SM  H13T10911   5.871   4.305  14.099 -1.8220  0.3797 -0.2819
   8223SM  C14S10912   5.868   4.400  14.281  0.4865  0.1335 -0.2689
   8223SM  H14S10913   5.919   4.303  14.299 -0.0498 -0.1659 -0.3370
   8223SM  H14T10914   5.765   4.381  14.316  0.1846 -0.3460 -1.3582
   8223SM  C15S10915   5.935   4.511  14.349 -0.1202  0.0184  0.6160
   8223SM  H15S10916   5.872   4.601  14.332  1.3462  0.6091 -2.1310
   8223SM  H15T10917   6.039   4.533  14.316 -0.0165  0.1033  0.9924
   8223SM  C16S10918   5.958   4.496  14.504  0.4190 -0.2610  0.1368
   8223SM  H16S10919   5.993   4.395  14.530  0.8537 -0.5221 -1.3573
   8223SM  H16T10920   5.856   4.507  14.547 -0.1008 -2.8566 -0.3005
   8223SM  C17S10921   6.056   4.597  14.566  0.2970 -0.2410 -0.4674
   8223SM  H17S10922   6.159   4.567  14.536 -0.6155 -1.2546 -2.7871
   8223SM  H17T10923   6.045   4.579  14.675 -1.1732  0.5458 -0.4645
   8223SM  C18S10924   6.033   4.740  14.508 -0.2288 -0.0341  0.3292
   8223SM  H18S10925   6.100   4.822  14.541 -0.9500  1.5138 -1.8594
   8223SM  H18T10926   5.933   4.777  14.540 -0.5596 -0.0986 -0.5931
   8223SM  H18U10927   6.037   4.741  14.397  0.9415  1.0868  0.3612
   8223SM   C1F10928   4.934   4.471  12.992 -0.5602 -0.3706  0.7052
   8223SM    OF10929   4.965   4.357  12.963 -1.0606  0.3422  0.1812
   8223SM   C2F10930   4.795   4.517  12.992 -0.2368 -0.5604  0.3112
   8223SM   H2F10931   4.754   4.522  12.888 -1.5599 -1.1906  0.7703
   8223SM   H2G10932   4.785   4.611  13.049  0.9204 -0.2037 -0.0602
   8223SM   C3F10933   4.701   4.411  13.066  0.1615  0.3636 -0.6019
   8223SM   H3F10934   4.737   4.307  13.049 -1.5658 -0.3525 -0.0961
   8223SM   H3G10935   4.606   4.416  13.009  0.0812  2.1172 -0.3742
   8223SM   C4F10936   4.661   4.439  13.217  0.0978 -0.5752  0.5629
   8223SM   H4F10937   4.586   4.364  13.248 -0.6555 -0.3507 -0.6026
   8223SM   H4G10938   4.601   4.533  13.211 -0.0411 -0.5852  1.6638
   8223SM   C5F10939   4.779   4.450  13.313 -0.1899 -0.1637 -0.2246
   8223SM   H5F10940   4.839   4.540  13.286  0.9775 -0.8260  0.0895
   8223SM   H5G10941   4.843   4.361  13.295  1.0332  0.8947 -1.3362
   8223SM   C6F10942   4.725   4.444  13.463  0.1074 -0.5363  0.3444
   8223SM   H6F10943   4.630   4.501  13.460 -0.0112 -0.6332  1.6015
   8223SM   H6G10944   4.808   4.497  13.514  0.4357 -0.9653  0.2665
   8223SM   C7F10945   4.715   4.302  13.529  0.3909  0.3183 -0.7056
   8223SM   H7F10946   4.815   4.253  13.523 -0.0564 -0.4453 -2.6198
   8223SM   H7G10947   4.643   4.241  13.470  1.3478 -1.7167  0.1441
   8223SM   C8F10948   4.674   4.289  13.673 -0.6920 -0.8485  0.5037
   8223SM   H8F10949   4.743   4.354  13.731 -1.7106  1.5257 -0.7919
   8223SM   H8G10950   4.686   4.181  13.695 -1.4508 -1.1765 -0.6340
   8223SM   C9F10951   4.533   4.352  13.711  0.6396  0.1234  0.3997
   8223SM   H9F10952   4.455   4.289  13.662 -0.8334 -0.7890  3.6321
   8223SM   H9G10953   4.533   4.455  13.670  0.1298  0.8661  2.1713
   8223SM  C10F10954   4.496   4.350  13.863 -0.4002 -0.5495  0.0560
   8223SM  H10F10955   4.572   4.410  13.917  0.1261  0.5942 -1.8926
   8223SM  H10G10956   4.513   4.246  13.898 -0.1071 -0.1123  1.2534
   8223SM  C11F10957   4.355   4.396  13.873  0.8950 -0.1904 -0.4203
   8223SM  H11F10958   4.290   4.315  13.835 -3.2645  3.3284 -1.5497
   8223SM  H11G10959   4.355   4.482  13.803 -1.7434 -1.8686 -2.6764
   8223SM  C12F10960   4.315   4.443  14.014  0.0847  0.4760 -0.5318
   8223SM  H12F10961   4.336   4.369  14.095  1.6574  0.4789 -0.9097
   8223SM  H12G10962   4.206   4.463  14.024 -0.5533 -2.9611  0.8703
   8223SM  C13F10963   4.393   4.568  14.051  0.3713  0.2044  0.1048
   8223SM  H13F10964   4.384   4.628  13.957  0.6222  0.4279  0.2221
   8223SM  H13G10965   4.496   4.536  14.076 -0.1190  0.0323  2.0744
   8223SM  C14F10966   4.332   4.648  14.161  0.5831  0.9078 -0.3502
   8223SM  H14F10967   4.221   4.656  14.149  0.3047 -1.0114  0.6636
   8223SM  H14G10968   4.365   4.754  14.156 -1.0282  1.3818 -2.2390
   8223SM  C15F10969   4.347   4.595  14.304 -0.3224  0.4209  0.7038
   8223SM  H15F10970   4.452   4.613  14.335 -0.0215 -0.9880  0.5717
   8223SM  H15G10971   4.312   4.489  14.303  0.1928  0.2417  1.1563
   8223SM  C16F10972   4.268   4.676  14.406 -0.6516 -0.3561 -0.1170
   8223SM  H16F10973   4.159   4.695  14.390 -0.1648  0.2817 -3.3062
   8223SM  H16G10974   4.318   4.774  14.412 -2.2172  0.8867 -3.8976
   8223SM  C17F10975   4.292   4.609  14.542  0.3002  0.4584 -0.7608
   8223SM  H17F10976   4.260   4.690  14.610  2.6747  0.2358  0.7444
   8223SM  H17G10977   4.393   4.569  14.565  0.6146  1.5081 -0.2820
   8223SM  C18F10978   4.196   4.489  14.575  0.0436 -0.5427  0.1003
   8223SM  H18F10979   4.205   4.412  14.495  0.0050  1.2653 -1.7291
   8223SM  H18G10980   4.092   4.525  14.564  0.8075  1.3594 -1.5224
   8223SM  C19F10981   4.225   4.420  14.705 -0.2778  0.6482 -0.1114
   8223SM  H19F10982   4.225   4.494  14.788  3.0840  0.6394  0.0453
   8223SM  H19G10983   4.328   4.378  14.704 -0.6152 -0.2008 -1.1797
   8223SM  C20F10984   4.133   4.297  14.734  0.5992 -0.1083 -0.2916
   8223SM  H20F10985   4.117   4.247  14.636  1.2235  1.7058 -1.3634
   8223SM  H20G10986   4.035   4.329  14.774  1.1224  1.2295 -0.0347
   8223SM  C21F10987   4.183   4.184  14.834 -0.2670  0.0008 -0.0881
   8223SM  H21F10988   4.218   4.232  14.928  0.7983 -0.9546  0.0250
   8223SM  H21G10989   4.271   4.127  14.795  0.4279  0.9293  0.0780
   8223SM  C22F10990   4.071   4.086  14.872 -0.0066  0.2102 -0.0997
   8223SM  H22F10991   4.064   4.013  14.789 -0.9120  1.7313 -1.4140
   8223SM  H22G10992   3.966   4.123  14.878 -1.1777 -2.9858  2.2409
   8223SM  C23F10993   4.095   4.004  14.996 -0.0586  0.0078  0.3673
   8223SM  H23F10994   4.190   4.042  15.039  0.3794  0.6901 -1.1396
   8223SM  H23G10995   4.109   3.894  14.988 -0.7974 -0.0964  0.4677
   8223SM  H23H10996   4.018   4.025  15.074 -1.5766 -1.0457 -0.7867
   8323SM     N10997   6.192   4.999  12.748 -0.0787  0.4209 -0.0855
   8323SM   C1510998   6.343   5.021  12.732  0.3191  0.7884  0.3137
   8323SM  H15A10999   6.403   4.984  12.815  2.2970  1.2276 -0.8576
   8323SM  H15B11000   6.370   5.126  12.733 -0.8139  1.0998  1.6205
   8323SM  H15C11001   6.387   4.968  12.649  2.7012  0.2769  1.7937
   8323SM   C1411002   6.122   5.081  12.856  0.0442  0.6821 -0.5574
   8323SM  H14A11003   6.015   5.071  12.851  0.2810 -2.8207 -1.5750
   8323SM  H14B11004   6.153   5.184  12.844 -1.2383  0.9665 -1.6714
   8323SM  H14C11005   6.148   5.049  12.956 -0.3320  1.4077 -0.2186
   8323SM   C1311006   6.130   5.035  12.619 -0.9957  0.4477  0.4487
   8323SM  H13A11007   6.030   4.994  12.616  0.1192 -2.3775 -1.2739
   8323SM  H13B11008   6.191   5.009  12.534  3.7323 -0.9711  3.9049
   8323SM  H13C11009   6.136   5.143  12.611  1.2471  0.2921 -0.9502
   8323SM   C1211010   6.165   4.853  12.765  0.0437 -0.3219  0.8551
   8323SM  H12A11011   6.211   4.797  12.684  3.9251  0.6213  2.1529
   8323SM  H12B11012   6.058   4.840  12.758  0.0908 -0.0554 -0.4686
   8323SM   C1111013   6.225   4.780  12.893  0.2613 -0.2890 -0.0397
   8323SM  H11A11014   6.180   4.680  12.905 -0.9896 -0.0146 -1.9696
   8323SM  H11B11015   6.203   4.845  12.981  0.4909  1.2986 -1.1011
   8323SM     P11016   6.446   4.671  12.816 -0.0249  0.0862 -0.4564
   8323SM   O1311017   6.378   4.643  12.691  0.1975 -0.0622 -0.0525
   8323SM   O1411018   6.589   4.708  12.808 -0.0926 -0.3745  0.1580
   8323SM   O1111019   6.419   4.550  12.914 -0.4430  0.5722  0.2934
   8323SM   O1211020   6.369   4.778  12.888 -0.0650 -0.1066 -0.1322
   8323SM   C1S11021   6.488   4.536  13.042  0.1411  1.0378 -0.4768
   8323SM   H1S11022   6.565   4.616  13.048 -0.8138  2.0452 -1.1065
   8323SM   H1T11023   6.546   4.441  13.046 -1.9052 -0.2563  0.1074
   8323SM    NF11024   6.460   4.543  13.284  0.1055 -0.1263 -0.7821
   8323SM   HNF11025   6.481   4.462  13.337 -1.4977  0.0423  0.1884
   8323SM   C2S11026   6.385   4.532  13.158  0.4833 -0.1440  0.0181
   8323SM   H2S11027   6.314   4.616  13.143 -0.5240 -0.3965  2.8662
   8323SM   C3S11028   6.298   4.404  13.161 -0.2131 -0.4942  0.2423
   8323SM   H3S11029   6.368   4.323  13.188  1.2935  0.4954 -0.5648
   8323SM    O311030   6.239   4.370  13.033  0.0611  0.8550  0.1333
   8323SM   HO311031   6.300   4.410  12.970  1.2784 -2.4821 -1.0488
   8323SM   C4S11032   6.196   4.401  13.275  0.3271 -0.5508  0.5776
   8323SM   H4S11033   6.246   4.399  13.373  0.7140  0.5247  0.4202
   8323SM   C5S11034   6.061   4.429  13.267  0.3769  0.5980  0.9275
   8323SM   H5S11035   6.028   4.472  13.171  1.0095 -0.6854  0.1065
   8323SM   C6S11036   5.953   4.435  13.377  0.1068 -0.4859 -0.1478
   8323SM   H6S11037   5.852   4.441  13.331  0.4051  2.3667 -0.5839
   8323SM   H6T11038   5.966   4.529  13.434 -1.0378  0.2755 -1.0835
   8323SM   C7S11039   5.963   4.306  13.459  0.4765  0.7852  0.2067
   8323SM   H7S11040   6.053   4.297  13.523  0.0477 -1.9608  0.5561
   8323SM   H7T11041   5.970   4.219  13.389  0.0082  1.5203 -0.7889
   8323SM   C8S11042   5.840   4.293  13.558  0.8980  0.7287  0.5135
   8323SM   H8S11043   5.741   4.298  13.506  2.0269  0.5390 -1.7780
   8323SM   H8T11044   5.845   4.382  13.623  1.5141  0.4294  0.8771
   8323SM   C9S11045   5.847   4.163  13.640 -0.0524  0.1024 -0.7120
   8323SM   H9S11046   5.912   4.183  13.728  0.3593  0.3785 -1.0714
   8323SM   H9T11047   5.893   4.083  13.577  0.1052 -0.7234  0.4260
   8323SM  C10S11048   5.704   4.127  13.694 -0.4726 -0.4245  0.3772
   8323SM  H10S11049   5.648   4.101  13.602 -1.1707 -0.8935  0.9291
   8323SM  H10T11050   5.662   4.224  13.730  3.7007  3.0095 -2.8397
   8323SM  C11S11051   5.702   4.012  13.792  0.1728  0.1921  0.5050
   8323SM  H11S11052   5.765   3.929  13.755  1.0940  1.1363 -0.0898
   8323SM  H11T11053   5.599   3.971  13.799 -0.0841  0.9873  1.9216
   8323SM  C12S11054   5.745   4.052  13.930  0.5097 -0.8453  0.2550
   8323SM  H12S11055   5.716   4.156  13.956  1.1424 -0.6615  0.2564
   8323SM  H12T11056   5.855   4.047  13.945  0.4377 -3.2102  0.4066
   8323SM  C13S11057   5.689   3.970  14.052  0.7517  0.2348  0.8382
   8323SM  H13S11058   5.724   3.865  14.044 -1.4878 -0.6411  1.5877
   8323SM  H13T11059   5.578   3.965  14.040  0.7742  1.4899  0.0337
   8323SM  C14S11060   5.706   4.038  14.189  0.2975  0.4047  0.9561
   8323SM  H14S11061   5.619   4.106  14.202 -0.4022  0.0057 -1.2309
   8323SM  H14T11062   5.800   4.095  14.174 -0.5642  1.5853 -0.1871
   8323SM  C15S11063   5.723   3.942  14.296 -0.8430 -0.3047 -0.2515
   8323SM  H15S11064   5.788   3.860  14.259  0.9244  0.3099  1.3531
   8323SM  H15T11065   5.627   3.895  14.327 -1.7438 -0.2618 -2.7663
   8323SM  C16S11066   5.810   3.997  14.414 -1.0166 -0.3968  0.3320
   8323SM  H16S11067   5.916   4.022  14.391 -0.3905 -2.7290  0.4678
   8323SM  H16T11068   5.814   3.910  14.483  3.2327 -1.7366 -1.3265
   8323SM  C17S11069   5.751   4.116  14.493 -0.3295 -0.5205  0.5525
   8323SM  H17S11070   5.649   4.083  14.523 -0.6121 -0.5944 -0.4639
   8323SM  H17T11071   5.738   4.203  14.425 -1.5622  0.0194  1.4331
   8323SM  C18S11072   5.826   4.151  14.612  0.5045 -0.2934 -0.4416
   8323SM  H18S11073   5.826   4.065  14.682 -2.1699 -1.1610 -1.3805
   8323SM  H18T11074   5.773   4.235  14.661  0.5075 -0.4645 -0.1440
   8323SM  H18U11075   5.931   4.182  14.592  1.1383 -0.2862  2.5091
   8323SM   C1F11076   6.516   4.662  13.321  0.4608 -0.8190 -0.0806
   8323SM    OF11077   6.499   4.764  13.245  0.7620  0.3113 -1.2768
   8323SM   C2F11078   6.593   4.664  13.452 -0.5027 -0.3370  0.9380
   8323SM   H2F11079   6.700   4.639  13.437  0.5706  4.2781 -0.8892
   8323SM   H2G11080   6.537   4.592  13.515 -1.0986 -2.7367 -2.0491
   8323SM   C3F11081   6.591   4.799  13.525  0.2484  0.1078  0.0525
   8323SM   H3F11082   6.489   4.843  13.522  0.3319  0.2501 -1.8491
   8323SM   H3G11083   6.659   4.880  13.491 -2.1526  1.3713 -2.1155
   8323SM   C4F11084   6.625   4.784  13.680  0.3153  0.0305 -0.3735
   8323SM   H4F11085   6.542   4.725  13.723 -0.7310  1.5268 -0.2494
   8323SM   H4G11086   6.636   4.881  13.732  0.6783 -1.3479  2.2837
   8323SM   C5F11087   6.747   4.705  13.709 -0.4564 -0.3350 -0.2229
   8323SM   H5F11088   6.827   4.773  13.672 -1.4659 -0.3729 -2.6879
   8323SM   H5G11089   6.766   4.610  13.654  1.8046 -0.0121 -0.1079
   8323SM   C6F11090   6.774   4.696  13.859  0.9226  0.0074  0.4373
   8323SM   H6F11091   6.855   4.626  13.890  1.0406  1.3752  3.6542
   8323SM   H6G11092   6.693   4.631  13.898 -0.5885  0.6527 -1.4834
   8323SM   C7F11093   6.763   4.823  13.947  0.0957 -0.0401  1.0692
   8323SM   H7F11094   6.654   4.847  13.942  0.0884 -0.3371 -0.3946
   8323SM   H7G11095   6.824   4.906  13.904  0.4637 -1.3671 -1.1167
   8323SM   C8F11096   6.822   4.782  14.080 -0.1699  0.2191  0.3093
   8323SM   H8F11097   6.931   4.766  14.063 -0.0239  0.4182  1.0229
   8323SM   H8G11098   6.782   4.686  14.119  0.8536 -1.0521 -1.6458
   8323SM   C9F11099   6.800   4.871  14.193  0.0058 -0.5172 -0.0564
   8323SM   H9F11100   6.692   4.897  14.197  0.1871  0.1322  1.5952
   8323SM   H9G11101   6.845   4.970  14.170  0.3869 -0.6489  0.1102
   8323SM  C10F11102   6.838   4.815  14.336 -0.0323 -0.7047  0.6755
   8323SM  H10F11103   6.944   4.781  14.329  1.1441  2.5096  0.8748
   8323SM  H10G11104   6.770   4.729  14.349 -1.8221  0.2360 -1.7304
   8323SM  C11F11105   6.815   4.929  14.444  0.0587  0.0577  0.4712
   8323SM  H11F11106   6.711   4.963  14.461  0.2809  0.5287  0.9292
   8323SM  H11G11107   6.889   5.010  14.426  0.1338 -0.1232 -0.0165
   8323SM  C12F11108   6.852   4.875  14.586  0.4235  0.2400  0.1335
   8323SM  H12F11109   6.962   4.857  14.582  0.2921 -0.7986  0.7969
   8323SM  H12G11110   6.797   4.780  14.603 -1.6883  1.3341 -0.2294
   8323SM  C13F11111   6.814   4.973  14.701  0.3983 -0.1339 -0.0611
   8323SM  H13F11112   6.704   4.987  14.715  0.1701 -2.4537  0.8835
   8323SM  H13G11113   6.879   5.063  14.692 -1.3555  1.4222  1.8498
   8323SM  C14F11114   6.856   4.908  14.832 -0.5908  0.5677  0.3893
   8323SM  H14F11115   6.965   4.897  14.819 -0.7856  0.6880 -1.7877
   8323SM  H14G11116   6.809   4.808  14.818  0.5621  0.1699 -0.8209
   8323SM  C15F11117   6.808   4.978  14.957  0.1386  0.3492  0.0846
   8323SM  H15F11118   6.827   4.909  15.042 -0.3111  0.8871  0.6365
   8323SM  H15G11119   6.699   4.999  14.951  0.0738 -0.4257 -2.1269
   8323SM  C16F11120   6.885   5.108  14.986  0.2574 -0.0607  0.2787
   8323SM  H16F11121   6.887   5.168  14.893  3.0135 -1.0411 -0.3824
   8323SM  H16G11122   6.992   5.086  15.002  0.1578 -4.0009 -3.0598
   8323SM  C17F11123   6.814   5.199  15.087  0.3588 -0.0653 -0.7522
   8323SM  H17F11124   6.713   5.222  15.048 -0.0311  3.3413  1.7998
   8323SM  H17G11125   6.868   5.296  15.090 -2.3795  1.6321  4.1350
   8323SM  C18F11126   6.805   5.151  15.235  0.0486  0.0676  0.7081
   8323SM  H18F11127   6.902   5.137  15.288  1.6812 -1.4989 -2.4197
   8323SM  H18G11128   6.754   5.052  15.233 -0.1517  0.1859 -0.0437
   8323SM  C19F11129   6.720   5.248  15.326 -0.3578 -0.0457 -0.3260
   8323SM  H19F11130   6.637   5.274  15.257 -0.1767  0.9727 -0.1738
   8323SM  H19G11131   6.783   5.338  15.345 -1.0581  0.8077 -1.8590
   8323SM  C20F11132   6.662   5.193  15.454  0.1369 -0.0876 -0.1063
   8323SM  H20F11133   6.731   5.135  15.519 -0.6789  0.1650  1.0182
   8323SM  H20G11134   6.584   5.119  15.426 -0.7161  0.9437 -0.5637
   8323SM  C21F11135   6.615   5.307  15.547  0.3653  0.4009 -0.6361
   8323SM  H21F11136   6.533   5.364  15.497  0.6712  0.6706 -0.8396
   8323SM  H21G11137   6.708   5.368  15.546  0.6351  0.1156  1.7219
   8323SM  C22F11138   6.552   5.258  15.688 -0.4089  0.2645  0.2098
   8323SM  H22F11139   6.516   5.155  15.669 -1.3669  0.4066  1.1138
   8323SM  H22G11140   6.459   5.319  15.699 -1.7735 -1.0981 -2.4796
   8323SM  C23F11141   6.648   5.286  15.804  0.4687  0.3570 -0.4649
   8323SM  H23F11142   6.673   5.393  15.785  0.4763  0.7953  1.7639
   8323SM  H23G11143   6.737   5.219  15.797 -0.0175 -0.1216 -3.5174
   8323SM  H23H11144   6.600   5.267  15.902  0.7022 -2.0276 -0.7617
   8423SM     N11145   3.880   1.724  13.138  0.0716 -0.0971 -0.0044
   8423SM   C1511146   3.962   1.605  13.152  0.0167 -0.1976  0.3651
   8423SM  H15A11147   4.036   1.618  13.230  0.9202  0.7027 -0.6083
   8423SM  H15B11148   4.019   1.585  13.063  1.5896 -0.0078  1.2979
   8423SM  H15C11149   3.899   1.522  13.180 -0.9022  0.0344 -0.8981
   8423SM   C1411150   3.755   1.687  13.065 -0.7530 -0.3368 -0.1907
   8423SM  H14A11151   3.780   1.637  12.973  1.1305  0.0773  0.0563
   8423SM  H14B11152   3.705   1.783  13.060 -0.7183 -0.2551  0.9063
   8423SM  H14C11153   3.711   1.616  13.133 -0.0856 -0.2564  0.3388
   8423SM   C1311154   3.846   1.781  13.272 -0.2452 -0.2551  0.3036
   8423SM  H13A11155   3.936   1.779  13.332 -1.2593 -1.0889  1.8422
   8423SM  H13B11156   3.775   1.727  13.332  0.4653 -0.4922  0.9408
   8423SM  H13C11157   3.807   1.882  13.275 -1.2582 -0.5942 -0.8497
   8423SM   C1211158   3.958   1.830  13.059  0.3244  0.3407  0.3829
   8423SM  H12A11159   4.046   1.843  13.120 -0.5620 -1.5379  2.1929
   8423SM  H12B11160   3.898   1.920  13.057  1.2694  1.0889  2.8161
   8423SM   C1111161   4.012   1.807  12.914 -0.2682 -0.0269 -0.2910
   8423SM  H11A11162   4.031   1.901  12.858 -1.9109 -0.0303 -0.9080
   8423SM  H11B11163   3.923   1.768  12.860  0.0314  0.9207 -1.5252
   8423SM     P11164   4.269   1.743  12.872 -0.2683 -0.0181  0.1366
   8423SM   O1311165   4.343   1.628  12.816 -0.2929 -0.6943  0.1351
   8423SM   O1411166   4.279   1.871  12.799  0.0803  0.1345  0.2325
   8423SM   O1111167   4.333   1.779  13.009  0.4100 -0.1536 -0.3265
   8423SM   O1211168   4.118   1.708  12.905  0.6705  0.4164 -0.8629
   8423SM   C1S11169   4.351   1.683  13.110 -0.2755 -0.0517 -0.0082
   8423SM   H1S11170   4.445   1.628  13.086  1.9033  3.1558  0.5098
   8423SM   H1T11171   4.273   1.604  13.119  0.5620 -0.7330  1.5336
   8423SM    NF11172   4.406   1.637  13.358  0.0083 -0.1404  0.5267
   8423SM   HNF11173   4.330   1.586  13.399 -0.0726 -1.1112 -0.7450
   8423SM   C2S11174   4.372   1.739  13.257  0.9531 -0.5961 -0.2971
   8423SM   H2S11175   4.458   1.808  13.244  0.4768 -0.2017 -1.4925
   8423SM   C3S11176   4.254   1.829  13.298 -0.0676 -0.3046  0.1206
   8423SM   H3S11177   4.163   1.766  13.311  0.1059 -0.6928 -0.5091
   8423SM    O311178   4.216   1.939  13.210  0.1905  0.0937  0.1570
   8423SM   HO311179   4.288   1.950  13.147  0.2516  0.3274  0.2645
   8423SM   C4S11180   4.263   1.886  13.437 -0.1286  0.1136  0.0825
   8423SM   H4S11181   4.228   1.819  13.516  2.0178 -1.8263 -0.5001
   8423SM   C5S11182   4.327   1.995  13.470 -0.2862 -0.0754 -0.1647
   8423SM   H5S11183   4.369   2.065  13.397 -3.6451  3.0098  0.5620
   8423SM   C6S11184   4.329   2.050  13.611 -0.2383  0.4164  0.0068
   8423SM   H6S11185   4.234   2.030  13.667  0.9829 -0.2009  1.9812
   8423SM   H6T11186   4.345   2.160  13.613 -0.5057  0.4483  0.6661
   8423SM   C7S11187   4.440   1.992  13.702 -0.0182  0.3434 -0.2743
   8423SM   H7S11188   4.547   2.020  13.688  1.0083 -1.2574  3.2291
   8423SM   H7T11189   4.436   1.883  13.684  1.9066  0.1645  0.1473
   8423SM   C8S11190   4.419   2.020  13.843 -0.4674 -0.2957 -0.4340
   8423SM   H8S11191   4.324   1.975  13.879  0.9528 -1.7598  1.7189
   8423SM   H8T11192   4.405   2.130  13.851 -1.6549 -0.3074 -1.7934
   8423SM   C9S11193   4.542   1.981  13.934 -0.4315  0.2106  0.3374
   8423SM   H9S11194   4.624   2.053  13.912  0.3676 -1.0699 -1.0356
   8423SM   H9T11195   4.591   1.888  13.901  0.3546  1.4099 -2.1181
   8423SM  C10S11196   4.511   1.989  14.084 -0.0789  0.9782 -0.0398
   8423SM  H10S11197   4.433   2.066  14.103  1.4380  2.9359 -1.4105
   8423SM  H10T11198   4.607   2.024  14.128  0.5481 -0.6712 -0.0375
   8423SM  C11S11199   4.485   1.846  14.144 -0.4177 -0.8188 -0.1814
   8423SM  H11S11200   4.580   1.790  14.135  0.8151  0.6748  2.3081
   8423SM  H11T11201   4.398   1.796  14.096 -1.1823  0.5955 -0.3363
   8423SM  C12S11202   4.460   1.851  14.298 -0.1296  0.1844 -0.0800
   8423SM  H12S11203   4.366   1.905  14.322 -1.1254 -1.9304  1.0940
   8423SM  H12T11204   4.548   1.902  14.343  1.2903 -1.3978 -0.9387
   8423SM  C13S11205   4.473   1.712  14.362  0.6693 -0.0472 -0.3551
   8423SM  H13S11206   4.416   1.640  14.300  0.5098 -0.6943  0.5341
   8423SM  H13T11207   4.434   1.725  14.465 -0.0987 -0.0639 -0.6414
   8423SM  C14S11208   4.619   1.678  14.383 -0.0569  0.2591 -0.1829
   8423SM  H14S11209   4.674   1.757  14.439 -0.2525  0.3989 -0.1895
   8423SM  H14T11210   4.674   1.674  14.286 -0.5868 -2.4404 -0.4580
   8423SM  C15S11211   4.622   1.543  14.457 -0.4659 -1.0679 -0.1981
   8423SM  H15S11212   4.728   1.517  14.437  0.2635  1.4823 -0.0758
   8423SM  H15T11213   4.555   1.472  14.404 -0.7692 -1.4061  0.6257
   8423SM  C16S11214   4.586   1.557  14.600 -0.1686  0.4824 -0.4639
   8423SM  H16S11215   4.476   1.569  14.605 -0.2292  1.1429 -2.3756
   8423SM  H16T11216   4.620   1.650  14.652 -0.2871  0.0733  0.3485
   8423SM  C17S11217   4.620   1.426  14.679  0.0359  0.4259  0.1983
   8423SM  H17S11218   4.727   1.402  14.661 -0.3699 -0.6026 -1.0394
   8423SM  H17T11219   4.558   1.342  14.642 -0.6261  1.4302 -1.0442
   8423SM  C18S11220   4.597   1.426  14.828  0.0155  0.9821 -0.3860
   8423SM  H18S11221   4.623   1.336  14.887  0.9096  1.0129 -0.7198
   8423SM  H18T11222   4.490   1.419  14.855  0.7235  0.8451  2.6724
   8423SM  H18U11223   4.649   1.516  14.867 -1.2135  1.2714  0.6704
   8423SM   C1F11224   4.517   1.566  13.347 -0.3636  0.0940 -0.2182
   8423SM    OF11225   4.607   1.605  13.275 -0.3654  0.2546  0.5124
   8423SM   C2F11226   4.526   1.443  13.427 -0.3509 -0.5331 -0.5279
   8423SM   H2F11227   4.595   1.385  13.362 -1.2630  1.2773 -3.2757
   8423SM   H2G11228   4.428   1.391  13.433 -0.2308 -0.6605  0.4794
   8423SM   C3F11229   4.576   1.468  13.571 -0.2292  0.3724  0.4040
   8423SM   H3F11230   4.496   1.526  13.620 -1.8534 -1.4339  0.0096
   8423SM   H3G11231   4.668   1.531  13.569  0.7223 -0.9361  1.1565
   8423SM   C4F11232   4.612   1.346  13.652  0.2206  0.3363  0.5727
   8423SM   H4F11233   4.673   1.273  13.593  0.1326  1.0017 -0.3780
   8423SM   H4G11234   4.522   1.284  13.668 -0.5443  0.9145 -1.1854
   8423SM   C5F11235   4.682   1.385  13.779 -0.4076 -0.1588  0.0266
   8423SM   H5F11236   4.615   1.459  13.827 -1.0483 -0.8937  0.2793
   8423SM   H5G11237   4.784   1.430  13.769 -0.2170 -0.3366  1.0539
   8423SM   C6F11238   4.693   1.270  13.878 -0.5286  0.2043  0.2767
   8423SM   H6F11239   4.753   1.183  13.843  2.3135  2.1788 -0.0869
   8423SM   H6G11240   4.591   1.230  13.897 -1.1718  1.9430  0.6954
   8423SM   C7F11241   4.755   1.311  14.017 -0.2133 -0.1590 -0.7813
   8423SM   H7F11242   4.696   1.395  14.060 -2.0195 -0.7072 -2.0590
   8423SM   H7G11243   4.859   1.344  13.998 -0.2794  0.5776  0.0744
   8423SM   C8F11244   4.770   1.189  14.113 -0.1619  0.1151  0.5681
   8423SM   H8F11245   4.836   1.117  14.060  0.5922  1.9083 -1.0716
   8423SM   H8G11246   4.671   1.150  14.145  0.8395 -1.2332  2.2104
   8423SM   C9F11247   4.829   1.235  14.247 -0.8411  0.3906 -0.2819
   8423SM   H9F11248   4.771   1.321  14.288 -1.1999 -0.6552  1.5267
   8423SM   H9G11249   4.928   1.277  14.218 -1.8813  2.1240 -1.5558
   8423SM  C10F11250   4.817   1.123  14.351 -0.4052  0.8668 -0.2839
   8423SM  H10F11251   4.903   1.052  14.347  2.6941  4.2998  0.0912
   8423SM  H10G11252   4.722   1.069  14.334  0.5272 -0.5604 -1.2550
   8423SM  C11F11253   4.841   1.171  14.500  0.4272  0.9653  0.2110
   8423SM  H11F11254   4.755   1.232  14.534  0.1169 -0.5180  2.2456
   8423SM  H11G11255   4.923   1.246  14.506  0.5790  0.7432  1.0437
   8423SM  C12F11256   4.830   1.050  14.594 -0.3168  0.9426 -0.7018
   8423SM  H12F11257   4.907   0.975  14.569 -1.8492 -0.6435 -0.8219
   8423SM  H12G11258   4.731   1.000  14.583  0.0007  0.5492 -1.8164
   8423SM  C13F11259   4.843   1.080  14.743 -0.0453 -0.1321 -0.7111
   8423SM  H13F11260   4.833   0.986  14.801 -1.2909  1.0222  1.0534
   8423SM  H13G11261   4.762   1.139  14.791  1.1215  0.1955  0.9402
   8423SM  C14F11262   4.977   1.153  14.786 -0.7986 -0.1947 -0.1765
   8423SM  H14F11263   4.957   1.259  14.812  1.8329  0.9857 -2.5198
   8423SM  H14G11264   5.048   1.153  14.701 -0.7060  0.3071 -0.1010
   8423SM  C15F11265   5.057   1.095  14.902 -0.0914  0.0858 -0.2940
   8423SM  H15F11266   5.102   0.996  14.882 -1.4259 -0.5711 -0.1848
   8423SM  H15G11267   5.005   1.087  15.000  1.3824 -0.9420  0.4250
   8423SM  C16F11268   5.183   1.175  14.940  0.0167 -0.0430  0.2583
   8423SM  H16F11269   5.157   1.268  14.995 -0.5448 -0.5401  0.8420
   8423SM  H16G11270   5.224   1.214  14.845 -0.8653  1.0264  0.3020
   8423SM  C17F11271   5.283   1.096  15.029 -0.2728  0.4461 -0.2626
   8423SM  H17F11272   5.373   1.155  15.057 -0.0597 -0.8553  2.0680
   8423SM  H17G11273   5.326   1.014  14.968 -0.4878  0.8921 -1.0181
   8423SM  C18F11274   5.214   1.035  15.156  0.2425 -0.5724  0.8193
   8423SM  H18F11275   5.138   0.962  15.120  0.3939  0.0741 -0.8916
   8423SM  H18G11276   5.158   1.110  15.215 -1.6861 -1.2294 -0.1009
   8423SM  C19F11277   5.299   0.944  15.238 -0.2958 -0.0287 -0.4018
   8423SM  H19F11278   5.391   1.000  15.266 -0.8061 -0.6295  2.8296
   8423SM  H19G11279   5.341   0.856  15.185  0.5282 -1.5690  2.6358
   8423SM  C20F11280   5.241   0.898  15.367  0.4004  0.1908  0.3510
   8423SM  H20F11281   5.311   0.820  15.405 -1.4575 -1.2776  0.9193
   8423SM  H20G11282   5.143   0.848  15.353 -0.4210  2.3940 -2.7332
   8423SM  C21F11283   5.234   1.016  15.468  0.3463 -0.0937  0.6164
   8423SM  H21F11284   5.177   1.094  15.413  1.9699 -1.2042 -2.9744
   8423SM  H21G11285   5.334   1.061  15.484 -0.0245  1.0610 -0.2186
   8423SM  C22F11286   5.170   0.984  15.599 -0.0562 -0.0642 -0.5368
   8423SM  H22F11287   5.231   0.914  15.660  1.9427  1.4386 -0.6965
   8423SM  H22G11288   5.078   0.923  15.586 -0.2083 -0.0784  0.5455
   8423SM  C23F11289   5.144   1.105  15.684  0.5436 -0.1165  0.9414
   8423SM  H23F11290   5.245   1.143  15.713  1.5541 -0.8562 -1.3649
   8423SM  H23G11291   5.087   1.081  15.776 -1.5012  0.1050 -0.2139
   8423SM  H23H11292   5.093   1.189  15.631 -0.2273 -2.3224 -2.0598
   8523SM     N11293   6.766   4.446  12.434 -0.2444 -0.4267  0.1987
   8523SM   C1511294   6.784   4.538  12.313  0.3199 -0.2268 -0.6674
   8523SM  H15A11295   6.879   4.588  12.302 -0.1523  0.5089 -1.5807
   8523SM  H15B11296   6.706   4.612  12.301  2.0867  1.8915  0.1756
   8523SM  H15C11297   6.770   4.475  12.226  4.3080 -1.4725 -0.5975
   8523SM   C1411298   6.619   4.429  12.443 -0.0333 -0.0294 -0.7958
   8523SM  H14A11299   6.566   4.520  12.465  0.5261  0.8892 -2.9675
   8523SM  H14B11300   6.597   4.361  12.523  1.6324  1.4704  1.0285
   8523SM  H14C11301   6.582   4.385  12.351  0.3961 -0.0065 -0.9797
   8523SM   C1311302   6.850   4.326  12.422  0.1725 -0.2495  0.2273
   8523SM  H13A11303   6.851   4.287  12.522 -0.4913 -1.0962 -0.0777
   8523SM  H13B11304   6.952   4.342  12.392  0.4236 -1.1916  0.5562
   8523SM  H13C11305   6.799   4.255  12.358  0.1272 -0.1390  0.1404
   8523SM   C1211306   6.821   4.526  12.553  0.4743 -0.6607  0.1754
   8523SM  H12A11307   6.782   4.626  12.548 -0.1828 -0.9180  0.0689
   8523SM  H12B11308   6.929   4.536  12.546  0.3199  1.0389 -0.1883
   8523SM   C1111309   6.784   4.477  12.698  0.1188 -0.2577 -0.5971
   8523SM  H11A11310   6.674   4.480  12.714  0.2873  1.5042  0.5330
   8523SM  H11B11311   6.831   4.552  12.765 -2.0066 -0.2451  0.9422
   8523SM     P11312   6.986   4.330  12.779 -0.2022  0.4024 -0.1250
   8523SM   O1311313   7.032   4.197  12.740  0.2727  0.5714 -0.1463
   8523SM   O1411314   7.081   4.442  12.743 -0.2498 -0.7821 -0.0053
   8523SM   O1111315   6.949   4.342  12.937 -0.0645 -0.3655 -0.8513
   8523SM   O1211316   6.837   4.343  12.719  0.0670 -0.2765 -0.2048
   8523SM   C1S11317   6.883   4.234  13.004  0.1147 -0.0581 -0.3546
   8523SM   H1S11318   6.917   4.138  12.959  1.9780  0.1159  0.5620
   8523SM   H1T11319   6.774   4.246  12.988 -0.0611 -2.4577 -1.3331
   8523SM    NF11320   6.846   4.127  13.219  0.1024  0.7484 -0.9286
   8523SM   HNF11321   6.753   4.116  13.253  0.9020  0.4186  1.2963
   8523SM   C2S11322   6.907   4.242  13.153 -0.3267 -0.4529  0.5424
   8523SM   H2S11323   7.017   4.225  13.161 -0.3346 -4.7192 -3.6279
   8523SM   C3S11324   6.859   4.384  13.202 -0.2562 -0.2372 -0.1007
   8523SM   H3S11325   6.748   4.390  13.207 -0.2225 -0.0705  0.6178
   8523SM    O311326   6.883   4.499  13.114 -0.2059 -0.2533 -0.2790
   8523SM   HO311327   6.922   4.463  13.034 -1.5463  1.1787 -1.6745
   8523SM   C4S11328   6.913   4.405  13.341 -0.1766 -0.2167  0.1822
   8523SM   H4S11329   6.878   4.326  13.408 -0.5054 -1.4046 -1.3291
   8523SM   C5S11330   7.005   4.490  13.379 -1.0117  0.0297  0.6655
   8523SM   H5S11331   7.041   4.563  13.305 -3.8202  0.8983  0.0510
   8523SM   C6S11332   7.060   4.507  13.518 -0.0326  0.4046  0.3921
   8523SM   H6S11333   7.062   4.609  13.562  0.9135  1.1841 -1.3297
   8523SM   H6T11334   7.171   4.503  13.510 -0.0712  0.9011 -0.5884
   8523SM   C7S11335   7.007   4.402  13.617 -0.2945  0.3678 -0.5598
   8523SM   H7S11336   7.019   4.298  13.581 -0.0910  0.6007 -1.1920
   8523SM   H7T11337   6.898   4.413  13.637  0.1261  0.8091  1.7956
   8523SM   C8S11338   7.067   4.415  13.756 -0.3039 -1.0463  0.4206
   8523SM   H8S11339   7.047   4.517  13.796  0.9710  0.3981 -2.3138
   8523SM   H8T11340   7.175   4.389  13.748  0.1170  0.9571 -1.3658
   8523SM   C9S11341   7.001   4.318  13.855 -0.3504 -0.0261 -0.4168
   8523SM   H9S11342   7.021   4.214  13.822 -1.6903 -0.1677 -0.8332
   8523SM   H9T11343   6.892   4.338  13.864  0.0874  2.2862  0.6592
   8523SM  C10S11344   7.043   4.335  14.003  0.0191  0.4909  0.3204
   8523SM  H10S11345   7.152   4.316  14.012 -0.3823 -2.1666  0.4674
   8523SM  H10T11346   6.983   4.254  14.051  0.7331 -1.0189 -1.2045
   8523SM  C11S11347   7.001   4.473  14.061 -0.3372  0.5136 -0.0606
   8523SM  H11S11348   6.897   4.503  14.038 -0.3557 -0.2632 -1.0584
   8523SM  H11T11349   7.071   4.550  14.023 -0.9767 -0.4282 -3.4669
   8523SM  C12S11350   7.016   4.479  14.209 -0.5015  0.5900  0.2744
   8523SM  H12S11351   7.002   4.587  14.233 -0.8801  0.1934  1.9970
   8523SM  H12T11352   7.116   4.456  14.250 -0.5251  2.1688  1.2904
   8523SM  C13S11353   6.918   4.388  14.286  0.5239  0.0214 -0.1286
   8523SM  H13S11354   6.950   4.283  14.268 -1.2693 -1.0207  2.1913
   8523SM  H13T11355   6.814   4.398  14.249  1.3605 -1.1271 -3.0365
   8523SM  C14S11356   6.911   4.415  14.438  0.1671 -0.1802  0.9861
   8523SM  H14S11357   6.912   4.523  14.464  1.1868  0.3689 -1.1080
   8523SM  H14T11358   7.003   4.374  14.484 -0.4670 -1.0950  1.4672
   8523SM  C15S11359   6.789   4.353  14.511  0.0542 -1.1829 -0.8532
   8523SM  H15S11360   6.795   4.244  14.488 -0.6179 -1.4729  0.3042
   8523SM  H15T11361   6.694   4.404  14.485  1.8873  3.5885  0.8401
   8523SM  C16S11362   6.796   4.351  14.664 -0.0469 -0.2368  0.0102
   8523SM  H16S11363   6.702   4.324  14.717 -0.0580  0.5237  0.3881
   8523SM  H16T11364   6.804   4.454  14.704  0.4779 -0.5585  0.7781
   8523SM  C17S11365   6.904   4.256  14.713 -0.0945  0.1632 -0.5634
   8523SM  H17S11366   7.006   4.277  14.675  0.2098 -0.4868 -0.1161
   8523SM  H17T11367   6.880   4.156  14.671  0.4982  0.9034 -2.7930
   8523SM  C18S11368   6.903   4.240  14.870  0.7412  0.5982  0.6096
   8523SM  H18S11369   6.923   4.340  14.915  0.8724  0.3496  1.1081
   8523SM  H18T11370   6.977   4.168  14.910  2.2892  1.1703 -1.0708
   8523SM  H18U11371   6.803   4.210  14.906  1.8630 -2.7442  1.2719
   8523SM   C1F11372   6.913   4.014  13.235 -0.2994  0.2270 -0.0246
   8523SM    OF11373   7.035   4.018  13.217 -0.2883 -0.2267  0.4902
   8523SM   C2F11374   6.832   3.897  13.279 -0.1438 -0.0654  0.1762
   8523SM   H2F11375   6.895   3.805  13.269 -0.9428 -0.7114  0.9711
   8523SM   H2G11376   6.751   3.893  13.203 -0.0614  0.5804  0.0471
   8523SM   C3F11377   6.785   3.904  13.421 -0.1010  0.5307  0.6916
   8523SM   H3F11378   6.725   3.815  13.452  0.8843  0.0138  1.1846
   8523SM   H3G11379   6.727   3.997  13.439 -1.3511 -0.0031 -0.4289
   8523SM   C4F11380   6.889   3.906  13.528 -1.0066 -0.3172  0.2995
   8523SM   H4F11381   6.957   3.992  13.510 -2.6004  1.2985  1.5519
   8523SM   H4G11382   6.955   3.817  13.530 -0.8857 -0.2376 -0.0845
   8523SM   C5F11383   6.823   3.927  13.666  0.4830  0.3051  0.4725
   8523SM   H5F11384   6.776   3.828  13.686  1.5257 -0.4477 -0.6344
   8523SM   H5G11385   6.755   4.014  13.672 -2.6254 -2.0261  1.7930
   8523SM   C6F11386   6.923   3.944  13.782 -0.4648  0.4018 -0.0941
   8523SM   H6F11387   6.973   4.044  13.776 -0.3986  0.3559 -0.3528
   8523SM   H6G11388   6.993   3.860  13.765 -0.9582  0.1077 -0.7077
   8523SM   C7F11389   6.844   3.916  13.913 -0.2642 -0.1313 -0.3977
   8523SM   H7F11390   6.827   3.806  13.920  3.1810 -0.6846  1.5841
   8523SM   H7G11391   6.747   3.970  13.907 -0.4065 -0.5011 -1.7330
   8523SM   C8F11392   6.926   3.959  14.035  0.6783  0.0864  0.4454
   8523SM   H8F11393   6.924   4.070  14.041 -1.8805  0.3155 -2.2351
   8523SM   H8G11394   7.029   3.916  14.036  1.0913  1.0466  0.5594
   8523SM   C9F11395   6.849   3.905  14.159  0.1669 -0.2029 -0.4684
   8523SM   H9F11396   6.853   3.794  14.163 -2.6223 -0.3638 -0.1022
   8523SM   H9G11397   6.742   3.936  14.158 -0.1859 -1.3373 -1.6893
   8523SM  C10F11398   6.915   3.955  14.293 -1.0195 -0.5100  0.7224
   8523SM  H10F11399   6.917   4.065  14.282 -0.5303 -0.6420 -0.7261
   8523SM  H10G11400   7.018   3.916  14.309 -0.9665  0.0158  1.7102
   8523SM  C11F11401   6.828   3.914  14.418 -0.5992 -0.6636 -0.9382
   8523SM  H11F11402   6.785   3.815  14.392 -1.6044 -0.4097 -0.2774
   8523SM  H11G11403   6.749   3.991  14.431  0.4802  0.8843 -3.0556
   8523SM  C12F11404   6.912   3.906  14.546  0.0134 -0.0539  0.5338
   8523SM  H12F11405   6.967   4.003  14.542 -2.5455  1.4605 -1.4505
   8523SM  H12G11406   6.993   3.834  14.522 -0.2398 -0.0012 -0.5405
   8523SM  C13F11407   6.834   3.880  14.678 -0.2280  0.5007 -0.2639
   8523SM  H13F11408   6.789   3.974  14.717  1.6142  0.9264  0.9933
   8523SM  H13G11409   6.904   3.844  14.757  0.3153  0.1914 -0.8737
   8523SM  C14F11410   6.715   3.779  14.664 -0.0752 -0.1101 -0.3985
   8523SM  H14F11411   6.748   3.686  14.614  0.6264  0.0907 -0.3300
   8523SM  H14G11412   6.650   3.835  14.595  1.2062  0.1461 -1.4369
   8523SM  C15F11413   6.638   3.758  14.797  0.2528 -0.2369 -0.5398
   8523SM  H15F11414   6.633   3.862  14.837  2.3963 -0.5515  0.7089
   8523SM  H15G11415   6.697   3.691  14.863  2.6718  3.3311  1.2320
   8523SM  C16F11416   6.494   3.705  14.784  0.3831  0.2862 -0.5640
   8523SM  H16F11417   6.484   3.622  14.711 -1.1682 -0.0350 -0.0209
   8523SM  H16G11418   6.420   3.782  14.752 -0.1168  0.6076  1.2664
   8523SM  C17F11419   6.448   3.653  14.920  0.3466 -0.2130 -0.2859
   8523SM  H17F11420   6.456   3.738  14.992 -1.4333  1.5995 -2.0798
   8523SM  H17G11421   6.510   3.568  14.953  1.7321  0.6959 -0.4698
   8523SM  C18F11422   6.301   3.612  14.922 -0.6605 -0.1147  0.5160
   8523SM  H18F11423   6.291   3.542  14.836  0.4252 -1.1358  1.1873
   8523SM  H18G11424   6.245   3.701  14.886 -1.3638 -0.6403  0.2854
   8523SM  C19F11425   6.255   3.545  15.044  0.0430  0.2729 -0.4703
   8523SM  H19F11426   6.144   3.532  15.036  0.0732  0.0877 -0.5985
   8523SM  H19G11427   6.272   3.602  15.137 -0.8672  1.0015 -0.7304
   8523SM  C20F11428   6.324   3.408  15.063 -0.7268 -0.0235 -0.5883
   8523SM  H20F11429   6.431   3.431  15.076 -1.0932  1.4922 -0.0083
   8523SM  H20G11430   6.322   3.359  14.963 -1.4452  1.2585 -1.2417
   8523SM  C21F11431   6.265   3.328  15.180 -0.8790 -0.5226  0.0730
   8523SM  H21F11432   6.171   3.279  15.147 -1.6040  0.5693  0.4719
   8523SM  H21G11433   6.245   3.386  15.273 -2.1456 -0.6307 -0.1235
   8523SM  C22F11434   6.359   3.206  15.213  0.1994 -0.0107 -0.5261
   8523SM  H22F11435   6.466   3.232  15.220  0.2871 -0.4920 -0.0208
   8523SM  H22G11436   6.350   3.134  15.129  0.3491 -0.9846  0.2734
   8523SM  C23F11437   6.313   3.133  15.338 -0.1916 -0.5119 -0.8917
   8523SM  H23F11438   6.332   3.188  15.432 -1.2923 -0.5533 -0.6334
   8523SM  H23G11439   6.343   3.027  15.338 -1.9593 -1.0899 -2.3678
   8523SM  H23H11440   6.203   3.116  15.347 -0.4654  1.7112  0.6923
   8623SM     N11441   3.054   1.321  12.727 -0.0790 -0.1849  0.2486
   8623SM   C1511442   3.195   1.332  12.670  0.6718  0.1380  0.3340
   8623SM  H15A11443   3.240   1.235  12.688  0.4286 -0.2218 -0.9295
   8623SM  H15B11444   3.246   1.419  12.709 -0.3492  1.6439 -1.4706
   8623SM  H15C11445   3.187   1.339  12.562 -1.0755  0.2414  0.4369
   8623SM   C1411446   2.979   1.442  12.691 -0.8121  0.0497  0.1442
   8623SM  H14A11447   2.886   1.440  12.747  0.4930 -2.4567  2.4130
   8623SM  H14B11448   2.978   1.455  12.584  3.9343 -1.2284 -0.2896
   8623SM  H14C11449   3.035   1.528  12.725  0.4429  0.1695 -2.0719
   8623SM   C1311450   2.992   1.196  12.662  0.4204 -0.2333  0.1359
   8623SM  H13A11451   3.061   1.117  12.686  2.0380 -0.3252 -3.9073
   8623SM  H13B11452   2.994   1.212  12.555 -2.2605 -2.1900 -0.2936
   8623SM  H13C11453   2.886   1.186  12.677  0.5737 -2.9155 -0.0930
   8623SM   C1211454   3.059   1.311  12.882 -0.1012 -0.5226  0.5954
   8623SM  H12A11455   3.117   1.223  12.906 -0.1601 -0.0928  2.5319
   8623SM  H12B11456   2.963   1.274  12.918 -0.6542 -1.5492 -1.7420
   8623SM   C1111457   3.111   1.431  12.955  0.4257  0.0712 -0.0989
   8623SM  H11A11458   3.095   1.408  13.063 -1.4751  0.8443 -0.1773
   8623SM  H11B11459   3.053   1.524  12.935  1.2061  1.1422  2.2660
   8623SM     P11460   3.360   1.436  13.029  0.2654  0.2630 -0.4011
   8623SM   O1311461   3.482   1.375  12.964  0.4781 -0.4273 -0.0372
   8623SM   O1411462   3.377   1.570  13.092 -0.0449  0.2514 -0.1946
   8623SM   O1111463   3.302   1.331  13.138  0.0112 -0.0090 -0.0074
   8623SM   O1211464   3.254   1.447  12.921  0.6326  0.6966  0.3157
   8623SM   C1S11465   3.390   1.222  13.175 -0.4737  0.5130  1.0135
   8623SM   H1S11466   3.480   1.267  13.222  0.0456  0.2960  0.2562
   8623SM   H1T11467   3.424   1.163  13.087 -2.4793 -0.5740  0.9176
   8623SM    NF11468   3.432   1.026  13.297  0.4260  0.0063 -0.6024
   8623SM   HNF11469   3.428   0.954  13.228 -0.9778 -0.1144 -0.4166
   8623SM   C2S11470   3.328   1.129  13.279 -0.4313 -0.1295 -0.5521
   8623SM   H2S11471   3.311   1.186  13.372  1.3762  0.9274 -0.8278
   8623SM   C3S11472   3.201   1.064  13.218 -0.3822 -0.4319  0.0748
   8623SM   H3S11473   3.236   1.002  13.133  0.0893 -1.7670  1.2044
   8623SM    O311474   3.109   1.147  13.148  0.5049 -0.1241 -0.1579
   8623SM   HO311475   3.153   1.232  13.157 -1.1997  0.7198  0.8108
   8623SM   C4S11476   3.127   0.973  13.313 -0.4875 -0.2890 -0.1590
   8623SM   H4S11477   3.187   0.885  13.340  0.4872  0.1238 -0.8983
   8623SM   C5S11478   3.014   0.989  13.381 -0.5604 -0.3161  0.4606
   8623SM   H5S11479   2.950   1.078  13.366  0.5085  0.5737  1.0882
   8623SM   C6S11480   2.971   0.893  13.483 -0.4741  0.5663 -0.3287
   8623SM   H6S11481   3.018   0.795  13.464  0.1744  0.4217  1.7124
   8623SM   H6T11482   2.861   0.878  13.485 -0.5880  1.3666  1.2010
   8623SM   C7S11483   3.010   0.938  13.626 -0.2801 -0.2908  0.4683
   8623SM   H7S11484   2.950   1.031  13.642  1.6059  0.8991  0.9570
   8623SM   H7T11485   3.119   0.959  13.617 -0.2224 -0.4581  0.7649
   8623SM   C8S11486   2.988   0.832  13.738 -0.3749 -0.2739  0.3308
   8623SM   H8S11487   3.041   0.738  13.712 -1.4473 -0.5505 -0.9262
   8623SM   H8T11488   2.881   0.802  13.736 -0.5432  0.1546  1.6405
   8623SM   C9S11489   3.031   0.874  13.884 -0.0079 -0.1584 -0.1933
   8623SM   H9S11490   2.977   0.964  13.920 -0.8286 -1.4279  1.9601
   8623SM   H9T11491   3.139   0.901  13.876  0.3704 -0.5975  2.3726
   8623SM  C10S11492   2.999   0.763  13.992 -0.4678 -0.0602  0.0386
   8623SM  H10S11493   3.064   0.676  13.972  0.0007  0.3323 -0.1638
   8623SM  H10T11494   2.891   0.738  13.998 -0.3644 -1.2553 -2.1176
   8623SM  C11S11495   3.036   0.802  14.132  0.2428 -0.4495  0.5702
   8623SM  H11S11496   3.019   0.910  14.153  1.3103  0.1143 -1.2149
   8623SM  H11T11497   3.146   0.803  14.144  0.1348  0.9276  1.7909
   8623SM  C12S11498   2.974   0.709  14.244 -1.0429 -0.5999  0.0344
   8623SM  H12S11499   2.873   0.736  14.281 -0.7098  0.3124  0.2963
   8623SM  H12T11500   3.041   0.718  14.332  0.0175 -0.9277 -0.7169
   8623SM  C13S11501   2.970   0.566  14.207 -0.4146  0.0909  0.0541
   8623SM  H13S11502   3.071   0.529  14.178  0.5878 -1.3566  4.6927
   8623SM  H13T11503   2.910   0.556  14.114 -2.4592 -1.5761  1.4736
   8623SM  C14S11504   2.897   0.476  14.299  0.5050  0.8562 -0.3221
   8623SM  H14S11505   2.789   0.498  14.309  0.4238  0.8089 -1.0223
   8623SM  H14T11506   2.951   0.471  14.396 -0.0989 -2.5130 -0.0454
   8623SM  C15S11507   2.904   0.328  14.250 -0.3618 -0.2323 -0.1182
   8623SM  H15S11508   3.005   0.302  14.212 -1.3797  0.3422 -3.4746
   8623SM  H15T11509   2.841   0.321  14.159  0.0274  0.0968 -0.4176
   8623SM  C16S11510   2.867   0.218  14.349 -0.1147  0.5111  0.2658
   8623SM  H16S11511   2.948   0.195  14.421 -0.5943  1.8148  1.2522
   8623SM  H16T11512   2.846   0.115  14.313 -2.5550 -0.2892  3.5942
   8623SM  C17S11513   2.743   0.256  14.424  0.0145  0.5177 -0.3756
   8623SM  H17S11514   2.667   0.289  14.351  0.1108 -0.7876 -1.0944
   8623SM  H17T11515   2.776   0.343  14.485 -0.4285  0.4822 -0.0847
   8623SM  C18S11516   2.697   0.153  14.534  0.7824  0.3731 -0.2906
   8623SM  H18S11517   2.630   0.194  14.613  0.9627  0.2266 -0.0596
   8623SM  H18T11518   2.796   0.122  14.575  0.5515  0.7977  0.6160
   8623SM  H18U11519   2.649   0.067  14.482  1.0720  0.8805 -1.4294
   8623SM   C1F11520   3.538   1.034  13.369  0.0837 -0.0843 -0.0391
   8623SM    OF11521   3.568   1.140  13.422  0.3550  0.1440  0.4722
   8623SM   C2F11522   3.628   0.911  13.380 -0.3315 -0.4403  0.2795
   8623SM   H2F11523   3.724   0.939  13.332 -0.6791  2.2249  0.9795
   8623SM   H2G11524   3.571   0.824  13.342  3.4804 -2.3731 -1.5721
   8623SM   C3F11525   3.657   0.878  13.534 -0.0730  0.2858  0.6721
   8623SM   H3F11526   3.717   0.966  13.567  0.0868 -0.0745  1.3494
   8623SM   H3G11527   3.721   0.788  13.537 -1.8741 -1.3017 -2.7301
   8623SM   C4F11528   3.531   0.870  13.625 -0.5373 -0.3338 -0.4082
   8623SM   H4F11529   3.485   0.768  13.625  0.7377 -0.9393  1.0141
   8623SM   H4G11530   3.458   0.943  13.586  0.2662  0.1040 -1.1365
   8623SM   C5F11531   3.583   0.896  13.768  0.0935  0.2302  0.1065
   8623SM   H5F11532   3.640   0.990  13.784  0.7664 -0.5790  3.0961
   8623SM   H5G11533   3.638   0.803  13.793 -0.3432  0.0905  0.5701
   8623SM   C6F11534   3.464   0.907  13.871 -0.3729 -1.2053 -1.6511
   8623SM   H6F11535   3.427   0.804  13.888 -0.3316 -1.1890 -1.4634
   8623SM   H6G11536   3.382   0.972  13.835  1.1145  0.5441 -2.0663
   8623SM   C7F11537   3.513   0.965  14.007 -0.9889 -0.5701  0.3073
   8623SM   H7F11538   3.553   1.068  13.995 -2.8501  0.5424  2.6803
   8623SM   H7G11539   3.599   0.899  14.030 -1.3632 -1.1781 -0.0227
   8623SM   C8F11540   3.414   0.955  14.123  0.3591  0.3501 -0.5458
   8623SM   H8F11541   3.376   0.850  14.124  2.5313 -0.5101  1.5501
   8623SM   H8G11542   3.335   1.033  14.114 -1.6217 -1.4302  0.5693
   8623SM   C9F11543   3.466   0.981  14.266  0.2610  0.0732 -0.4246
   8623SM   H9F11544   3.498   1.087  14.270  1.7691 -0.2272 -2.6826
   8623SM   H9G11545   3.556   0.917  14.275  0.6344  0.6815  0.2503
   8623SM  C10F11546   3.363   0.968  14.380 -0.2394  0.2022  0.0758
   8623SM  H10F11547   3.307   0.872  14.376 -0.1801  0.1524  0.4119
   8623SM  H10G11548   3.290   1.052  14.376 -2.2508 -1.4067  0.7894
   8623SM  C11F11549   3.427   0.973  14.522 -0.3080  0.1412 -0.2705
   8623SM  H11F11550   3.353   0.996  14.602  0.8073  2.0858  0.2747
   8623SM  H11G11551   3.498   1.058  14.519 -0.1084 -0.0092  0.1016
   8623SM  C12F11552   3.504   0.844  14.563  0.1897 -0.2844 -0.2548
   8623SM  H12F11553   3.585   0.846  14.487  0.6207 -2.9987  0.0397
   8623SM  H12G11554   3.460   0.743  14.557  0.3446 -0.4100  0.5944
   8623SM  C13F11555   3.580   0.863  14.696 -0.7336  0.2894 -1.1318
   8623SM  H13F11556   3.507   0.878  14.779 -2.4732 -1.6726 -2.2220
   8623SM  H13G11557   3.634   0.960  14.689  0.2993 -0.1368  0.4127
   8623SM  C14F11558   3.665   0.742  14.730 -0.5473  0.0886 -0.4270
   8623SM  H14F11559   3.758   0.757  14.672 -0.0475  0.4258  0.4332
   8623SM  H14G11560   3.604   0.657  14.693 -1.0613  0.9750 -1.7075
   8623SM  C15F11561   3.699   0.729  14.875 -0.2070  1.1950  0.1786
   8623SM  H15F11562   3.704   0.620  14.896 -1.8729  1.0276 -0.1505
   8623SM  H15G11563   3.613   0.774  14.929 -1.4229  1.3831 -1.7944
   8623SM  C16F11564   3.825   0.799  14.922  0.3723 -1.0420 -0.0188
   8623SM  H16F11565   3.838   0.897  14.871  1.4366 -1.7236 -1.1033
   8623SM  H16G11566   3.915   0.745  14.887  0.9896 -0.0833  0.0435
   8623SM  C17F11567   3.828   0.826  15.074 -0.5686 -1.0216 -0.0889
   8623SM  H17F11568   3.753   0.899  15.110  0.6615 -0.3382  1.1877
   8623SM  H17G11569   3.931   0.864  15.090  0.3758 -2.8322 -1.4306
   8623SM  C18F11570   3.820   0.707  15.166  0.3588  0.0376  0.1916
   8623SM  H18F11571   3.894   0.629  15.135  2.4914  1.3956  1.6529
   8623SM  H18G11572   3.726   0.650  15.147  0.9317 -0.9632  0.2751
   8623SM  C19F11573   3.824   0.745  15.313 -0.0716 -0.6420  0.1813
   8623SM  H19F11574   3.724   0.792  15.322  1.3413  2.2775  2.1851
   8623SM  H19G11575   3.905   0.816  15.338 -0.6769  0.4010 -0.6960
   8623SM  C20F11576   3.819   0.635  15.419 -0.2389  0.8337  0.3696
   8623SM  H20F11577   3.740   0.560  15.392  1.3707 -1.1583  0.9400
   8623SM  H20G11578   3.790   0.678  15.517  0.8612  1.2699  0.5113
   8623SM  C21F11579   3.956   0.564  15.427 -0.9001 -0.1462  0.4430
   8623SM  H21F11580   4.029   0.634  15.472  0.1945 -1.4798  0.8063
   8623SM  H21G11581   3.997   0.542  15.326 -0.3972  0.2938  0.5504
   8623SM  C22F11582   3.958   0.446  15.525 -0.3418 -0.2208  0.0388
   8623SM  H22F11583   3.892   0.368  15.482  0.3308 -1.4951  1.2359
   8623SM  H22G11584   3.933   0.472  15.629  0.7780  0.5314  0.1396
   8623SM  C23F11585   4.097   0.384  15.531  0.0485 -0.2241 -0.0756
   8623SM  H23F11586   4.131   0.361  15.428 -1.7861  1.2840 -1.0818
   8623SM  H23G11587   4.095   0.292  15.593 -3.2677  0.5404  1.1682
   8623SM  H23H11588   4.172   0.454  15.573 -0.6302  1.5630 -1.6726
   8723SM     N11589   4.458   1.692  12.472 -0.6115 -0.4811 -0.6781
   8723SM   C1511590   4.479   1.842  12.505  0.3120  0.4838  0.1699
   8723SM  H15A11591   4.582   1.869  12.484  0.9802 -0.8582  1.4724
   8723SM  H15B11592   4.451   1.844  12.609 -2.1227  1.0195 -0.4510
   8723SM  H15C11593   4.410   1.912  12.462  0.6017  0.2608 -0.6685
   8723SM   C1411594   4.319   1.658  12.506 -0.3172 -0.1056  0.5707
   8723SM  H14A11595   4.292   1.559  12.473  1.2204 -0.1109 -0.7752
   8723SM  H14B11596   4.251   1.724  12.454  0.5763  0.5171  0.1573
   8723SM  H14C11597   4.299   1.672  12.611 -2.5398 -0.1739  0.2147
   8723SM   C1311598   4.490   1.666  12.325 -0.0778  0.0778 -0.3109
   8723SM  H13A11599   4.480   1.566  12.288  1.1103  1.1718 -4.0130
   8723SM  H13B11600   4.591   1.700  12.310 -0.5960  3.3863  2.2484
   8723SM  H13C11601   4.429   1.726  12.259 -1.1818 -1.7250 -1.0066
   8723SM   C1211602   4.551   1.611  12.563  0.1698  0.5534 -0.2626
   8723SM  H12A11603   4.511   1.510  12.569  0.2568  0.5901  2.9648
   8723SM  H12B11604   4.523   1.649  12.660  0.4442  0.4269 -0.1322
   8723SM   C1111605   4.704   1.589  12.536 -0.2263 -0.4030 -0.1830
   8723SM  H11A11606   4.696   1.540  12.437 -0.4125 -1.2042  0.2247
   8723SM  H11B11607   4.764   1.521  12.600  0.4592 -0.9654 -1.3851
   8723SM     P11608   4.829   1.786  12.647 -0.2034 -0.1124 -0.2055
   8723SM   O1311609   4.944   1.700  12.688 -0.0479 -0.4767 -0.2167
   8723SM   O1411610   4.843   1.927  12.617 -0.2229 -0.1259  0.2546
   8723SM   O1111611   4.715   1.773  12.761 -0.0258  0.5897  0.2753
   8723SM   O1211612   4.762   1.718  12.517  0.0450  0.4679 -0.5162
   8723SM   C1S11613   4.723   1.679  12.867 -0.7686  0.3059 -0.9028
   8723SM   H1S11614   4.759   1.579  12.833 -2.9020 -0.7794 -0.1964
   8723SM   H1T11615   4.622   1.656  12.909  0.0695 -2.0932 -0.0307
   8723SM    NF11616   4.803   1.620  13.093 -0.5019 -0.0194  0.1144
   8723SM   HNF11617   4.735   1.624  13.166 -0.3428 -1.8777  0.4235
   8723SM   C2S11618   4.806   1.728  12.997  0.4378  0.4496 -0.0403
   8723SM   H2S11619   4.907   1.736  12.951  0.2966 -0.6212 -0.5514
   8723SM   C3S11620   4.758   1.861  13.064  0.2258  0.5603 -0.2557
   8723SM   H3S11621   4.651   1.853  13.094  0.6285  0.8112  1.3706
   8723SM    O311622   4.763   1.978  12.977  0.3957  0.8727  0.0491
   8723SM   HO311623   4.772   1.933  12.893 -1.8069  1.1262 -0.3876
   8723SM   C4S11624   4.836   1.885  13.183 -0.5925 -0.4303 -0.2528
   8723SM   H4S11625   4.943   1.885  13.161 -0.0947  2.6528  1.6156
   8723SM   C5S11626   4.797   1.894  13.310  0.1437  0.9644 -0.4106
   8723SM   H5S11627   4.691   1.880  13.337  0.3931 -0.9974 -0.3094
   8723SM   C6S11628   4.887   1.917  13.428  0.1588  0.1682 -0.2140
   8723SM   H6S11629   4.850   2.004  13.486  1.4089  1.1751 -0.8786
   8723SM   H6T11630   4.993   1.936  13.399  0.4011 -0.1351  0.4455
   8723SM   C7S11631   4.890   1.793  13.524 -0.4983  0.4656  0.0838
   8723SM   H7S11632   4.957   1.716  13.480 -0.6190  0.2447  0.2867
   8723SM   H7T11633   4.788   1.752  13.542 -0.9867  2.0898  1.1909
   8723SM   C8S11634   4.956   1.840  13.655 -0.6179 -0.7383  0.3483
   8723SM   H8S11635   4.903   1.931  13.691 -0.4336 -0.1355 -0.8490
   8723SM   H8T11636   5.058   1.877  13.631 -1.4415  2.6496  1.5591
   8723SM   C9S11637   4.960   1.736  13.762  0.7991  0.1287 -0.3212
   8723SM   H9S11638   5.039   1.663  13.733 -1.1471 -1.2451 -2.4111
   8723SM   H9T11639   4.863   1.685  13.779 -0.1972  2.9146  4.0758
   8723SM  C10S11640   4.988   1.786  13.904 -0.8051  0.6142  0.3371
   8723SM  H10S11641   4.915   1.861  13.942 -1.0622  1.3274 -1.4491
   8723SM  H10T11642   5.078   1.851  13.907 -0.7220  0.5695 -0.7258
   8723SM  C11S11643   4.998   1.659  13.994 -0.3509  1.0029 -0.8432
   8723SM  H11S11644   5.082   1.595  13.962  0.1100  0.6215  0.9940
   8723SM  H11T11645   4.908   1.594  13.985  0.4933 -0.3820  0.1592
   8723SM  C12S11646   5.018   1.684  14.146  0.2655  0.3794  0.0521
   8723SM  H12S11647   4.945   1.762  14.176 -1.3977 -0.8420 -0.6958
   8723SM  H12T11648   5.117   1.733  14.161  2.1345 -3.2169  0.6077
   8723SM  C13S11649   4.998   1.574  14.252  0.1738  0.4394 -0.1524
   8723SM  H13S11650   5.068   1.491  14.226  1.5537  1.5793 -0.1827
   8723SM  H13T11651   4.897   1.534  14.232  0.5921 -0.3224 -0.8440
   8723SM  C14S11652   5.026   1.619  14.399 -0.1698  0.6321 -0.4237
   8723SM  H14S11653   4.954   1.698  14.428 -1.4684 -0.7957  0.3493
   8723SM  H14T11654   5.128   1.664  14.397 -0.8875  2.3889  0.1612
   8723SM  C15S11655   5.034   1.494  14.490  0.5868 -0.0347  0.6369
   8723SM  H15S11656   5.111   1.424  14.452  0.0938  1.0349 -2.6651
   8723SM  H15T11657   4.937   1.441  14.480  0.4592  0.4055 -0.5937
   8723SM  C16S11658   5.070   1.519  14.634 -0.6970  0.2619  0.5467
   8723SM  H16S11659   5.106   1.426  14.682  0.1100  1.1128  1.6571
   8723SM  H16T11660   4.977   1.551  14.686 -1.6916  0.8171 -1.4790
   8723SM  C17S11661   5.188   1.624  14.656 -0.6490 -0.5967  0.2057
   8723SM  H17S11662   5.153   1.724  14.623 -1.3725 -1.5569 -2.1734
   8723SM  H17T11663   5.280   1.593  14.601 -0.3431  0.2759  0.2250
   8723SM  C18S11664   5.233   1.635  14.801 -0.0903  0.3655 -0.1817
   8723SM  H18S11665   5.153   1.698  14.845 -0.7982 -1.1439  0.7665
   8723SM  H18T11666   5.334   1.682  14.800  0.4071 -0.6287  0.9802
   8723SM  H18U11667   5.241   1.537  14.853 -1.1222 -1.0253 -2.4905
   8723SM   C1F11668   4.864   1.500  13.078 -0.5084 -0.9506 -0.0304
   8723SM    OF11669   4.938   1.473  12.982  0.4615 -0.0792 -0.0854
   8723SM   C2F11670   4.837   1.396  13.179  0.8805  0.2624  0.0286
   8723SM   H2F11671   4.875   1.297  13.145 -0.3539 -0.1760 -0.1144
   8723SM   H2G11672   4.727   1.379  13.185  0.8486 -1.9440 -3.7524
   8723SM   C3F11673   4.894   1.443  13.309  0.0387  0.3443 -1.0573
   8723SM   H3F11674   4.818   1.514  13.348 -0.0511 -1.1093  1.6550
   8723SM   H3G11675   4.995   1.489  13.317  0.7748 -1.0084 -2.1352
   8723SM   C4F11676   4.910   1.326  13.410 -0.2771 -0.4840 -0.3039
   8723SM   H4F11677   4.986   1.256  13.368 -0.4638  0.6942 -2.7801
   8723SM   H4G11678   4.808   1.282  13.413 -0.3701 -0.2290  0.8075
   8723SM   C5F11679   4.952   1.379  13.547 -0.3612  0.1759 -1.1214
   8723SM   H5F11680   4.861   1.425  13.591  0.3550 -0.2819  0.9939
   8723SM   H5G11681   5.040   1.444  13.528  1.0014 -1.6964 -1.5950
   8723SM   C6F11682   5.000   1.268  13.638  0.8945 -0.2100  0.0811
   8723SM   H6F11683   5.079   1.219  13.577  2.4936  1.3659  0.7840
   8723SM   H6G11684   4.918   1.205  13.678 -0.9333  2.7113  1.2419
   8723SM   C7F11685   5.081   1.335  13.754  0.1812  0.0473  0.1546
   8723SM   H7F11686   5.019   1.420  13.790 -1.0700 -0.3211 -1.0235
   8723SM   H7G11687   5.176   1.382  13.721 -0.4035  0.9185 -0.3640
   8723SM   C8F11688   5.111   1.239  13.876 -0.3550 -0.0618  0.0475
   8723SM   H8F11689   5.155   1.143  13.841 -1.0103 -2.0570  4.1920
   8723SM   H8G11690   5.012   1.208  13.915 -1.8292  1.0095 -2.5456
   8723SM   C9F11691   5.197   1.295  13.989  0.3857  0.7372 -0.8840
   8723SM   H9F11692   5.163   1.394  14.027  1.2233 -0.0314  2.1676
   8723SM   H9G11693   5.285   1.324  13.929  0.2489  2.4685 -0.3042
   8723SM  C10F11694   5.225   1.187  14.091 -0.3188  0.1784  0.2673
   8723SM  H10F11695   5.278   1.102  14.045 -0.4252  0.4020 -0.2740
   8723SM  H10G11696   5.125   1.145  14.115 -0.5083  1.4172  1.8611
   8723SM  C11F11697   5.298   1.233  14.215  0.4337 -0.0621  0.1921
   8723SM  H11F11698   5.240   1.320  14.254  2.1944  1.6268 -0.8173
   8723SM  H11G11699   5.394   1.279  14.184 -0.8216  2.8661  0.3029
   8723SM  C12F11700   5.325   1.126  14.319  0.6572  0.5022 -1.1821
   8723SM  H12F11701   5.381   1.037  14.284  1.1835 -0.7314  2.3478
   8723SM  H12G11702   5.230   1.081  14.355  1.5680 -1.9664 -1.6168
   8723SM  C13F11703   5.404   1.181  14.437 -0.5888 -0.2270 -0.3150
   8723SM  H13F11704   5.398   1.290  14.456 -2.1126 -0.5759  1.4068
   8723SM  H13G11705   5.512   1.181  14.409 -1.0741 -0.3279 -2.3591
   8723SM  C14F11706   5.378   1.110  14.570 -0.6062  0.1769 -0.2001
   8723SM  H14F11707   5.390   1.003  14.544  0.8504  0.3475 -0.3032
   8723SM  H14G11708   5.271   1.127  14.594 -0.4306 -0.7550  1.4122
   8723SM  C15F11709   5.479   1.144  14.684  0.2943  1.0775 -0.0052
   8723SM  H15F11710   5.573   1.086  14.672 -0.9043 -1.0591  0.4092
   8723SM  H15G11711   5.427   1.094  14.769 -1.7163 -0.4592 -1.9910
   8723SM  C16F11712   5.493   1.297  14.707 -0.4207 -0.0521 -0.0769
   8723SM  H16F11713   5.392   1.340  14.722  0.7577  2.2125  2.0572
   8723SM  H16G11714   5.539   1.348  14.620  3.0322 -1.6080  0.6563
   8723SM  C17F11715   5.577   1.325  14.830 -0.4155 -0.1402  0.5508
   8723SM  H17F11716   5.537   1.289  14.927 -1.4722  0.5857  0.4007
   8723SM  H17G11717   5.585   1.436  14.834 -2.1493  0.0944 -0.9817
   8723SM  C18F11718   5.724   1.269  14.813  0.4170 -0.6600 -0.2670
   8723SM  H18F11719   5.760   1.284  14.709 -1.7073 -1.6440 -1.2103
   8723SM  H18G11720   5.711   1.159  14.819 -1.6517 -0.4073  0.7881
   8723SM  C19F11721   5.827   1.333  14.913 -0.2349 -0.7693  0.3134
   8723SM  H19F11722   5.832   1.444  14.916  1.7972 -0.7821 -0.8474
   8723SM  H19G11723   5.920   1.278  14.885 -0.2141 -0.4310 -0.2777
   8723SM  C20F11724   5.787   1.282  15.057 -0.1107 -0.3844  0.4447
   8723SM  H20F11725   5.877   1.232  15.099  0.0348 -0.4762  0.0198
   8723SM  H20G11726   5.700   1.213  15.054 -0.3686 -0.0300 -1.3181
   8723SM  C21F11727   5.770   1.394  15.161 -0.0139  0.0968  0.9032
   8723SM  H21F11728   5.718   1.480  15.114  1.7147  0.5422 -0.2807
   8723SM  H21G11729   5.869   1.424  15.201 -0.1686 -1.0523  2.2528
   8723SM  C22F11730   5.696   1.356  15.287 -0.5726  0.0620  0.3527
   8723SM  H22F11731   5.754   1.287  15.353  0.2182  1.9170  1.6620
   8723SM  H22G11732   5.606   1.293  15.268 -1.3248  1.1167  0.3285
   8723SM  C23F11733   5.641   1.477  15.373 -0.2930  0.5008  0.0894
   8723SM  H23F11734   5.567   1.451  15.452  0.3123 -1.0009  0.2081
   8723SM  H23G11735   5.572   1.534  15.307 -1.5012 -0.6821  0.2864
   8723SM  H23H11736   5.716   1.547  15.413  0.5177 -0.4246  0.2304
   8823SM     N11737   3.062   2.689  12.832  0.1965 -0.0705  0.1530
   8823SM   C1511738   2.923   2.726  12.788  0.0578  0.1229 -0.5435
   8823SM  H15A11739   2.853   2.754  12.866  0.0426  0.4864 -0.6859
   8823SM  H15B11740   2.879   2.639  12.741 -2.1464 -0.6554  2.6067
   8823SM  H15C11741   2.915   2.796  12.706 -0.5738 -0.0545 -0.6395
   8823SM   C1411742   3.137   2.640  12.714 -0.1145 -0.2465  0.6870
   8823SM  H14A11743   3.097   2.546  12.677  1.1137  0.0099 -1.4406
   8823SM  H14B11744   3.242   2.626  12.734 -0.0996 -1.1263  0.0667
   8823SM  H14C11745   3.126   2.698  12.624 -1.2935 -1.4860 -0.0164
   8823SM   C1311746   3.130   2.810  12.885 -0.4740  0.2161 -0.6629
   8823SM  H13A11747   3.135   2.887  12.810  0.1242  1.4858  0.6322
   8823SM  H13B11748   3.229   2.776  12.911 -0.4681 -1.7907 -2.9611
   8823SM  H13C11749   3.072   2.851  12.966  0.4603  1.5450 -0.6403
   8823SM   C1211750   3.075   2.573  12.932 -0.2098 -0.2055 -0.5195
   8823SM  H12A11751   3.179   2.562  12.960  0.0319  1.2825 -0.7600
   8823SM  H12B11752   3.048   2.479  12.888 -0.5717 -0.2749 -0.1517
   8823SM   C1111753   2.994   2.579  13.065 -0.0279 -0.1270  0.0816
   8823SM  H11A11754   3.026   2.674  13.113  0.4987  0.2982 -1.0759
   8823SM  H11B11755   3.033   2.502  13.134 -1.5140 -1.3613 -0.4054
   8823SM     P11756   2.787   2.430  13.035  0.1359  0.1408  0.2579
   8823SM   O1311757   2.640   2.452  13.054  0.3037  0.3851  0.1321
   8823SM   O1411758   2.831   2.360  12.908 -0.2501  0.0510 -0.2247
   8823SM   O1111759   2.856   2.353  13.155  0.0957 -0.4224  0.2081
   8823SM   O1211760   2.854   2.577  13.048 -0.0634  0.2468  0.5116
   8823SM   C1S11761   2.810   2.383  13.290 -0.4167 -0.0353  0.3014
   8823SM   H1S11762   2.700   2.373  13.297 -0.4417  0.4165  0.5660
   8823SM   H1T11763   2.846   2.480  13.330 -3.7448  1.5054 -0.0745
   8823SM    NF11764   2.816   2.313  13.528  1.0168 -0.2182  0.5084
   8823SM   HNF11765   2.885   2.363  13.578  1.2990 -0.3841  0.2872
   8823SM   C2S11766   2.858   2.274  13.395  0.0721  0.1144 -0.3319
   8823SM   H2S11767   2.822   2.176  13.359  2.5729 -0.8390 -0.3807
   8823SM   C3S11768   3.015   2.259  13.390  0.0261 -0.3070 -0.4738
   8823SM   H3S11769   3.066   2.352  13.421 -1.0280  0.1125  0.0505
   8823SM    O311770   3.076   2.227  13.262  0.3919  0.6403 -0.2498
   8823SM   HO311771   3.002   2.241  13.202 -0.1955  0.5211  0.4328
   8823SM   C4S11772   3.062   2.154  13.490  0.2906  0.3151  0.6499
   8823SM   H4S11773   3.122   2.207  13.565  1.5272 -3.1043  2.2916
   8823SM   C5S11774   3.069   2.020  13.484  0.3273 -0.2055  0.7503
   8823SM   H5S11775   3.023   1.971  13.397  0.6347  0.4905  0.1885
   8823SM   C6S11776   3.137   1.930  13.585 -0.3059  0.1879  0.1969
   8823SM   H6S11777   3.190   1.845  13.536  1.6211  0.2745  1.9834
   8823SM   H6T11778   3.062   1.872  13.642  1.3101 -0.9099  1.3050
   8823SM   C7S11779   3.229   1.993  13.687  0.1986  0.7085 -0.2802
   8823SM   H7S11780   3.161   2.042  13.761  0.5440  0.7950 -0.0176
   8823SM   H7T11781   3.295   2.067  13.637  0.0612  0.8852 -0.1992
   8823SM   C8S11782   3.319   1.888  13.760  0.1640 -0.5750 -0.4569
   8823SM   H8S11783   3.385   1.944  13.830  0.3451 -2.6331  1.1171
   8823SM   H8T11784   3.399   1.850  13.693 -0.4979 -0.4095 -1.3466
   8823SM   C9S11785   3.248   1.780  13.851  0.0104 -0.0069  0.6285
   8823SM   H9S11786   3.160   1.730  13.804 -0.1263  0.8838 -0.0909
   8823SM   H9T11787   3.208   1.829  13.942 -0.2816 -1.0797  1.0962
   8823SM  C10S11788   3.352   1.677  13.887  0.2962 -0.6976 -0.6707
   8823SM  H10S11789   3.399   1.638  13.794 -1.8531 -0.9321 -1.7226
   8823SM  H10T11790   3.301   1.596  13.943 -0.7140  0.8472  0.7278
   8823SM  C11S11791   3.469   1.740  13.968  0.8445  0.6895  0.3526
   8823SM  H11S11792   3.433   1.818  14.039 -0.4046 -0.5515  1.1590
   8823SM  H11T11793   3.546   1.789  13.905  2.3279  0.7472  2.1470
   8823SM  C12S11794   3.541   1.637  14.056 -0.6509 -0.0421  0.4569
   8823SM  H12S11795   3.565   1.551  13.991  0.7788  0.3267  0.4706
   8823SM  H12T11796   3.479   1.594  14.137  1.0453 -2.4944  0.5549
   8823SM  C13S11797   3.671   1.698  14.105  0.0336  0.0986 -0.6627
   8823SM  H13S11798   3.650   1.792  14.160 -1.5451 -0.9518  0.6166
   8823SM  H13T11799   3.742   1.722  14.023  2.6647 -0.4307  1.3068
   8823SM  C14S11800   3.749   1.602  14.198  0.2588 -0.1781  0.8623
   8823SM  H14S11801   3.740   1.633  14.305  1.0026  1.3417  0.5078
   8823SM  H14T11802   3.853   1.600  14.158 -0.4143 -0.9067 -0.9069
   8823SM  C15S11803   3.693   1.457  14.194 -0.3614  0.2731  0.1078
   8823SM  H15S11804   3.669   1.429  14.089 -0.3263 -1.0580  0.4357
   8823SM  H15T11805   3.597   1.452  14.249 -0.5110  0.8103 -0.0937
   8823SM  C16S11806   3.800   1.356  14.243 -0.0371  0.6639  0.1715
   8823SM  H16S11807   3.849   1.388  14.338  1.0278  0.2828 -0.2424
   8823SM  H16T11808   3.876   1.362  14.163 -1.1149  2.3183 -0.7901
   8823SM  C17S11809   3.734   1.223  14.254  0.0071  0.1006 -0.6905
   8823SM  H17S11810   3.669   1.200  14.166 -2.7503 -0.4427  1.3674
   8823SM  H17T11811   3.653   1.242  14.327 -1.9778  0.4030 -2.8667
   8823SM  C18S11812   3.823   1.105  14.303 -0.2990  0.1644 -0.4806
   8823SM  H18S11813   3.766   1.011  14.287  0.9661 -0.4132 -1.7695
   8823SM  H18T11814   3.852   1.106  14.410  0.4016  0.1793 -0.6666
   8823SM  H18U11815   3.920   1.104  14.249 -0.2103 -0.5940 -0.3109
   8823SM   C1F11816   2.684   2.307  13.564  0.2475  0.7365 -0.0125
   8823SM    OF11817   2.596   2.243  13.506  0.1883 -0.1404 -0.1630
   8823SM   C2F11818   2.646   2.393  13.677 -0.3556  0.2215  0.0012
   8823SM   H2F11819   2.647   2.502  13.655 -1.5200 -0.1268 -1.9427
   8823SM   H2G11820   2.727   2.390  13.753  0.1676 -0.6478 -0.5687
   8823SM   C3F11821   2.510   2.358  13.729  0.6752  0.0268 -0.0581
   8823SM   H3F11822   2.437   2.358  13.646 -1.4857  0.4543  1.7286
   8823SM   H3G11823   2.468   2.439  13.793  0.5111  1.2395 -1.6428
   8823SM   C4F11824   2.494   2.229  13.807  0.1580 -0.0609  0.0952
   8823SM   H4F11825   2.520   2.147  13.737  1.7136 -0.2216  0.8210
   8823SM   H4G11826   2.385   2.226  13.832  0.2479  2.7428  1.2886
   8823SM   C5F11827   2.584   2.223  13.929  0.4048 -0.2668  0.1696
   8823SM   H5F11828   2.556   2.315  13.984 -0.8800 -1.7750  2.1703
   8823SM   H5G11829   2.692   2.230  13.905  0.6109 -2.0283  0.5031
   8823SM   C6F11830   2.552   2.095  14.006  0.0190  0.3545 -0.0481
   8823SM   H6F11831   2.578   2.007  13.945 -0.2571  1.5880 -2.0339
   8823SM   H6G11832   2.444   2.088  14.027  0.0379 -0.1998 -0.1208
   8823SM   C7F11833   2.625   2.098  14.140 -0.0561  0.2005 -1.4015
   8823SM   H7F11834   2.593   2.183  14.204  2.9034 -1.5506  2.8301
   8823SM   H7G11835   2.732   2.094  14.113  0.3678 -1.0462  0.3362
   8823SM   C8F11836   2.580   1.974  14.225 -0.3832  0.3322 -0.3307
   8823SM   H8F11837   2.611   1.882  14.172  3.6235  1.1086  0.2969
   8823SM   H8G11838   2.471   1.991  14.235 -0.3188  1.7354 -1.6117
   8823SM   C9F11839   2.642   1.947  14.364  0.0141  0.2103 -0.0526
   8823SM   H9F11840   2.751   1.927  14.353 -0.3091 -1.9374  0.1794
   8823SM   H9G11841   2.597   1.850  14.393 -0.6435  0.2405 -0.9355
   8823SM  C10F11842   2.608   2.060  14.469  0.4664 -0.0191  0.2738
   8823SM  H10F11843   2.498   2.058  14.484  0.3130 -0.4058 -0.8383
   8823SM  H10G11844   2.640   2.159  14.429  0.5275 -0.3691 -0.5691
   8823SM  C11F11845   2.671   2.039  14.606  0.3114 -0.7806 -0.5281
   8823SM  H11F11846   2.776   2.006  14.591  0.2048 -1.5828  0.3856
   8823SM  H11G11847   2.615   1.956  14.655  0.6603 -0.3055  0.7145
   8823SM  C12F11848   2.671   2.162  14.700  0.1226 -0.1070  0.4779
   8823SM  H12F11849   2.569   2.192  14.733 -0.1636  1.0260 -1.3296
   8823SM  H12G11850   2.706   2.242  14.632 -0.0016 -0.2598  0.2344
   8823SM  C13F11851   2.772   2.154  14.815  0.2189 -0.6504 -0.3782
   8823SM  H13F11852   2.784   2.259  14.850  0.2248 -0.9547  0.5426
   8823SM  H13G11853   2.869   2.119  14.773 -1.0374 -4.4904 -0.4367
   8823SM  C14F11854   2.724   2.074  14.937 -0.9077 -0.6669  1.4571
   8823SM  H14F11855   2.806   1.998  14.936 -0.0592  0.2123  2.4595
   8823SM  H14G11856   2.625   2.034  14.907 -2.5837  3.5116  0.8599
   8823SM  C15F11857   2.726   2.158  15.065  0.6696 -0.5438  0.6275
   8823SM  H15F11858   2.641   2.229  15.061  2.2315  1.7431  3.8670
   8823SM  H15G11859   2.821   2.213  15.077  1.3262 -1.4968 -0.0110
   8823SM  C16F11860   2.714   2.069  15.191 -0.2591  0.2362 -0.1680
   8823SM  H16F11861   2.797   1.996  15.200 -0.5466  0.0895  1.6343
   8823SM  H16G11862   2.620   2.013  15.176 -0.5880  0.6766  0.2085
   8823SM  C17F11863   2.679   2.144  15.323 -0.3935 -0.0821 -0.0553
   8823SM  H17F11864   2.601   2.221  15.304 -0.4616 -0.0145  0.4724
   8823SM  H17G11865   2.774   2.189  15.360 -1.0849  0.2610  1.3767
   8823SM  C18F11866   2.644   2.044  15.440 -0.0711 -0.0038 -0.1789
   8823SM  H18F11867   2.743   2.007  15.472 -0.5109  1.3780  3.1316
   8823SM  H18G11868   2.588   1.953  15.408  0.4548 -0.3692 -0.0700
   8823SM  C19F11869   2.566   2.104  15.562  0.2019  0.3221 -0.6225
   8823SM  H19F11870   2.460   2.125  15.536 -0.3404 -1.2673  0.1508
   8823SM  H19G11871   2.623   2.199  15.572  0.4008  0.0353  1.5072
   8823SM  C20F11872   2.580   2.025  15.698  0.2448  0.2409  0.4545
   8823SM  H20F11873   2.669   1.958  15.696  0.3589  0.3862  0.5941
   8823SM  H20G11874   2.492   1.957  15.706  1.6374 -1.4808  1.9855
   8823SM  C21F11875   2.581   2.103  15.824  0.1565 -0.1955  0.0997
   8823SM  H21F11876   2.492   2.170  15.817  1.4500  1.4286 -2.3964
   8823SM  H21G11877   2.668   2.172  15.815  1.7506 -1.7595  2.4814
   8823SM  C22F11878   2.582   2.013  15.947 -0.1266  0.0723 -0.6222
   8823SM  H22F11879   2.658   1.933  15.933 -0.8194 -0.4166 -1.7236
   8823SM  H22G11880   2.488   1.955  15.954 -1.1074  1.7401  1.6629
   8823SM  C23F11881   2.590   2.090  16.079  0.3744 -0.2636 -0.1083
   8823SM  H23F11882   2.614   2.028  16.168  0.6616 -0.1592 -0.1110
   8823SM  H23G11883   2.497   2.150  16.089  1.0172  1.1929 -2.2014
   8823SM  H23H11884   2.662   2.173  16.058 -0.9377  0.5001 -1.8288
   8923SM     N11885   5.644   2.849  12.386 -0.3131  0.5759 -0.3642
   8923SM   C1511886   5.731   2.931  12.293  0.6496 -0.2706  0.0302
   8923SM  H15A11887   5.829   2.887  12.286  0.6312 -0.3390  0.1948
   8923SM  H15B11888   5.745   3.035  12.319 -1.4666  0.1576 -0.3757
   8923SM  H15C11889   5.697   2.925  12.191 -0.6441  0.8488  0.3558
   8923SM   C1411890   5.513   2.917  12.385  0.2529 -0.2390  0.7065
   8923SM  H14A11891   5.523   3.020  12.415 -0.0662  0.3218 -1.0423
   8923SM  H14B11892   5.447   2.870  12.457  0.1473 -0.1125  0.6931
   8923SM  H14C11893   5.464   2.919  12.289 -1.4325 -0.6560  1.5017
   8923SM   C1311894   5.625   2.709  12.332  0.3702  0.2200  0.4961
   8923SM  H13A11895   5.561   2.707  12.245 -1.4664 -0.2918  1.8021
   8923SM  H13B11896   5.582   2.646  12.409 -1.8381  2.1813  0.9799
   8923SM  H13C11897   5.721   2.666  12.306 -0.1139  1.1730 -3.3766
   8923SM   C1211898   5.710   2.849  12.527 -0.2738 -0.7126  0.5064
   8923SM  H12A11899   5.711   2.950  12.565 -0.9341 -1.7244  3.4799
   8923SM  H12B11900   5.811   2.817  12.508  0.7000  2.5844 -0.6219
   8923SM   C1111901   5.654   2.753  12.631 -0.4584  0.8869  0.1376
   8923SM  H11A11902   5.548   2.781  12.644 -0.4234  1.2162 -0.2544
   8923SM  H11B11903   5.696   2.782  12.730  1.9499 -1.3757 -0.1128
   8923SM     P11904   5.791   2.532  12.662 -0.0531 -0.4019  0.1438
   8923SM   O1311905   5.741   2.394  12.662 -0.1400 -0.0612 -0.1703
   8923SM   O1411906   5.919   2.553  12.590 -0.6579  0.0899  0.5413
   8923SM   O1111907   5.803   2.580  12.813  0.6521  0.1944  0.3747
   8923SM   O1211908   5.679   2.622  12.595 -0.0257 -0.1540 -1.0712
   8923SM   C1S11909   5.929   2.616  12.864 -0.6528  0.1773 -0.7832
   8923SM   H1S11910   5.946   2.716  12.820 -0.8748 -0.5741 -2.6780
   8923SM   H1T11911   6.014   2.554  12.826  1.6998  1.5545  1.8731
   8923SM    NF11912   6.052   2.692  13.070 -0.3654  0.3501  0.3904
   8923SM   HNF11913   6.110   2.629  13.120 -1.4222 -1.0725 -0.1182
   8923SM   C2S11914   5.930   2.625  13.018 -1.0393 -1.0559 -0.4549
   8923SM   H2S11915   5.857   2.704  13.047  0.2269  0.0260 -0.1349
   8923SM   C3S11916   5.893   2.487  13.078  0.3781  0.4339  0.0459
   8923SM   H3S11917   5.980   2.418  13.071 -0.4378 -0.5683 -0.5730
   8923SM    O311918   5.786   2.412  13.020  0.5788 -0.3421  0.5572
   8923SM   HO311919   5.744   2.477  12.963  1.2798 -0.7128 -0.4149
   8923SM   C4S11920   5.864   2.501  13.223  0.0571 -0.2073 -0.5421
   8923SM   H4S11921   5.779   2.565  13.250  0.0915 -0.2440 -0.3470
   8923SM   C5S11922   5.931   2.441  13.319  0.1212 -0.2294 -0.8775
   8923SM   H5S11923   6.012   2.369  13.299  1.4785  0.1395  2.6402
   8923SM   C6S11924   5.912   2.461  13.468  0.2231  0.0773  0.0782
   8923SM   H6S11925   6.006   2.504  13.508  0.7705 -1.2924  0.3270
   8923SM   H6T11926   5.893   2.357  13.502  2.2638 -0.5777 -0.5978
   8923SM   C7S11927   5.795   2.553  13.522 -0.3180 -0.3773  0.5839
   8923SM   H7S11928   5.796   2.644  13.459  1.8450 -1.9752 -1.9058
   8923SM   H7T11929   5.805   2.579  13.629 -0.9866 -1.0039  0.8087
   8923SM   C8S11930   5.660   2.494  13.502 -0.2997  0.1035 -0.1127
   8923SM   H8S11931   5.666   2.383  13.493 -0.0390  0.2244 -1.9548
   8923SM   H8T11932   5.631   2.509  13.396  1.9379  1.3162 -0.6128
   8923SM   C9S11933   5.551   2.543  13.589  0.3009 -0.5700 -0.2203
   8923SM   H9S11934   5.462   2.481  13.564 -1.1231  2.2447 -2.7356
   8923SM   H9T11935   5.518   2.646  13.564 -2.2813 -1.2359  0.0959
   8923SM  C10S11936   5.581   2.532  13.742 -0.0022 -0.8598 -0.4829
   8923SM  H10S11937   5.678   2.582  13.762  0.8197 -1.4278 -2.7920
   8923SM  H10T11938   5.599   2.425  13.769  0.0248 -0.7326  0.0290
   8923SM  C11S11939   5.471   2.589  13.830  0.4860 -0.1648 -0.6172
   8923SM  H11S11940   5.374   2.569  13.779  1.3057  0.5155 -2.5320
   8923SM  H11T11941   5.479   2.699  13.834  3.2174 -0.3091 -0.1727
   8923SM  C12S11942   5.466   2.529  13.976 -0.4521 -0.2848  0.4837
   8923SM  H12S11943   5.570   2.548  14.012 -0.8561  0.1344  1.4581
   8923SM  H12T11944   5.465   2.418  13.962 -0.4251 -0.6007  2.6368
   8923SM  C13S11945   5.363   2.591  14.076 -0.2583  1.0011  0.7857
   8923SM  H13S11946   5.379   2.698  14.101 -0.1114  1.0620  0.4285
   8923SM  H13T11947   5.369   2.540  14.175 -1.0304 -0.9967 -0.1417
   8923SM  C14S11948   5.212   2.585  14.028 -0.2889  0.6613  0.3810
   8923SM  H14S11949   5.187   2.477  14.015  0.8537  0.5065 -0.7409
   8923SM  H14T11950   5.192   2.635  13.931 -1.1022 -1.5389 -0.6701
   8923SM  C15S11951   5.119   2.654  14.124 -0.1091  0.2458 -0.3184
   8923SM  H15S11952   5.136   2.763  14.138 -1.0518  0.0978  2.9415
   8923SM  H15T11953   5.134   2.610  14.225  0.7698 -1.2223 -1.0583
   8923SM  C16S11954   4.978   2.612  14.089 -0.5165  0.3126  0.0418
   8923SM  H16S11955   4.952   2.506  14.111  0.8687 -0.9521 -3.7279
   8923SM  H16T11956   4.978   2.622  13.979 -0.7764  0.2184  0.0325
   8923SM  C17S11957   4.873   2.704  14.146  0.5450 -0.4320  0.5636
   8923SM  H17S11958   4.781   2.700  14.084  0.4756 -0.2265  0.6521
   8923SM  H17T11959   4.905   2.810  14.142 -0.4694 -0.1356  0.0403
   8923SM  C18S11960   4.835   2.681  14.296  0.3230  1.0102  1.0528
   8923SM  H18S11961   4.727   2.707  14.305 -0.3903 -1.8142  1.5355
   8923SM  H18T11962   4.901   2.750  14.352  0.0109  0.4591  2.1300
   8923SM  H18U11963   4.854   2.577  14.331  0.6433  0.7878  0.2396
   8923SM   C1F11964   6.096   2.820  13.040  0.4505 -0.2388 -0.0425
   8923SM    OF11965   6.025   2.907  12.985 -0.0242  0.3679  0.0690
   8923SM   C2F11966   6.236   2.854  13.062 -0.9106  0.5934  0.2940
   8923SM   H2F11967   6.278   2.897  12.968  2.4280 -1.7052  0.5671
   8923SM   H2G11968   6.290   2.760  13.084 -1.0689 -0.3902 -2.9256
   8923SM   C3F11969   6.255   2.946  13.181 -0.1972 -0.6388  0.4572
   8923SM   H3F11970   6.191   3.035  13.161 -0.6388 -0.6444  1.7260
   8923SM   H3G11971   6.362   2.979  13.180 -0.4918  0.5534 -2.9265
   8923SM   C4F11972   6.242   2.874  13.316  0.3191  0.0434 -0.5227
   8923SM   H4F11973   6.280   2.770  13.309  1.1728  0.3063  0.0753
   8923SM   H4G11974   6.136   2.885  13.349 -0.8463  1.1377 -4.1343
   8923SM   C5F11975   6.323   2.930  13.431  0.2811 -0.6239  0.1396
   8923SM   H5F11976   6.314   3.040  13.441  1.3043 -0.4705 -0.4428
   8923SM   H5G11977   6.429   2.906  13.406  0.8849  0.4427  1.5575
   8923SM   C6F11978   6.286   2.867  13.567  0.4429  0.0869 -0.2472
   8923SM   H6F11979   6.371   2.900  13.631  2.6434 -3.0798 -1.2874
   8923SM   H6G11980   6.291   2.756  13.566 -1.0839  0.0023 -1.3412
   8923SM   C7F11981   6.152   2.913  13.626  0.8443  0.1394 -0.4386
   8923SM   H7F11982   6.074   2.910  13.547  1.8823 -1.0392 -1.4561
   8923SM   H7G11983   6.163   3.015  13.669  0.5131  0.1065 -0.2714
   8923SM   C8F11984   6.113   2.815  13.744  0.3612  0.0221 -0.1595
   8923SM   H8F11985   6.213   2.790  13.786 -0.1485 -0.2531  0.9377
   8923SM   H8G11986   6.061   2.727  13.701 -1.9963 -0.3023  2.9650
   8923SM   C9F11987   6.030   2.892  13.847  0.0146  0.4856 -0.2941
   8923SM   H9F11988   6.067   2.996  13.855  3.3910 -0.6798  1.4927
   8923SM   H9G11989   6.057   2.844  13.944  1.1020 -1.5225 -1.5077
   8923SM  C10F11990   5.885   2.881  13.811  0.4303 -0.1773  0.2592
   8923SM  H10F11991   5.866   2.772  13.803  2.0058 -0.6351  1.9793
   8923SM  H10G11992   5.868   2.938  13.717  1.2433  0.9181  0.7599
   8923SM  C11F11993   5.777   2.920  13.910  0.3583  0.0581 -0.2145
   8923SM  H11F11994   5.678   2.913  13.862  1.3460 -0.8350 -2.2461
   8923SM  H11G11995   5.784   3.029  13.933  1.7783 -0.6494  3.5379
   8923SM  C12F11996   5.784   2.835  14.042 -0.2716  0.3720 -0.2024
   8923SM  H12F11997   5.875   2.867  14.098 -1.9155  1.6906  1.8488
   8923SM  H12G11998   5.784   2.731  14.005  0.8108  0.4194 -0.3809
   8923SM  C13F11999   5.663   2.848  14.136  0.4406 -0.5549  0.6059
   8923SM  H13F12000   5.576   2.803  14.083  0.8678 -0.0728 -0.5401
   8923SM  H13G12001   5.631   2.952  14.159  0.0923 -1.2566  3.7306
   8923SM  C14F12002   5.681   2.779  14.266 -0.2695 -0.4226 -0.7310
   8923SM  H14F12003   5.710   2.673  14.248  1.8102  0.2329 -1.5354
   8923SM  H14G12004   5.581   2.770  14.314 -0.1330 -2.2230 -0.6926
   8923SM  C15F12005   5.775   2.847  14.356 -0.0871  0.6403 -0.3542
   8923SM  H15F12006   5.743   2.951  14.380 -1.4980  0.0654  0.3274
   8923SM  H15G12007   5.872   2.857  14.303 -0.0153 -0.8939 -0.5533
   8923SM  C16F12008   5.805   2.760  14.481 -0.2122 -0.1097 -0.3569
   8923SM  H16F12009   5.912   2.769  14.509 -0.0868  0.1772 -0.9244
   8923SM  H16G12010   5.779   2.652  14.471  0.5060 -0.3089 -0.1100
   8923SM  C17F12011   5.720   2.799  14.606 -0.1687 -0.4779 -0.2574
   8923SM  H17F12012   5.762   2.895  14.643 -0.1009 -1.0704  1.2656
   8923SM  H17G12013   5.742   2.728  14.688 -1.0398  1.4472  1.7585
   8923SM  C18F12014   5.567   2.803  14.584  0.0117 -1.0668  0.2579
   8923SM  H18F12015   5.540   2.868  14.497 -0.2914  1.0822  1.8825
   8923SM  H18G12016   5.514   2.855  14.666 -1.2130 -1.4563 -0.2572
   8923SM  C19F12017   5.507   2.667  14.553  0.0833 -0.0095  0.5531
   8923SM  H19F12018   5.527   2.604  14.642  0.8914  2.3888  2.1406
   8923SM  H19G12019   5.550   2.619  14.462 -1.8155 -0.5343 -0.1370
   8923SM  C20F12020   5.348   2.677  14.538 -0.3100 -0.5322  0.4265
   8923SM  H20F12021   5.314   2.754  14.465  0.1384 -0.8150 -0.0855
   8923SM  H20G12022   5.306   2.718  14.632 -0.9819  1.0217 -0.5027
   8923SM  C21F12023   5.284   2.539  14.512 -0.3270 -0.1523 -0.0644
   8923SM  H21F12024   5.328   2.480  14.595  0.4965  1.9477  1.0465
   8923SM  H21G12025   5.306   2.504  14.408  0.5588 -1.0823  0.4115
   8923SM  C22F12026   5.134   2.551  14.532 -0.4005 -0.3345  0.0216
   8923SM  H22F12027   5.099   2.636  14.470 -2.2834 -1.3671 -0.4424
   8923SM  H22G12028   5.103   2.565  14.638  0.1766 -4.4165  0.9008
   8923SM  C23F12029   5.053   2.435  14.489  0.5615  0.6604 -0.6043
   8923SM  H23F12030   5.084   2.348  14.551  2.3186  1.0275 -0.9199
   8923SM  H23G12031   5.080   2.396  14.389  3.2151 -3.9552  1.5952
   8923SM  H23H12032   4.942   2.440  14.491  0.3100 -2.8169 -0.0167
   9023SM     N12033   6.741   2.759  12.545  0.5704  0.0088  0.0023
   9023SM   C1512034   6.690   2.863  12.448 -0.0448 -0.1131  0.8015
   9023SM  H15A12035   6.759   2.946  12.441 -1.4615  0.9848 -0.8565
   9023SM  H15B12036   6.592   2.898  12.477 -0.5317 -2.3241  2.0671
   9023SM  H15C12037   6.679   2.823  12.349  0.5482  1.6344 -0.0010
   9023SM   C1412038   6.895   2.747  12.524  0.0859  0.2174 -0.6227
   9023SM  H14A12039   6.944   2.721  12.617 -2.2944  0.0916  0.6774
   9023SM  H14B12040   6.928   2.849  12.510 -0.2683  0.5448  0.7610
   9023SM  H14C12041   6.918   2.681  12.442  3.0669  0.6657 -0.2701
   9023SM   C1312042   6.714   2.811  12.681  0.0677  0.1785  0.2127
   9023SM  H13A12043   6.759   2.743  12.752  1.7663  1.7186  0.7161
   9023SM  H13B12044   6.607   2.819  12.690 -0.2962  0.7179 -3.1476
   9023SM  H13C12045   6.761   2.905  12.706  0.3937  0.1966 -0.4371
   9023SM   C1212046   6.669   2.632  12.516  0.4328  0.7206 -0.3774
   9023SM  H12A12047   6.686   2.592  12.417  0.3155  0.8831 -0.4634
   9023SM  H12B12048   6.562   2.643  12.528  0.2931  0.0453 -0.9292
   9023SM   C1112049   6.704   2.517  12.613 -0.4272 -0.0011 -0.1895
   9023SM  H11A12050   6.703   2.538  12.722  0.9061 -0.1000 -0.1397
   9023SM  H11B12051   6.808   2.479  12.602 -0.2277  0.4210  0.2570
   9023SM     P12052   6.462   2.406  12.616 -0.0241  0.2514 -0.0998
   9023SM   O1312053   6.388   2.511  12.544  0.6120  0.0573  0.1045
   9023SM   O1412054   6.421   2.270  12.598 -0.2104  0.1052  0.0427
   9023SM   O1112055   6.474   2.432  12.769  0.1450  0.2294  0.3220
   9023SM   O1212056   6.614   2.412  12.577 -0.7699 -0.4103  0.0229
   9023SM   C1S12057   6.541   2.334  12.851 -0.5113  0.4354 -0.2301
   9023SM   H1S12058   6.650   2.328  12.830 -0.8825 -0.3102 -2.2386
   9023SM   H1T12059   6.493   2.236  12.829  1.2539 -0.2829 -1.0363
   9023SM    NF12060   6.570   2.251  13.092  0.5340  0.3296 -0.3187
   9023SM   HNF12061   6.515   2.179  13.133  0.5008  0.8374  0.5574
   9023SM   C2S12062   6.520   2.363  13.007  1.3341 -0.5369  0.1231
   9023SM   H2S12063   6.575   2.458  13.024 -0.3774  0.5431 -0.2045
   9023SM   C3S12064   6.369   2.397  13.038 -0.2850 -0.3668 -0.9311
   9023SM   H3S12065   6.323   2.296  13.046  0.9723 -0.8569  0.4241
   9023SM    O312066   6.289   2.475  12.948 -0.1447  0.4104  0.4351
   9023SM   HO312067   6.340   2.475  12.867 -2.2708 -0.2317 -0.9782
   9023SM   C4S12068   6.357   2.478  13.166 -0.4091  0.8315 -0.7425
   9023SM   H4S12069   6.405   2.577  13.157 -1.7777  1.6534  0.5602
   9023SM   C5S12070   6.322   2.436  13.289  0.1474  0.1469  0.0585
   9023SM   H5S12071   6.270   2.340  13.300 -2.1101  1.1234 -1.4829
   9023SM   C6S12072   6.326   2.517  13.416  0.2319  0.2481 -0.2034
   9023SM   H6S12073   6.224   2.536  13.453  0.5375 -0.3181  0.9764
   9023SM   H6T12074   6.371   2.618  13.409 -1.2700  0.9240 -0.3633
   9023SM   C7S12075   6.413   2.436  13.520  0.9749 -0.6833  0.5009
   9023SM   H7S12076   6.508   2.403  13.472  0.6715 -0.3870 -0.3204
   9023SM   H7T12077   6.357   2.348  13.556  0.8206 -0.6412  0.3636
   9023SM   C8S12078   6.440   2.542  13.625  0.1931 -0.3505 -0.7734
   9023SM   H8S12079   6.352   2.597  13.666  0.2241  0.3059 -1.5556
   9023SM   H8T12080   6.511   2.612  13.575  0.7758  0.5575  1.2366
   9023SM   C9S12081   6.527   2.498  13.742  0.2371  0.2882 -0.4360
   9023SM   H9S12082   6.530   2.585  13.810 -3.6981 -0.6207  1.2018
   9023SM   H9T12083   6.633   2.472  13.722 -0.4618 -1.2680 -2.5197
   9023SM  C10S12084   6.471   2.383  13.825  0.2381  0.0298 -0.5888
   9023SM  H10S12085   6.495   2.283  13.783  0.1375 -0.8379  1.3147
   9023SM  H10T12086   6.361   2.389  13.814  0.0732 -0.4730  0.6710
   9023SM  C11S12087   6.501   2.398  13.971 -0.0417 -0.2967 -1.0626
   9023SM  H11S12088   6.443   2.483  14.012  1.4717  0.9196 -1.3516
   9023SM  H11T12089   6.612   2.403  13.981 -0.1996  0.1748  0.5874
   9023SM  C12S12090   6.451   2.283  14.058  0.1547  0.5711 -0.1883
   9023SM  H12S12091   6.490   2.191  14.010  0.4704  1.1165 -0.9898
   9023SM  H12T12092   6.340   2.277  14.058  0.0940  0.7506  2.2809
   9023SM  C13S12093   6.484   2.297  14.207 -0.4575  0.2141  0.3319
   9023SM  H13S12094   6.456   2.398  14.245  0.7994  0.1392  1.5455
   9023SM  H13T12095   6.593   2.280  14.226 -0.5811  0.8788  1.8050
   9023SM  C14S12096   6.417   2.190  14.288  0.0665 -0.6321  0.0427
   9023SM  H14S12097   6.460   2.094  14.255  0.2075 -1.8576  3.3614
   9023SM  H14T12098   6.307   2.178  14.271 -0.6571  1.4963  2.5050
   9023SM  C15S12099   6.431   2.207  14.442  0.3522  0.4076  0.7362
   9023SM  H15S12100   6.384   2.307  14.457  0.8763  0.7337  0.2035
   9023SM  H15T12101   6.540   2.207  14.462  0.6978  1.8420 -0.9035
   9023SM  C16S12102   6.364   2.096  14.522 -0.1036  0.6250  0.2490
   9023SM  H16S12103   6.376   2.121  14.629 -0.1716  0.8414  0.2068
   9023SM  H16T12104   6.414   1.999  14.502  0.1824  1.0123 -0.9910
   9023SM  C17S12105   6.218   2.093  14.510 -0.0937  0.6260 -0.1655
   9023SM  H17S12106   6.188   2.047  14.413 -1.0165 -2.9022  1.6223
   9023SM  H17T12107   6.183   2.197  14.498  0.3166  0.9888  1.6119
   9023SM  C18S12108   6.141   2.027  14.621 -0.1388  0.0341 -0.4661
   9023SM  H18S12109   6.034   2.054  14.603 -0.4646 -0.7083  0.3076
   9023SM  H18T12110   6.177   2.069  14.718 -0.0856 -0.6913 -0.1683
   9023SM  H18U12111   6.149   1.917  14.619 -2.6339 -0.2635  0.8115
   9023SM   C1F12112   6.697   2.237  13.123  0.2030 -0.4313  0.0861
   9023SM    OF12113   6.790   2.312  13.082  0.5711  0.0842 -0.0073
   9023SM   C2F12114   6.722   2.121  13.216  0.7265  0.2629  0.0300
   9023SM   H2F12115   6.829   2.090  13.217 -0.2820 -3.8217  1.3608
   9023SM   H2G12116   6.668   2.030  13.181  0.3774  0.5006 -0.0551
   9023SM   C3F12117   6.687   2.156  13.356  0.2692  0.1429  0.6270
   9023SM   H3F12118   6.600   2.224  13.367 -0.2176 -0.3837  0.1424
   9023SM   H3G12119   6.776   2.205  13.400 -1.4210  2.3638  1.7784
   9023SM   C4F12120   6.654   2.026  13.428 -0.8935 -0.2518 -0.8875
   9023SM   H4F12121   6.708   1.944  13.375 -2.5593 -1.7771 -0.3002
   9023SM   H4G12122   6.551   1.986  13.417  0.2196 -3.3632 -1.1879
   9023SM   C5F12123   6.695   2.053  13.581  0.5338  0.4610  0.5057
   9023SM   H5F12124   6.643   2.148  13.605  0.1494  0.9486 -1.9726
   9023SM   H5G12125   6.804   2.076  13.581  0.9188 -1.2266  1.0184
   9023SM   C6F12126   6.676   1.947  13.690  0.3001  0.3575 -0.0882
   9023SM   H6F12127   6.755   1.871  13.668  1.2980  2.2305 -3.8110
   9023SM   H6G12128   6.571   1.912  13.690 -0.2432  1.8973 -0.9613
   9023SM   C7F12129   6.704   2.012  13.828  0.5665  0.3082  0.3574
   9023SM   H7F12130   6.626   2.091  13.836 -0.0926  0.2303 -3.4184
   9023SM   H7G12131   6.792   2.079  13.828  1.4873 -0.8627  0.8915
   9023SM   C8F12132   6.696   1.914  13.944 -0.2708 -0.1390 -0.1812
   9023SM   H8F12133   6.768   1.832  13.922  0.2770 -0.0041  1.0255
   9023SM   H8G12134   6.595   1.867  13.954 -0.6052  0.6319  0.1197
   9023SM   C9F12135   6.724   1.980  14.085 -0.1883  0.6868  0.0965
   9023SM   H9F12136   6.644   2.056  14.098 -0.2435  0.6672 -0.1308
   9023SM   H9G12137   6.824   2.028  14.074  0.3765  0.0626  2.0691
   9023SM  C10F12138   6.724   1.879  14.202  0.6759  0.2966  0.6140
   9023SM  H10F12139   6.805   1.803  14.195 -0.6203 -0.9796 -1.4280
   9023SM  H10G12140   6.632   1.817  14.198  0.7338  0.1875  0.9017
   9023SM  C11F12141   6.739   1.950  14.338 -0.0230 -0.2382  0.4680
   9023SM  H11F12142   6.666   2.033  14.346  0.7419  0.7033 -1.6530
   9023SM  H11G12143   6.836   2.000  14.360 -0.4646 -0.0425  2.1154
   9023SM  C12F12144   6.729   1.850  14.452 -0.9842  0.0957  0.3706
   9023SM  H12F12145   6.813   1.777  14.440  0.7739  1.5614  2.8863
   9023SM  H12G12146   6.630   1.802  14.444 -1.2357  0.7745 -0.8243
   9023SM  C13F12147   6.736   1.924  14.588  0.3660 -0.1377 -0.0844
   9023SM  H13F12148   6.639   1.966  14.623  1.0124 -0.0991  1.7595
   9023SM  H13G12149   6.809   2.007  14.583  0.5362 -0.0817  2.2195
   9023SM  C14F12150   6.771   1.822  14.704 -0.1216  0.4528 -0.0963
   9023SM  H14F12151   6.870   1.788  14.669  0.1622 -0.0504  1.1300
   9023SM  H14G12152   6.702   1.735  14.704 -0.5859  0.8119 -0.8929
   9023SM  C15F12153   6.771   1.881  14.848  0.0936 -0.1247  0.3586
   9023SM  H15F12154   6.773   1.992  14.838 -1.7605 -0.0726  0.0785
   9023SM  H15G12155   6.867   1.852  14.895 -0.5598 -1.2678  1.0236
   9023SM  C16F12156   6.641   1.848  14.925 -0.4380 -0.1709 -0.3115
   9023SM  H16F12157   6.625   1.738  14.934 -0.6573 -0.0306  1.4960
   9023SM  H16G12158   6.554   1.904  14.887  0.8467  1.6878 -0.6381
   9023SM  C17F12159   6.657   1.892  15.076 -0.3265 -0.2218  0.3103
   9023SM  H17F12160   6.678   2.001  15.083 -1.1535 -0.0027 -0.4821
   9023SM  H17G12161   6.749   1.848  15.122  0.6356  1.1911 -0.1974
   9023SM  C18F12162   6.536   1.857  15.164 -0.0672 -0.2347 -0.0737
   9023SM  H18F12163   6.524   1.747  15.173 -0.5429 -0.0830  1.2831
   9023SM  H18G12164   6.441   1.895  15.119 -0.2080 -0.7573 -0.2356
   9023SM  C19F12165   6.547   1.910  15.304 -0.6925 -0.5720 -0.2263
   9023SM  H19F12166   6.565   2.020  15.303 -0.4961 -0.4736  3.0287
   9023SM  H19G12167   6.630   1.862  15.360  0.0010  2.1265  1.2493
   9023SM  C20F12168   6.421   1.890  15.382  0.3651  0.2024 -0.0588
   9023SM  H20F12169   6.397   1.783  15.399 -0.5603  0.3313 -0.4837
   9023SM  H20G12170   6.329   1.935  15.339  0.4242  2.9014  2.2910
   9023SM  C21F12171   6.434   1.962  15.518 -0.3939  0.5154 -0.3040
   9023SM  H21F12172   6.471   2.066  15.503  0.1940  0.3042 -0.3662
   9023SM  H21G12173   6.514   1.912  15.577 -0.0252  0.4620 -0.8373
   9023SM  C22F12174   6.313   1.974  15.599 -0.1469  0.1406 -0.2294
   9023SM  H22F12175   6.276   1.871  15.623  1.1826 -0.5495 -1.0192
   9023SM  H22G12176   6.231   2.031  15.549 -0.4652  0.2050  0.3568
   9023SM  C23F12177   6.345   2.047  15.728  0.3496  0.1172  0.3286
   9023SM  H23F12178   6.406   1.980  15.793 -1.8790 -0.6433  1.7686
   9023SM  H23G12179   6.251   2.050  15.789 -1.4594 -2.6479 -2.0430
   9023SM  H23H12180   6.391   2.145  15.707 -0.5087 -0.0641 -2.8591
   9123SM     N12181   1.067   3.490  12.594 -0.2695 -0.2538 -0.1118
   9123SM   C1512182   1.219   3.482  12.589  0.3521 -0.0234  0.7062
   9123SM  H15A12183   1.257   3.426  12.505  1.1584  0.5690  0.6555
   9123SM  H15B12184   1.256   3.458  12.688 -0.0097  0.4719  0.9647
   9123SM  H15C12185   1.250   3.581  12.561  1.2745 -1.0242 -2.1725
   9123SM   C1412186   1.029   3.599  12.682 -0.2494 -0.8487 -0.5023
   9123SM  H14A12187   1.074   3.583  12.779  1.6796  0.8258 -1.0420
   9123SM  H14B12188   0.921   3.605  12.686 -0.4244 -3.0220 -0.9091
   9123SM  H14C12189   1.067   3.694  12.646  2.4907 -1.3128  0.8773
   9123SM   C1312190   1.004   3.520  12.455 -0.9162 -0.1468 -0.0080
   9123SM  H13A12191   1.020   3.623  12.426 -2.4910  0.8408  2.2930
   9123SM  H13B12192   0.897   3.506  12.459 -1.4680  2.9934 -1.0516
   9123SM  H13C12193   1.047   3.451  12.385 -0.9456 -0.0682 -0.1036
   9123SM   C1212194   1.011   3.354  12.638 -0.1401 -0.0382  0.2801
   9123SM  H12A12195   1.029   3.284  12.558 -0.5607 -0.7131  0.7708
   9123SM  H12B12196   0.904   3.355  12.646 -0.3057 -1.6387 -1.2277
   9123SM   C1112197   1.056   3.303  12.771 -0.6776  0.3489 -0.0148
   9123SM  H11A12198   1.166   3.296  12.781 -0.7193 -0.0232  0.2070
   9123SM  H11B12199   1.012   3.202  12.760  1.3967 -0.3922 -2.5286
   9123SM     P12200   0.890   3.313  12.968  0.5540 -0.0479  0.2843
   9123SM   O1312201   0.764   3.294  12.890 -0.3816 -0.4365 -0.4131
   9123SM   O1412202   0.951   3.190  13.019 -0.4013 -0.1665 -0.0137
   9123SM   O1112203   0.868   3.411  13.092 -0.3378 -0.1251 -0.0105
   9123SM   O1212204   1.001   3.387  12.879  0.3209  0.2788 -0.7907
   9123SM   C1S12205   0.967   3.484  13.162  0.2969 -0.3467 -0.0892
   9123SM   H1S12206   1.022   3.546  13.089  0.1607 -0.8382 -0.6232
   9123SM   H1T12207   1.032   3.412  13.216  1.1230  1.1812  1.0040
   9123SM    NF12208   0.999   3.656  13.340 -0.0784 -0.5993 -0.4541
   9123SM   HNF12209   1.032   3.629  13.430  3.4932  0.4662 -1.2960
   9123SM   C2S12210   0.902   3.573  13.277 -0.2469 -0.0782 -0.2418
   9123SM   H2S12211   0.827   3.639  13.227  0.7157  0.5924 -0.8220
   9123SM   C3S12212   0.828   3.485  13.387  0.0421  0.8821  0.0616
   9123SM   H3S12213   0.901   3.422  13.442 -0.9869 -1.3390 -0.9657
   9123SM    O312214   0.743   3.374  13.352  0.1672 -0.0410  0.2749
   9123SM   HO312215   0.762   3.359  13.260  3.4712 -2.8388  1.1883
   9123SM   C4S12216   0.766   3.581  13.492  0.2836  0.6010  0.2510
   9123SM   H4S12217   0.836   3.600  13.575 -1.1043 -0.5057  1.7353
   9123SM   C5S12218   0.637   3.626  13.488  0.3472 -0.2261 -0.4040
   9123SM   H5S12219   0.572   3.608  13.402 -0.3961  0.2760  0.0374
   9123SM   C6S12220   0.578   3.720  13.591  0.4346  0.4814 -0.1353
   9123SM   H6S12221   0.488   3.672  13.636 -1.5221  1.3872 -2.8625
   9123SM   H6T12222   0.554   3.810  13.531 -1.1799  0.5523  0.5584
   9123SM   C7S12223   0.682   3.758  13.703  0.0062 -0.7371  0.5067
   9123SM   H7S12224   0.628   3.837  13.760  1.1439 -1.4796  2.7184
   9123SM   H7T12225   0.770   3.812  13.662 -0.3236 -0.7118 -0.1826
   9123SM   C8S12226   0.712   3.647  13.807  0.2256 -0.2961 -0.1609
   9123SM   H8S12227   0.736   3.549  13.762 -0.4563 -0.1074 -0.9693
   9123SM   H8T12228   0.631   3.625  13.879 -0.6741  1.7615 -0.4682
   9123SM   C9S12229   0.842   3.681  13.888  0.1890  0.1660  0.2535
   9123SM   H9S12230   0.821   3.780  13.933 -1.2453 -1.1653  2.6900
   9123SM   H9T12231   0.924   3.686  13.813  0.1472  0.1787  0.2084
   9123SM  C10S12232   0.877   3.593  14.011  0.4061 -0.1043 -0.6246
   9123SM  H10S12233   0.793   3.562  14.076  2.4128 -1.6950  1.3270
   9123SM  H10T12234   0.942   3.659  14.072  0.3126  1.1568 -1.8340
   9123SM  C11S12235   0.957   3.468  13.972  0.7361 -0.0221  0.4641
   9123SM  H11S12236   1.052   3.501  13.925  0.5522 -0.1024  0.0265
   9123SM  H11T12237   0.911   3.414  13.887  1.0983 -0.3163  0.4542
   9123SM  C12S12238   0.992   3.361  14.083 -0.0000  0.2662  0.2054
   9123SM  H12S12239   1.016   3.420  14.174 -0.3727  2.4156 -1.0242
   9123SM  H12T12240   1.084   3.307  14.052 -0.8126 -1.5332  0.8218
   9123SM  C13S12241   0.880   3.264  14.111  0.5024  0.9654  0.3751
   9123SM  H13S12242   0.871   3.193  14.027 -1.1964  0.0224  1.3094
   9123SM  H13T12243   0.785   3.319  14.127  0.9614  1.8565  0.1110
   9123SM  C14S12244   0.907   3.176  14.232  0.7079 -0.3802 -0.5639
   9123SM  H14S12245   0.959   3.235  14.310  0.0432 -1.0916  0.4355
   9123SM  H14T12246   0.980   3.095  14.207  1.1211 -0.5634  1.1487
   9123SM  C15S12247   0.766   3.128  14.283  0.5262 -0.1293  0.3796
   9123SM  H15S12248   0.692   3.211  14.281  0.3280 -0.2282 -3.1023
   9123SM  H15T12249   0.778   3.096  14.389 -1.7890 -0.9862  0.4407
   9123SM  C16S12250   0.710   3.022  14.184 -0.2763 -0.3503  0.0905
   9123SM  H16S12251   0.752   2.922  14.210  2.1326  0.5934  0.0633
   9123SM  H16T12252   0.745   3.035  14.079 -0.3569 -0.7881  0.0039
   9123SM  C17S12253   0.555   3.007  14.198  0.3295 -0.3899 -0.2068
   9123SM  H17S12254   0.527   2.940  14.113 -0.0006  0.6859 -0.9634
   9123SM  H17T12255   0.502   3.097  14.163  1.9629  0.1366 -1.5014
   9123SM  C18S12256   0.502   2.935  14.323 -0.0486  0.6382 -0.2492
   9123SM  H18S12257   0.535   3.003  14.405  0.0296  2.0114 -1.3787
   9123SM  H18T12258   0.556   2.839  14.332  1.3275  1.5147  1.5846
   9123SM  H18U12259   0.392   2.916  14.316  0.1807 -0.3800 -1.1918
   9123SM   C1F12260   1.058   3.759  13.273 -0.5840  0.7851  0.1385
   9123SM    OF12261   1.031   3.777  13.154 -0.0285 -0.0484  0.0162
   9123SM   C2F12262   1.136   3.860  13.351  0.2275 -0.5520 -0.2673
   9123SM   H2F12263   1.113   3.965  13.324 -1.9161 -0.2178  2.4685
   9123SM   H2G12264   1.244   3.841  13.333  0.3046 -0.2527 -0.1277
   9123SM   C3F12265   1.121   3.847  13.507 -0.0363  0.0739 -0.2468
   9123SM   H3F12266   1.175   3.756  13.538  1.1820  0.6511 -0.6322
   9123SM   H3G12267   1.013   3.840  13.531  0.1886  0.5133  0.9465
   9123SM   C4F12268   1.182   3.961  13.587  0.1049  0.0707  0.6048
   9123SM   H4F12269   1.281   3.987  13.546  0.1862 -0.5771  0.3758
   9123SM   H4G12270   1.199   3.921  13.689  1.6094  1.0325  0.7585
   9123SM   C5F12271   1.106   4.093  13.591  0.3733 -0.1166 -0.1825
   9123SM   H5F12272   0.998   4.069  13.594 -0.2686  1.7329 -3.4762
   9123SM   H5G12273   1.127   4.144  13.495 -0.8716  0.2311 -0.2907
   9123SM   C6F12274   1.147   4.184  13.702 -0.6024  0.6106 -0.1907
   9123SM   H6F12275   1.255   4.212  13.701 -1.0373  2.4031 -0.2064
   9123SM   H6G12276   1.132   4.125  13.795  0.7728 -0.7818 -0.8084
   9123SM   C7F12277   1.059   4.304  13.690  0.1091 -0.1586 -0.3119
   9123SM   H7F12278   0.962   4.268  13.650  0.4295 -0.4859 -0.8032
   9123SM   H7G12279   1.099   4.379  13.619  4.3372 -0.8058  1.0934
   9123SM   C8F12280   1.035   4.378  13.825 -0.3624  0.2445  0.5724
   9123SM   H8F12281   0.953   4.324  13.877 -0.9532  1.0186  0.4685
   9123SM   H8G12282   0.998   4.480  13.800  0.4309 -0.0925 -2.3628
   9123SM   C9F12283   1.149   4.391  13.922 -0.0192 -0.7444  0.6865
   9123SM   H9F12284   1.239   4.432  13.872  0.5264 -1.4824  1.0327
   9123SM   H9G12285   1.165   4.292  13.970  2.4636 -0.6045  0.2949
   9123SM  C10F12286   1.111   4.496  14.030 -0.0435  0.3316  0.7929
   9123SM  H10F12287   1.018   4.458  14.078 -0.8794  2.3058  0.8414
   9123SM  H10G12288   1.088   4.599  13.995 -0.5203 -0.8673 -2.8666
   9123SM  C11F12289   1.216   4.502  14.144  0.2404  0.4761  0.1237
   9123SM  H11F12290   1.305   4.557  14.108  0.8718 -0.0510  0.8551
   9123SM  H11G12291   1.244   4.398  14.171 -1.6079  0.1723  1.0807
   9123SM  C12F12292   1.164   4.583  14.269  0.2283 -1.0839  0.6860
   9123SM  H12F12293   1.055   4.565  14.278 -0.0296  0.0029 -0.0369
   9123SM  H12G12294   1.172   4.691  14.248 -0.0924 -1.3282 -0.8104
   9123SM  C13F12295   1.247   4.561  14.391  0.1291  1.0745  0.1116
   9123SM  H13F12296   1.256   4.452  14.410 -1.4017  0.3284 -2.8983
   9123SM  H13G12297   1.189   4.595  14.480 -1.7745 -1.4114 -0.0873
   9123SM  C14F12298   1.392   4.621  14.402  0.6524  0.0847  0.6558
   9123SM  H14F12299   1.387   4.732  14.399 -0.3690  0.0351  0.1127
   9123SM  H14G12300   1.460   4.595  14.319  2.2618 -4.5477  3.0769
   9123SM  C15F12301   1.473   4.565  14.520  0.2079 -0.3837 -0.4615
   9123SM  H15F12302   1.424   4.581  14.618 -1.0245 -0.4575 -1.0363
   9123SM  H15G12303   1.566   4.619  14.547 -1.7834  1.6683  2.9321
   9123SM  C16F12304   1.513   4.420  14.508  0.2855  0.0086 -0.2978
   9123SM  H16F12305   1.427   4.366  14.463  0.3213 -0.1364 -0.1954
   9123SM  H16G12306   1.529   4.378  14.610  1.0056  3.9288  1.3860
   9123SM  C17F12307   1.629   4.391  14.414  0.3160 -0.0045 -0.1888
   9123SM  H17F12308   1.725   4.402  14.468  0.0438  1.2830  0.0654
   9123SM  H17G12309   1.639   4.471  14.337  1.2975  1.5137  1.4607
   9123SM  C18F12310   1.611   4.260  14.333 -0.0726 -0.2294  1.1598
   9123SM  H18F12311   1.697   4.258  14.263  1.3511 -1.8466  2.8301
   9123SM  H18G12312   1.520   4.263  14.270 -0.1190  2.1310  1.2674
   9123SM  C19F12313   1.608   4.131  14.413 -0.3494 -0.7330 -0.0914
   9123SM  H19F12314   1.516   4.125  14.475  0.0043 -0.2195  0.5076
   9123SM  H19G12315   1.689   4.136  14.490 -2.0249  1.0464  1.6720
   9123SM  C20F12316   1.633   4.011  14.322 -0.2083  0.0500  0.1655
   9123SM  H20F12317   1.737   4.004  14.284 -0.8295  0.8343 -1.8223
   9123SM  H20G12318   1.569   4.001  14.232  1.1400  1.0940 -0.9565
   9123SM  C21F12319   1.621   3.876  14.396 -0.2637  0.5509 -0.0818
   9123SM  H21F12320   1.517   3.861  14.433  0.1823  0.6988  1.2579
   9123SM  H21G12321   1.686   3.875  14.485  0.6400 -0.0026 -0.7288
   9123SM  C22F12322   1.670   3.748  14.321 -0.0995 -0.0554 -0.7505
   9123SM  H22F12323   1.774   3.760  14.285  0.9902 -1.3103  1.7610
   9123SM  H22G12324   1.614   3.739  14.225 -0.0545  0.7091 -0.8565
   9123SM  C23F12325   1.650   3.619  14.404 -0.1831 -0.0365  0.2231
   9123SM  H23F12326   1.715   3.620  14.495 -0.4077  0.3963  0.3823
   9123SM  H23G12327   1.666   3.532  14.337  0.9642  0.2122  0.1538
   9123SM  H23H12328   1.546   3.610  14.441 -1.0858 -2.2720 -2.4980
   9223SM     N12329   6.102   2.187  12.747 -0.2545  0.2794  0.2962
   9223SM   C1512330   5.996   2.080  12.726  0.4352  0.4424 -0.0779
   9223SM  H15A12331   6.018   2.007  12.802  2.4430  0.6929 -0.3619
   9223SM  H15B12332   5.993   2.042  12.624 -3.5981 -0.6944  0.2743
   9223SM  H15C12333   5.896   2.120  12.737  0.5278  0.5883  0.2333
   9223SM   C1412334   6.095   2.276  12.620 -0.1937  0.1845 -0.8735
   9223SM  H14A12335   6.092   2.213  12.532 -1.1611 -0.4647 -0.3994
   9223SM  H14B12336   6.178   2.345  12.620  0.6674 -0.7338  1.5362
   9223SM  H14C12337   6.000   2.326  12.626 -0.5166 -0.5634  0.6663
   9223SM   C1312338   6.060   2.270  12.867 -0.7915  0.0744  0.4071
   9223SM  H13A12339   6.029   2.208  12.950 -2.2134 -0.5693 -0.5804
   9223SM  H13B12340   5.975   2.324  12.828 -0.0036  0.2046 -1.2171
   9223SM  H13C12341   6.132   2.346  12.895 -1.2931  1.6183 -2.1348
   9223SM   C1212342   6.238   2.121  12.759 -0.1847 -0.9274  0.3117
   9223SM  H12A12343   6.306   2.205  12.750 -0.0759 -1.0106  0.3634
   9223SM  H12B12344   6.266   2.072  12.668  0.7546  1.3420 -0.7120
   9223SM   C1112345   6.270   2.027  12.882  0.1808 -0.2570  0.2582
   9223SM  H11A12346   6.207   1.936  12.872 -1.1883  0.8378 -1.5480
   9223SM  H11B12347   6.243   2.087  12.972  1.5146  0.3766  0.2612
   9223SM     P12348   6.475   1.880  12.963 -0.4406  0.0072  0.2064
   9223SM   O1312349   6.416   1.753  12.913 -0.1463  0.0294 -0.5026
   9223SM   O1412350   6.624   1.895  12.965  0.0596  0.0815 -0.1825
   9223SM   O1112351   6.421   1.912  13.114  0.1161 -0.5604  0.3947
   9223SM   O1212352   6.412   2.003  12.888  0.0325  0.0125  0.1431
   9223SM   C1S12353   6.306   1.842  13.160 -0.5872 -0.2542  0.0069
   9223SM   H1S12354   6.318   1.733  13.144 -0.8963 -0.4228  0.8166
   9223SM   H1T12355   6.214   1.874  13.106 -1.6031 -0.4245  1.5420
   9223SM    NF12356   6.176   1.791  13.368 -0.3034  0.2150 -0.0754
   9223SM   HNF12357   6.087   1.835  13.364 -1.0183 -1.2587 -2.1146
   9223SM   C2S12358   6.283   1.874  13.311 -0.1609 -0.0845 -0.0690
   9223SM   H2S12359   6.368   1.852  13.378  0.5140  0.6473 -0.6703
   9223SM   C3S12360   6.259   2.028  13.326  0.0384  0.2556 -0.7647
   9223SM   H3S12361   6.162   2.048  13.276 -1.1168 -1.3442  0.6789
   9223SM    O312362   6.356   2.114  13.261  0.5339 -0.1935 -0.2030
   9223SM   HO312363   6.393   2.054  13.197 -0.9893 -1.7591  0.2908
   9223SM   C4S12364   6.251   2.063  13.480  0.5837 -0.1777 -0.0437
   9223SM   H4S12365   6.343   2.040  13.536  0.1291 -3.3184 -0.4502
   9223SM   C5S12366   6.146   2.116  13.546  0.5132  0.6993 -0.0222
   9223SM   H5S12367   6.054   2.123  13.487  0.2316  1.4211  0.4878
   9223SM   C6S12368   6.139   2.148  13.695  0.8814 -0.0873  0.1030
   9223SM   H6S12369   6.113   2.256  13.695  0.5460 -0.1502 -1.0382
   9223SM   H6T12370   6.237   2.157  13.746  0.6968  0.8334  0.3200
   9223SM   C7S12371   6.041   2.056  13.757  1.1467  0.3038 -0.2994
   9223SM   H7S12372   6.028   2.085  13.863 -0.0884  0.1870 -0.4023
   9223SM   H7T12373   6.101   1.963  13.770  1.6307  0.6741  0.1549
   9223SM   C8S12374   5.894   2.029  13.704  0.2315  0.1049  0.5186
   9223SM   H8S12375   5.902   1.994  13.599  0.8195  0.5596  0.4073
   9223SM   H8T12376   5.836   2.124  13.702  0.0407 -0.0071 -2.1055
   9223SM   C9S12377   5.817   1.929  13.790  0.0929 -0.2494 -0.4167
   9223SM   H9S12378   5.805   1.980  13.888  0.1003  1.2607 -1.1671
   9223SM   H9T12379   5.885   1.846  13.818  1.7910  2.0729  3.1570
   9223SM  C10S12380   5.687   1.885  13.740  0.8152  0.0553 -0.0878
   9223SM  H10S12381   5.637   1.806  13.800  1.0779 -0.8058 -0.9753
   9223SM  H10T12382   5.696   1.836  13.640 -0.9322  0.4684 -0.4777
   9223SM  C11S12383   5.586   2.000  13.718 -0.2280  0.7346  0.3251
   9223SM  H11S12384   5.492   1.953  13.682 -0.0557  0.3035  0.4308
   9223SM  H11T12385   5.616   2.052  13.624  2.0722 -1.9569 -0.5741
   9223SM  C12S12386   5.559   2.094  13.831  0.7259  0.5749  0.4675
   9223SM  H12S12387   5.540   2.195  13.791 -1.9139  0.5348  1.4246
   9223SM  H12T12388   5.641   2.110  13.904  1.8014 -2.4682  0.0784
   9223SM  C13S12389   5.432   2.053  13.908 -0.4374  0.4907  0.1128
   9223SM  H13S12390   5.403   1.951  13.875  1.7925  0.2067 -1.1785
   9223SM  H13T12391   5.354   2.128  13.884  1.2855  2.7819  1.2679
   9223SM  C14S12392   5.443   2.063  14.061  0.3762  0.9321 -0.2738
   9223SM  H14S12393   5.421   2.168  14.089  0.8832  0.7059  1.0224
   9223SM  H14T12394   5.540   2.032  14.106 -1.1422  0.6155  3.0148
   9223SM  C15S12395   5.332   1.978  14.132 -0.4929  0.1505  0.1722
   9223SM  H15S12396   5.361   1.871  14.127 -1.3106 -0.0774  0.1656
   9223SM  H15T12397   5.236   1.998  14.080 -0.0016  0.8531 -0.4777
   9223SM  C16S12398   5.329   2.020  14.277  0.0469  0.3677  0.3315
   9223SM  H16S12399   5.304   2.128  14.287 -1.3947 -0.0274  1.3939
   9223SM  H16T12400   5.430   2.011  14.321  0.7686  0.1883 -1.2929
   9223SM  C17S12401   5.228   1.941  14.362  0.2433 -0.0205  0.4946
   9223SM  H17S12402   5.254   1.836  14.338  2.4482 -0.5243  4.2253
   9223SM  H17T12403   5.122   1.967  14.339 -0.3217 -3.1143 -0.8647
   9223SM  C18S12404   5.246   1.959  14.512  0.3895 -0.1801 -0.5354
   9223SM  H18S12405   5.151   1.927  14.560  0.3584 -3.0849 -2.3108
   9223SM  H18T12406   5.275   2.064  14.536  1.7468 -0.0472 -2.5383
   9223SM  H18U12407   5.328   1.894  14.549 -0.1684 -0.0310  1.0568
   9223SM   C1F12408   6.186   1.660  13.379 -0.1439 -0.2851 -0.2058
   9223SM    OF12409   6.290   1.607  13.346  0.4534 -0.3432 -0.3881
   9223SM   C2F12410   6.079   1.585  13.433 -0.1977 -0.3862 -0.2349
   9223SM   H2F12411   6.121   1.487  13.465 -0.1623 -0.3961 -0.3120
   9223SM   H2G12412   5.997   1.549  13.367 -0.6047 -2.5116  1.3033
   9223SM   C3F12413   6.005   1.651  13.559 -0.0176 -0.2823  0.0250
   9223SM   H3F12414   5.967   1.746  13.515 -1.2370  0.5174  2.6163
   9223SM   H3G12415   6.073   1.670  13.645 -2.3859 -0.1423  1.9483
   9223SM   C4F12416   5.887   1.584  13.624 -0.1340  0.3536  0.2965
   9223SM   H4F12417   5.825   1.540  13.543 -0.4172  0.3345  0.5231
   9223SM   H4G12418   5.814   1.658  13.664 -1.6667 -0.4679 -0.8481
   9223SM   C5F12419   5.921   1.464  13.715 -0.3596  0.1010 -0.5332
   9223SM   H5F12420   5.987   1.387  13.670  0.9535 -0.6905  2.4941
   9223SM   H5G12421   5.830   1.410  13.748 -0.0500  0.0210  0.2078
   9223SM   C6F12422   5.996   1.509  13.846 -0.1757 -0.2268 -0.1371
   9223SM   H6F12423   5.930   1.590  13.885 -2.2393 -1.9532  0.1008
   9223SM   H6G12424   6.096   1.556  13.832  0.7757 -1.6647  1.5057
   9223SM   C7F12425   6.007   1.402  13.957  0.1017 -0.5946  0.9523
   9223SM   H7F12426   5.908   1.354  13.969  0.0244 -0.4100  1.0593
   9223SM   H7G12427   6.028   1.455  14.053  2.6872  1.0777 -0.4195
   9223SM   C8F12428   6.107   1.293  13.930  0.3866 -0.4572 -0.6750
   9223SM   H8F12429   6.207   1.341  13.921  0.6395 -1.1108 -1.3752
   9223SM   H8G12430   6.086   1.233  13.839 -0.1765 -1.5428  0.1568
   9223SM   C9F12431   6.117   1.195  14.051  0.2954  0.0602  0.6142
   9223SM   H9F12432   6.030   1.126  14.045  0.8594 -0.7558  1.5179
   9223SM   H9G12433   6.118   1.257  14.143 -0.3706  1.8418 -0.5231
   9223SM  C10F12434   6.238   1.097  14.041  0.1223  0.1180  0.1251
   9223SM  H10F12435   6.334   1.149  14.021  0.3011 -0.1088  0.3947
   9223SM  H10G12436   6.214   1.048  13.945 -0.0068 -0.3945  0.4178
   9223SM  C11F12437   6.248   1.000  14.154  0.0263  0.4970 -0.1717
   9223SM  H11F12438   6.297   0.902  14.133 -0.4131 -0.4662  2.8731
   9223SM  H11G12439   6.149   0.981  14.199  1.1357 -0.0601  2.2234
   9223SM  C12F12440   6.344   1.031  14.268 -0.1764 -0.2911  0.2084
   9223SM  H12F12441   6.444   1.057  14.229 -0.0624  1.2679  1.4335
   9223SM  H12G12442   6.355   0.944  14.337  1.4427 -1.4644 -1.4451
   9223SM  C13F12443   6.294   1.147  14.350  0.2789 -0.1146  0.0689
   9223SM  H13F12444   6.194   1.108  14.378  0.8691 -2.1590 -0.5296
   9223SM  H13G12445   6.286   1.247  14.301 -0.2556 -0.2457 -0.1118
   9223SM  C14F12446   6.380   1.167  14.481  0.2556  0.0559  0.0343
   9223SM  H14F12447   6.385   1.067  14.528 -0.2743 -0.4668 -0.9776
   9223SM  H14G12448   6.330   1.242  14.547  0.0500  1.9074 -2.0948
   9223SM  C15F12449   6.517   1.233  14.470 -0.1111 -0.3924  0.6110
   9223SM  H15F12450   6.505   1.335  14.428 -1.4019 -0.9060 -0.3363
   9223SM  H15G12451   6.586   1.181  14.401  1.0805  1.8447  0.0199
   9223SM  C16F12452   6.573   1.252  14.607  0.0500  0.3829  0.4789
   9223SM  H16F12453   6.603   1.156  14.654 -1.0519  0.3688  1.1998
   9223SM  H16G12454   6.500   1.305  14.671  0.5489 -2.6394  3.8712
   9223SM  C17F12455   6.698   1.348  14.610  0.3462 -0.3178  0.0290
   9223SM  H17F12456   6.678   1.454  14.582  0.2654  0.0494  1.4191
   9223SM  H17G12457   6.769   1.304  14.537 -0.7489 -0.8858 -0.7323
   9223SM  C18F12458   6.763   1.356  14.752 -0.2168 -0.3425  0.8242
   9223SM  H18F12459   6.788   1.252  14.782 -0.1930 -0.4061  0.5844
   9223SM  H18G12460   6.684   1.396  14.820 -0.6787  0.2139 -0.0230
   9223SM  C19F12461   6.892   1.432  14.760  1.0273 -0.3580  1.1352
   9223SM  H19F12462   6.884   1.539  14.731  0.6289 -1.3876 -3.1965
   9223SM  H19G12463   6.955   1.384  14.683 -0.1844  1.0185 -0.8245
   9223SM  C20F12464   6.945   1.437  14.903 -0.3137 -1.0134  0.3748
   9223SM  H20F12465   7.043   1.488  14.908 -0.1676 -1.3619  1.0628
   9223SM  H20G12466   6.949   1.338  14.952 -1.3604 -0.5671  1.4069
   9223SM  C21F12467   6.870   1.535  14.991 -0.3686 -0.3420 -0.4513
   9223SM  H21F12468   6.790   1.584  14.931 -1.3884 -1.0530  0.3079
   9223SM  H21G12469   6.933   1.612  15.041  1.3575 -1.5281 -0.7038
   9223SM  C22F12470   6.792   1.451  15.099 -0.3949 -0.1933 -0.4941
   9223SM  H22F12471   6.867   1.410  15.171 -0.5461  0.6333  0.1538
   9223SM  H22G12472   6.743   1.374  15.037 -1.7065  2.2352 -2.6942
   9223SM  C23F12473   6.693   1.535  15.174  0.3657 -0.1579 -0.3224
   9223SM  H23F12474   6.617   1.575  15.103  1.7779 -0.3400 -2.0140
   9223SM  H23G12475   6.748   1.621  15.217  0.4961 -0.7514  0.7363
   9223SM  H23H12476   6.641   1.469  15.246 -0.5650 -0.4376 -1.2262
   9323SM     N12477   0.671   2.721  12.747 -0.2843 -0.5096  0.0043
   9323SM   C1512478   0.685   2.717  12.596 -0.0490  0.2104 -0.9308
   9323SM  H15A12479   0.668   2.617  12.560  1.9569 -0.7125  0.4854
   9323SM  H15B12480   0.786   2.741  12.566  0.2841 -1.1861 -1.0192
   9323SM  H15C12481   0.625   2.795  12.553 -1.7532  0.0449  0.9880
   9323SM   C1412482   0.531   2.678  12.782  0.7605 -0.4374  0.3278
   9323SM  H14A12483   0.457   2.747  12.745 -0.2305 -1.0452  1.0983
   9323SM  H14B12484   0.511   2.653  12.886 -0.0569  1.8641  0.7818
   9323SM  H14C12485   0.507   2.593  12.719 -1.4669  0.5756 -0.2940
   9323SM   C1312486   0.767   2.621  12.802  0.1365  0.2717 -1.0916
   9323SM  H13A12487   0.873   2.638  12.788 -0.0366  2.8857  0.2195
   9323SM  H13B12488   0.757   2.531  12.743  1.5160 -0.8347  0.2820
   9323SM  H13C12489   0.745   2.598  12.905 -0.5598  0.9679 -1.0815
   9323SM   C1212490   0.687   2.859  12.803  0.0587  0.5396  0.1986
   9323SM  H12A12491   0.791   2.886  12.788  0.2815  1.2573  2.5955
   9323SM  H12B12492   0.669   2.856  12.909 -0.5416 -3.8833  0.1602
   9323SM   C1112493   0.602   2.984  12.749 -0.0867  0.4888 -0.6534
   9323SM  H11A12494   0.614   3.005  12.641 -1.1988 -1.2000 -1.1470
   9323SM  H11B12495   0.648   3.065  12.809 -0.9116  1.5598 -1.4458
   9323SM     P12496   0.396   3.050  12.909 -0.7143  0.1999 -0.0083
   9323SM   O1312497   0.341   3.187  12.869  0.1842 -0.1622  0.0207
   9323SM   O1412498   0.310   2.957  12.977 -0.2149  0.0746  0.1717
   9323SM   O1112499   0.517   3.082  13.009  0.0085 -0.2788 -0.0176
   9323SM   O1212500   0.464   2.977  12.780 -0.5104 -0.8386 -0.4513
   9323SM   C1S12501   0.509   3.191  13.103 -0.2512 -0.2597 -0.0374
   9323SM   H1S12502   0.426   3.263  13.090 -0.7318 -0.7004  0.5450
   9323SM   H1T12503   0.592   3.264  13.093 -0.6834  0.3434  0.6678
   9323SM    NF12504   0.487   3.249  13.334 -0.0798  0.4939 -0.3621
   9323SM   HNF12505   0.570   3.288  13.372  0.0794  0.6807 -0.8931
   9323SM   C2S12506   0.520   3.137  13.244  0.4296  0.2896 -0.3358
   9323SM   H2S12507   0.449   3.054  13.266  1.5781 -0.7993 -0.6589
   9323SM   C3S12508   0.653   3.065  13.271  0.3807  0.5504 -0.4624
   9323SM   H3S12509   0.734   3.140  13.255  1.2987 -0.3303 -0.0563
   9323SM    O312510   0.687   2.969  13.174  0.0664  0.1011 -0.2343
   9323SM   HO312511   0.621   2.994  13.109 -1.0805  0.7407  1.1201
   9323SM   C4S12512   0.662   3.000  13.412 -0.1709 -0.6556  0.1812
   9323SM   H4S12513   0.597   2.912  13.425  0.2130 -1.5424 -2.9941
   9323SM   C5S12514   0.739   3.050  13.509 -0.7112  0.9004 -0.1962
   9323SM   H5S12515   0.805   3.137  13.492 -0.1921  1.0490  2.2281
   9323SM   C6S12516   0.754   2.985  13.642 -0.2783 -0.1324  0.0217
   9323SM   H6S12517   0.851   2.934  13.658  0.3609  0.9286 -0.4073
   9323SM   H6T12518   0.674   2.910  13.661  0.0850 -0.3334  0.8111
   9323SM   C7S12519   0.736   3.084  13.756  0.0226  0.2633  0.6629
   9323SM   H7S12520   0.808   3.168  13.772 -0.2283  0.1067  2.8464
   9323SM   H7T12521   0.755   3.032  13.852  1.3615 -1.1134 -0.3023
   9323SM   C8S12522   0.594   3.133  13.748 -1.0721  1.0364 -0.2273
   9323SM   H8S12523   0.519   3.052  13.743  0.0375  0.0597 -2.0295
   9323SM   H8T12524   0.580   3.196  13.657  0.3115  0.5794 -0.7830
   9323SM   C9S12525   0.554   3.223  13.866  0.8001 -0.1741  0.1501
   9323SM   H9S12526   0.642   3.284  13.894  1.4369 -1.8998  2.2105
   9323SM   H9T12527   0.522   3.168  13.957  0.4858  0.5388  0.4767
   9323SM  C10S12528   0.429   3.307  13.841 -0.2384 -0.9059 -0.5192
   9323SM  H10S12529   0.336   3.247  13.836  0.3252 -1.8449  0.1081
   9323SM  H10T12530   0.461   3.354  13.745  0.7308 -1.7844 -0.6509
   9323SM  C11S12531   0.406   3.415  13.951  0.3348 -0.1176  0.0631
   9323SM  H11S12532   0.329   3.486  13.915  0.7064 -0.1535 -0.8394
   9323SM  H11T12533   0.499   3.466  13.984 -0.8475  1.6764  0.7717
   9323SM  C12S12534   0.362   3.345  14.075 -0.3893 -0.4886 -0.0629
   9323SM  H12S12535   0.454   3.306  14.123 -0.8095 -0.8800  0.4355
   9323SM  H12T12536   0.296   3.258  14.053  2.5289 -2.7597 -0.4792
   9323SM  C13S12537   0.286   3.423  14.179  0.0437 -0.3699 -0.0346
   9323SM  H13S12538   0.233   3.345  14.238 -0.3897 -1.4303 -1.7468
   9323SM  H13T12539   0.205   3.480  14.129 -2.3192 -2.1901  1.4853
   9323SM  C14S12540   0.369   3.527  14.250 -0.2139 -0.0262  0.2641
   9323SM  H14S12541   0.382   3.616  14.185  1.1038 -0.9273 -0.7395
   9323SM  H14T12542   0.470   3.491  14.279 -0.0543  1.0486  1.1626
   9323SM  C15S12543   0.292   3.572  14.380  0.5536 -0.2142  0.3614
   9323SM  H15S12544   0.331   3.672  14.410  1.0734 -0.7756  1.6433
   9323SM  H15T12545   0.188   3.584  14.344  0.7462 -1.6996 -0.7652
   9323SM  C16S12546   0.311   3.486  14.495  0.7391  0.4982  0.3207
   9323SM  H16S12547   0.396   3.523  14.556 -0.4820 -0.4856  2.7596
   9323SM  H16T12548   0.339   3.389  14.450 -2.8898 -0.1438 -0.8527
   9323SM  C17S12549   0.192   3.471  14.591  0.6228 -0.4094  0.2858
   9323SM  H17S12550   0.206   3.382  14.656 -0.3151 -1.2035 -0.5751
   9323SM  H17T12551   0.095   3.456  14.539 -0.6956  0.2660  2.4151
   9323SM  C18S12552   0.190   3.599  14.677 -0.2488  0.0622  0.1027
   9323SM  H18S12553   0.107   3.590  14.750 -1.0806 -2.4364 -1.0345
   9323SM  H18T12554   0.168   3.680  14.604  0.1694 -0.3350 -0.4756
   9323SM  H18U12555   0.288   3.614  14.727 -0.1788  0.6974 -0.2129
   9323SM   C1F12556   0.373   3.312  13.341 -0.3537  0.4074  0.0441
   9323SM    OF12557   0.284   3.282  13.267 -0.2083  0.3245  0.0938
   9323SM   C2F12558   0.353   3.423  13.435  0.1221 -0.6972  0.5769
   9323SM   H2F12559   0.353   3.513  13.371  0.5935 -1.3467 -0.3703
   9323SM   H2G12560   0.436   3.416  13.509  1.1100 -0.6560 -0.5043
   9323SM   C3F12561   0.219   3.414  13.513  0.8009  0.3860 -0.6450
   9323SM   H3F12562   0.214   3.318  13.568  0.7935 -0.3236 -1.8441
   9323SM   H3G12563   0.129   3.413  13.447  0.0316  2.2755  0.2932
   9323SM   C4F12564   0.193   3.522  13.613  0.4531 -0.2326  0.4510
   9323SM   H4F12565   0.176   3.626  13.577 -0.8822 -0.7900 -0.6089
   9323SM   H4G12566   0.279   3.526  13.683 -1.1518 -2.0360  2.6706
   9323SM   C5F12567   0.077   3.490  13.713  0.9958 -0.2831 -0.3613
   9323SM   H5F12568   0.120   3.428  13.795  0.7698  2.1829  1.7497
   9323SM   H5G12569  -0.011   3.453  13.656 -0.8845  1.6585  1.0694
   9323SM   C6F12570   0.031   3.616  13.787 -0.4930 -0.3839  0.1392
   9323SM   H6F12571  -0.031   3.675  13.716 -0.2131  1.1828  1.1485
   9323SM   H6G12572   0.124   3.674  13.807 -0.0031 -0.6721 -1.1872
   9323SM   C7F12573  -0.056   3.586  13.908  0.8043  0.3003 -0.3085
   9323SM   H7F12574  -0.071   3.682  13.963  1.3537  0.0173  0.3525
   9323SM   H7G12575  -0.002   3.519  13.978 -2.6061  1.2394  3.5784
   9323SM   C8F12576  -0.203   3.536  13.876  0.2908 -0.2434  0.8001
   9323SM   H8F12577  -0.202   3.431  13.841  0.1264  0.5802 -1.9474
   9323SM   H8G12578  -0.258   3.593  13.798 -0.6700 -1.1891  0.7584
   9323SM   C9F12579  -0.288   3.561  14.004 -0.3832 -0.3527  0.3476
   9323SM   H9F12580  -0.278   3.668  14.032 -1.5740 -0.3101  0.6549
   9323SM   H9G12581  -0.241   3.508  14.090 -1.0496 -0.8418  0.4200
   9323SM  C10F12582  -0.442   3.509  14.001 -0.5055 -0.4035  0.0937
   9323SM  H10F12583  -0.452   3.414  13.945 -2.1268 -0.4520  0.3971
   9323SM  H10G12584  -0.500   3.593  13.956  1.7025  1.2031  0.0967
   9323SM  C11F12585  -0.490   3.489  14.151 -0.1311 -0.7685  0.1922
   9323SM  H11F12586  -0.427   3.413  14.203  1.2530  1.0617  1.3143
   9323SM  H11G12587  -0.593   3.448  14.155 -0.8196  0.9717  1.1023
   9323SM  C12F12588  -0.496   3.619  14.228 -0.2781  0.1475  0.5008
   9323SM  H12F12589  -0.523   3.703  14.160  1.2790  0.3282  0.0702
   9323SM  H12G12590  -0.392   3.646  14.255  0.4157 -1.1709 -0.7090
   9323SM  C13F12591  -0.584   3.612  14.357 -0.2169  0.3372  0.2922
   9323SM  H13F12592  -0.683   3.590  14.311  0.0154 -2.3558  0.9298
   9323SM  H13G12593  -0.589   3.714  14.401 -0.1097  0.5936 -0.2759
   9323SM  C14F12594  -0.547   3.497  14.449  0.1409 -0.3357  0.0673
   9323SM  H14F12595  -0.438   3.505  14.471  0.3794  1.6596 -1.5915
   9323SM  H14G12596  -0.572   3.402  14.397 -0.2591 -0.5302  0.6096
   9323SM  C15F12597  -0.637   3.498  14.574  0.6218 -0.0354  0.9347
   9323SM  H15F12598  -0.743   3.501  14.543  1.1260  1.5990 -0.8272
   9323SM  H15G12599  -0.623   3.605  14.604 -1.7171  1.0084 -1.3213
   9323SM  C16F12600  -0.595   3.400  14.675  0.5196  0.3675 -0.1810
   9323SM  H16F12601  -0.484   3.392  14.670  0.3462 -1.9203 -1.8003
   9323SM  H16G12602  -0.631   3.306  14.630 -0.1076  0.4417  0.1581
   9323SM  C17F12603  -0.653   3.421  14.818  0.1919 -0.1427  0.0278
   9323SM  H17F12604  -0.618   3.521  14.852  1.3622 -0.3837 -0.4265
   9323SM  H17G12605  -0.602   3.347  14.884  2.7027  1.3908 -0.0341
   9323SM  C18F12606  -0.807   3.400  14.823 -0.0998 -0.9712 -0.2195
   9323SM  H18F12607  -0.832   3.296  14.791 -3.9152 -0.0986 -0.6315
   9323SM  H18G12608  -0.854   3.469  14.750  0.7140  1.2827  1.2794
   9323SM  C19F12609  -0.862   3.416  14.964 -0.2089  0.0546 -0.2977
   9323SM  H19F12610  -0.849   3.320  15.018  2.3593 -1.3806 -3.1648
   9323SM  H19G12611  -0.972   3.432  14.954 -0.1393  0.6268 -0.2203
   9323SM  C20F12612  -0.809   3.541  15.031 -0.3134  0.5304 -0.0205
   9323SM  H20F12613  -0.832   3.630  14.967 -2.4969 -0.4814 -0.7625
   9323SM  H20G12614  -0.699   3.526  15.029 -0.4586 -0.7696  0.9715
   9323SM  C21F12615  -0.847   3.553  15.188  0.1414 -0.3165 -0.2151
   9323SM  H21F12616  -0.790   3.639  15.229 -1.5022  1.9258 -2.3760
   9323SM  H21G12617  -0.814   3.459  15.238  1.2303 -0.1692 -0.6391
   9323SM  C22F12618  -0.999   3.584  15.217 -0.2912 -0.9258  0.2095
   9323SM  H22F12619  -1.062   3.502  15.177 -0.8190 -0.0162 -0.8767
   9323SM  H22G12620  -1.016   3.677  15.159  0.7679  0.2286  1.6745
   9323SM  C23F12621  -1.030   3.603  15.368  0.5800  0.4687  0.7835
   9323SM  H23F12622  -1.141   3.602  15.364  0.6188  1.0818 -1.5203
   9323SM  H23G12623  -0.994   3.700  15.408 -0.3013  1.0420  0.2276
   9323SM  H23H12624  -0.999   3.510  15.422  0.8830 -0.7822 -1.4382
   9423SM     N12625   5.706   6.732  12.588 -1.1298  0.3443  0.2025
   9423SM   C1512626   5.780   6.753  12.454 -0.2050  0.3221 -0.1647
   9423SM  H15A12627   5.864   6.818  12.471 -0.2033  0.6040 -1.1586
   9423SM  H15B12628   5.717   6.801  12.381  0.4046 -0.1728 -1.0365
   9423SM  H15C12629   5.820   6.658  12.420 -0.5078  0.9192 -2.3643
   9423SM   C1412630   5.655   6.859  12.645 -0.0282 -0.5224 -0.0439
   9423SM  H14A12631   5.615   6.917  12.563 -0.7314 -0.0622  0.6107
   9423SM  H14B12632   5.740   6.913  12.685  0.0134 -1.9421  1.8669
   9423SM  H14C12633   5.589   6.844  12.729 -0.2782  0.3067 -0.0839
   9423SM   C1312634   5.590   6.643  12.576 -0.9333  0.6879  0.5628
   9423SM  H13A12635   5.624   6.542  12.558  0.7780  0.9298  2.1024
   9423SM  H13B12636   5.525   6.681  12.499 -0.9277 -0.5621 -0.0789
   9423SM  H13C12637   5.536   6.635  12.669 -0.8286  1.1510  0.6667
   9423SM   C1212638   5.812   6.668  12.685  0.6543  0.2836  0.3878
   9423SM  H12A12639   5.842   6.574  12.641 -2.0310  0.6267 -2.4934
   9423SM  H12B12640   5.770   6.648  12.782  0.1193 -0.1823  0.0642
   9423SM   C1112641   5.943   6.749  12.713 -0.3281  0.2382  0.1732
   9423SM  H11A12642   5.998   6.761  12.617  4.2487 -0.7773  2.3595
   9423SM  H11B12643   6.007   6.682  12.774 -0.9177 -2.4016 -1.9230
   9423SM     P12644   5.891   6.906  12.918 -0.1167  0.0837 -0.0252
   9423SM   O1312645   6.016   6.951  12.989 -0.3140  0.2183 -0.1223
   9423SM   O1412646   5.774   6.997  12.922 -0.4661 -0.9274  0.3691
   9423SM   O1112647   5.853   6.767  12.971  0.7701 -0.5609 -0.1039
   9423SM   O1212648   5.930   6.883  12.767  0.3484  0.1503  0.5125
   9423SM   C1S12649   5.723   6.752  13.038  0.1701 -0.1671 -0.4835
   9423SM   H1S12650   5.658   6.687  12.975  0.5221 -0.7928 -0.2129
   9423SM   H1T12651   5.663   6.844  13.053  0.4817 -0.2577  1.5755
   9423SM    NF12652   5.777   6.774  13.272  0.0003 -0.0761 -0.4766
   9423SM   HNF12653   5.871   6.756  13.300  0.0272 -1.9793 -1.6353
   9423SM   C2S12654   5.736   6.677  13.175  0.2449 -0.3322 -0.8180
   9423SM   H2S12655   5.631   6.651  13.203 -0.6484  3.5677  0.1712
   9423SM   C3S12656   5.816   6.543  13.170 -0.2379 -0.1516  0.7915
   9423SM   H3S12657   5.918   6.577  13.141 -0.8827  1.2215  0.0388
   9423SM    O312658   5.776   6.447  13.072 -0.1200  0.0895 -0.8243
   9423SM   HO312659   5.702   6.490  13.029 -0.4902  0.3735  0.0792
   9423SM   C4S12660   5.819   6.476  13.305 -0.2358  0.4565 -0.3043
   9423SM   H4S12661   5.734   6.500  13.369 -0.5243 -0.6543 -0.2460
   9423SM   C5S12662   5.923   6.406  13.349  0.2818 -0.4226 -0.0989
   9423SM   H5S12663   6.012   6.396  13.285  1.0971 -0.3996  1.0072
   9423SM   C6S12664   5.924   6.340  13.484  0.4851 -0.1090 -0.0996
   9423SM   H6S12665   5.998   6.257  13.489  3.0741  2.0081 -1.1006
   9423SM   H6T12666   5.822   6.303  13.509 -0.0158  1.0337 -0.3775
   9423SM   C7S12667   5.966   6.439  13.595 -0.0970  0.3182 -0.2722
   9423SM   H7S12668   5.912   6.534  13.574  0.6716  0.4206 -1.8786
   9423SM   H7T12669   6.074   6.464  13.589  0.1244  1.0348  3.8938
   9423SM   C8S12670   5.942   6.397  13.736  0.5525  0.4628 -0.0421
   9423SM   H8S12671   5.959   6.288  13.748 -3.8995 -0.4868 -0.8206
   9423SM   H8T12672   5.836   6.409  13.767  1.2176 -0.3145  2.7744
   9423SM   C9S12673   6.028   6.472  13.842 -0.6700  0.2217  0.4316
   9423SM   H9S12674   6.026   6.583  13.834  1.3277  0.2598 -0.0573
   9423SM   H9T12675   6.134   6.446  13.820 -0.5978 -0.7160  1.7818
   9423SM  C10S12676   5.997   6.429  13.981  0.5581  0.2996 -0.0638
   9423SM  H10S12677   6.001   6.318  13.980  0.9759  0.3110  0.1269
   9423SM  H10T12678   5.889   6.451  14.000 -0.6530 -3.6705 -1.3312
   9423SM  C11S12679   6.094   6.479  14.096 -0.4247 -0.7976  0.2322
   9423SM  H11S12680   6.115   6.588  14.085 -0.9066 -0.7705 -0.5723
   9423SM  H11T12681   6.193   6.431  14.091 -0.1241 -0.0749 -2.7109
   9423SM  C12S12682   6.035   6.448  14.234 -0.7314  0.1362  0.2535
   9423SM  H12S12683   6.020   6.338  14.240  0.1634 -0.0630 -0.8941
   9423SM  H12T12684   5.935   6.496  14.244 -1.9976 -2.1620 -0.5102
   9423SM  C13S12685   6.115   6.500  14.355  0.5207  0.2561  0.7391
   9423SM  H13S12686   6.224   6.479  14.361  0.6012  0.6819  0.8384
   9423SM  H13T12687   6.065   6.460  14.445 -0.0767  0.7000  0.6076
   9423SM  C14S12688   6.100   6.656  14.365 -0.2747 -0.3489  0.1924
   9423SM  H14S12689   5.996   6.688  14.344 -0.2728 -1.0258 -0.9178
   9423SM  H14T12690   6.172   6.697  14.290  0.8342 -1.3159  0.6887
   9423SM  C15S12691   6.161   6.708  14.497 -0.3005 -0.5289 -0.5363
   9423SM  H15S12692   6.254   6.653  14.522 -0.8167 -0.2437  2.2798
   9423SM  H15T12693   6.088   6.682  14.576  1.5049 -0.5364  1.1913
   9423SM  C16S12694   6.187   6.855  14.502  0.0348 -0.1859 -0.1696
   9423SM  H16S12695   6.090   6.909  14.499  0.2602  0.3654  1.3349
   9423SM  H16T12696   6.233   6.884  14.405 -1.3121 -1.8707 -1.3673
   9423SM  C17S12697   6.259   6.889  14.639  0.1702 -0.6985  0.4113
   9423SM  H17S12698   6.360   6.842  14.636 -0.0580 -1.1963  0.4705
   9423SM  H17T12699   6.207   6.861  14.733  0.5355  1.5365  1.3585
   9423SM  C18S12700   6.271   7.040  14.650  0.4395 -0.4424  0.2597
   9423SM  H18S12701   6.177   7.098  14.665 -0.0102 -0.7436 -1.2128
   9423SM  H18T12702   6.309   7.079  14.553 -3.0482  3.6870  0.2520
   9423SM  H18U12703   6.328   7.079  14.737  0.1406 -2.4445  1.4000
   9423SM   C1F12704   5.701   6.875  13.315 -0.3724 -0.0796  0.5856
   9423SM    OF12705   5.580   6.869  13.295  0.5988  0.2392  0.8591
   9423SM   C2F12706   5.773   6.979  13.401  0.1006  0.5618 -0.1494
   9423SM   H2F12707   5.838   7.039  13.334 -0.0688  1.5504  0.5544
   9423SM   H2G12708   5.838   6.931  13.477 -0.8367  0.2358  0.4700
   9423SM   C3F12709   5.675   7.082  13.471 -1.0400 -0.1467 -0.5843
   9423SM   H3F12710   5.591   7.023  13.514  0.3239 -1.4083  0.4524
   9423SM   H3G12711   5.632   7.144  13.390  1.4522 -0.9271 -2.6266
   9423SM   C4F12712   5.745   7.172  13.573 -0.3829 -0.1287  0.6203
   9423SM   H4F12713   5.753   7.278  13.541 -1.3120 -0.6521 -1.5175
   9423SM   H4G12714   5.851   7.142  13.583 -0.0441  0.7760 -0.0905
   9423SM   C5F12715   5.679   7.166  13.711 -0.0971  0.3515  0.4770
   9423SM   H5F12716   5.663   7.057  13.729  1.3249 -0.5406 -2.8221
   9423SM   H5G12717   5.576   7.208  13.713 -0.4091 -0.2839 -1.0487
   9423SM   C6F12718   5.768   7.222  13.819 -0.2562  0.4869 -0.1284
   9423SM   H6F12719   5.802   7.325  13.796  0.2090  0.6040  0.9827
   9423SM   H6G12720   5.864   7.166  13.817  0.6705  2.0197 -2.6914
   9423SM   C7F12721   5.697   7.222  13.957 -0.2630  0.1640  0.3920
   9423SM   H7F12722   5.684   7.116  13.986  1.2460 -0.0124  0.4676
   9423SM   H7G12723   5.600   7.270  13.931 -0.5016  1.1875  2.9255
   9423SM   C8F12724   5.779   7.288  14.071  0.1937 -0.7491 -0.1307
   9423SM   H8F12725   5.886   7.272  14.047  0.2643 -1.3828  0.5556
   9423SM   H8G12726   5.750   7.240  14.167 -1.0959  2.3821  1.1701
   9423SM   C9F12727   5.754   7.434  14.072  0.0401  0.9923 -0.0875
   9423SM   H9F12728   5.646   7.453  14.092  0.1163  1.6744 -0.3120
   9423SM   H9G12729   5.775   7.487  13.977 -2.7983  2.2181 -0.1312
   9423SM  C10F12730   5.835   7.492  14.186  0.4082  0.3849  0.9301
   9423SM  H10F12731   5.941   7.479  14.157  0.4471  0.1177  1.1782
   9423SM  H10G12732   5.818   7.439  14.282 -2.5171 -1.7216 -0.5744
   9423SM  C11F12733   5.795   7.640  14.208  0.3413  0.3611  0.3880
   9423SM  H11F12734   5.689   7.635  14.241  0.1784  0.7260 -0.0642
   9423SM  H11G12735   5.782   7.701  14.115 -0.7947  1.4377  1.2132
   9423SM  C12F12736   5.875   7.705  14.322 -0.4098 -0.0354 -0.5571
   9423SM  H12F12737   5.981   7.683  14.296 -0.2788 -1.3427  0.8891
   9423SM  H12G12738   5.865   7.651  14.419 -0.3225  0.0035 -0.5265
   9423SM  C13F12739   5.845   7.851  14.346 -0.5544 -0.5512 -0.3446
   9423SM  H13F12740   5.737   7.854  14.373 -0.7689  0.3880 -1.2644
   9423SM  H13G12741   5.868   7.909  14.254 -0.4727 -0.1844 -0.0962
   9423SM  C14F12742   5.932   7.916  14.459 -0.1242  0.0121  0.3625
   9423SM  H14F12743   5.920   8.025  14.471  1.5285  0.6937 -2.9161
   9423SM  H14G12744   6.041   7.908  14.440  0.0930 -1.3634  1.9152
   9423SM  C15F12745   5.897   7.852  14.592 -0.0732 -0.4634 -0.4512
   9423SM  H15F12746   5.942   7.750  14.594  0.8685 -0.1425 -2.8204
   9423SM  H15G12747   5.788   7.840  14.607  0.1084 -1.2732  0.3062
   9423SM  C16F12748   5.944   7.940  14.715  0.0375  0.6055  0.3197
   9423SM  H16F12749   5.981   8.034  14.669 -0.9286  1.9047  2.0729
   9423SM  H16G12750   6.031   7.894  14.768 -1.7033 -2.7142  0.5827
   9423SM  C17F12751   5.833   7.991  14.813  0.6265  0.2870 -0.0311
   9423SM  H17F12752   5.804   7.906  14.879 -0.2199  0.8621  0.3358
   9423SM  H17G12753   5.742   8.020  14.757 -1.0922 -0.5772  2.1857
   9423SM  C18F12754   5.869   8.107  14.914  0.4105  0.5180 -0.0648
   9423SM  H18F12755   5.940   8.170  14.856  1.0612  0.1403  0.2937
   9423SM  H18G12756   5.923   8.065  15.002 -0.0661  2.5691  1.2833
   9423SM  C19F12757   5.751   8.192  14.962 -0.0256  0.0931 -0.7240
   9423SM  H19F12758   5.726   8.281  14.901 -0.9500  0.5705  0.3217
   9423SM  H19G12759   5.773   8.237  15.061 -3.4778 -0.0408  0.2506
   9423SM  C20F12760   5.631   8.111  15.003 -0.7806 -0.3047  0.0316
   9423SM  H20F12761   5.665   8.018  15.054  0.6484 -1.2515 -2.4795
   9423SM  H20G12762   5.585   8.084  14.905 -0.4314  1.2539 -0.5780
   9423SM  C21F12763   5.544   8.189  15.101 -0.1310  0.3874 -0.0826
   9423SM  H21F12764   5.504   8.277  15.047 -0.3034  0.9340  0.9071
   9423SM  H21G12765   5.605   8.236  15.182  1.5829  2.3332 -2.3338
   9423SM  C22F12766   5.428   8.102  15.160 -0.2844  0.3143  0.5802
   9423SM  H22F12767   5.471   8.005  15.191  0.7391  0.7574  0.5650
   9423SM  H22G12768   5.359   8.071  15.078 -1.2974  1.1637  1.0851
   9423SM  C23F12769   5.341   8.168  15.265 -0.2912 -0.8145 -0.5427
   9423SM  H23F12770   5.408   8.190  15.351 -2.7964 -0.4961  1.4773
   9423SM  H23G12771   5.261   8.100  15.301  0.2606 -1.0661  0.2344
   9423SM  H23H12772   5.291   8.256  15.219 -1.1162 -1.0081 -0.0419
   9523SM     N12773   1.657   1.721  12.586 -0.6443 -1.1903 -0.0950
   9523SM   C1512774   1.793   1.783  12.545 -0.4259  0.2344  0.1208
   9523SM  H15A12775   1.796   1.891  12.547 -0.8789  0.2595 -0.2362
   9523SM  H15B12776   1.823   1.760  12.443  2.0313  0.4924  0.7134
   9523SM  H15C12777   1.873   1.746  12.608 -0.3331  0.1999 -0.0161
   9523SM   C1412778   1.621   1.790  12.714  0.6876  0.5108  0.0465
   9523SM  H14A12779   1.530   1.751  12.757  0.8732 -2.2465 -1.8326
   9523SM  H14B12780   1.612   1.896  12.695 -0.4588  0.0710 -2.2182
   9523SM  H14C12781   1.698   1.783  12.789  0.9395 -1.6822 -0.3742
   9523SM   C1312782   1.558   1.771  12.481 -0.4047 -0.2463  0.3293
   9523SM  H13A12783   1.566   1.710  12.391 -1.4392  0.3429 -0.1793
   9523SM  H13B12784   1.574   1.873  12.450  1.3393 -0.3290  0.8888
   9523SM  H13C12785   1.457   1.752  12.516 -0.5130  1.8634  1.2872
   9523SM   C1212786   1.660   1.571  12.603  0.5378 -0.2797 -0.3351
   9523SM  H12A12787   1.653   1.528  12.505  0.3693 -0.4786 -0.2359
   9523SM  H12B12788   1.565   1.541  12.644 -0.7556  1.4737 -1.8706
   9523SM   C1112789   1.777   1.512  12.684  0.5547 -1.0158  0.2368
   9523SM  H11A12790   1.883   1.532  12.657  0.8292  0.1296  1.9808
   9523SM  H11B12791   1.756   1.403  12.675  0.5056 -1.1449  1.7419
   9523SM     P12792   1.682   1.492  12.920 -0.5839  0.1009 -0.0588
   9523SM   O1312793   1.638   1.589  13.013 -0.1799 -0.5540 -0.3326
   9523SM   O1412794   1.578   1.413  12.860 -0.0124 -0.5347  0.3713
   9523SM   O1112795   1.785   1.400  12.990 -0.2756  0.0612  0.0949
   9523SM   O1212796   1.773   1.561  12.817  0.1629  0.2031 -0.0194
   9523SM   C1S12797   1.909   1.438  13.047 -0.7154  0.0379 -0.0962
   9523SM   H1S12798   1.936   1.543  13.022 -1.6294  0.7282  1.6257
   9523SM   H1T12799   1.987   1.383  12.990 -1.4656  0.3112 -1.4130
   9523SM    NF12800   2.042   1.473  13.246  0.1254 -0.0837 -0.2279
   9523SM   HNF12801   2.117   1.408  13.253 -0.7966 -1.1770 -0.1862
   9523SM   C2S12802   1.918   1.419  13.203  0.3260  0.2216  0.4653
   9523SM   H2S12803   1.832   1.478  13.240  0.1500  0.6626 -0.5987
   9523SM   C3S12804   1.906   1.269  13.233 -0.0436 -0.5848 -0.9896
   9523SM   H3S12805   1.993   1.216  13.190  0.6574 -1.7046  1.6001
   9523SM    O312806   1.800   1.206  13.164  0.0869 -0.3509  0.2238
   9523SM   HO312807   1.770   1.281  13.112  0.4113 -1.0489 -0.9909
   9523SM   C4S12808   1.902   1.244  13.381 -0.2990 -0.9404 -0.7301
   9523SM   H4S12809   1.996   1.200  13.416 -0.2739 -0.3702 -0.0595
   9523SM   C5S12810   1.793   1.250  13.463  0.5085 -0.7370 -0.2956
   9523SM   H5S12811   1.692   1.272  13.424  0.1650 -2.5270 -0.5012
   9523SM   C6S12812   1.803   1.212  13.604  0.1304 -0.3726 -0.3587
   9523SM   H6S12813   1.808   1.102  13.619 -0.2413 -0.2001  1.3015
   9523SM   H6T12814   1.709   1.225  13.661 -0.0029 -2.7654  0.0924
   9523SM   C7S12815   1.918   1.276  13.680  0.2258  0.1893 -0.1950
   9523SM   H7S12816   1.933   1.382  13.650 -0.8282  0.6169  0.7281
   9523SM   H7T12817   2.013   1.220  13.665  0.8700  0.5920  2.0739
   9523SM   C8S12818   1.900   1.296  13.830 -0.2650 -0.1740 -0.2090
   9523SM   H8S12819   1.898   1.204  13.893 -0.6278  0.9875  1.5235
   9523SM   H8T12820   1.802   1.345  13.849  0.1228  1.0551 -1.2751
   9523SM   C9S12821   2.008   1.378  13.898  0.1680  0.4075 -0.0741
   9523SM   H9S12822   1.977   1.484  13.887 -2.9689 -0.4901 -0.8190
   9523SM   H9T12823   2.110   1.365  13.856  0.8129 -0.0623  1.5519
   9523SM  C10S12824   2.027   1.354  14.049 -1.0214  0.3221 -0.5917
   9523SM  H10S12825   2.114   1.415  14.079  0.0047 -1.1016 -0.5779
   9523SM  H10T12826   2.053   1.246  14.055 -2.6228 -0.2402 -2.5476
   9523SM  C11S12827   1.913   1.397  14.139 -0.1316  1.2652  1.0546
   9523SM  H11S12828   1.823   1.349  14.095  0.4790  2.2742 -1.5101
   9523SM  H11T12829   1.907   1.507  14.124 -2.3629  0.9569 -0.8820
   9523SM  C12S12830   1.921   1.367  14.289 -0.1080 -0.1145  0.3665
   9523SM  H12S12831   2.021   1.401  14.323  0.0302  0.8613 -0.9009
   9523SM  H12T12832   1.917   1.257  14.294  1.7939 -0.3048 -1.2011
   9523SM  C13S12833   1.801   1.420  14.374 -0.0139 -0.1524 -0.1731
   9523SM  H13S12834   1.712   1.357  14.353  0.6684 -0.9870 -0.6855
   9523SM  H13T12835   1.765   1.523  14.355 -1.4388 -0.4226  0.9161
   9523SM  C14S12836   1.830   1.384  14.521 -0.4406 -0.1763 -0.6181
   9523SM  H14S12837   1.926   1.432  14.551 -1.1482  1.5703 -0.9983
   9523SM  H14T12838   1.860   1.277  14.527  2.2585  0.5348 -0.0070
   9523SM  C15S12839   1.721   1.435  14.615  0.5143 -0.1186  0.6532
   9523SM  H15S12840   1.627   1.404  14.564  0.5777  1.3359 -0.4200
   9523SM  H15T12841   1.723   1.546  14.620  1.7986 -0.0875 -0.1542
   9523SM  C16S12842   1.712   1.363  14.750  0.5451 -0.7396  0.1916
   9523SM  H16S12843   1.798   1.396  14.813  1.9690 -3.2621 -0.2990
   9523SM  H16T12844   1.724   1.255  14.728  0.6357 -0.7275  0.1816
   9523SM  C17S12845   1.575   1.389  14.817 -0.3974 -0.8492 -1.1317
   9523SM  H17S12846   1.582   1.340  14.917  0.6251  1.0578 -0.1996
   9523SM  H17T12847   1.488   1.336  14.774  0.9108 -3.1103 -1.1247
   9523SM  C18S12848   1.552   1.542  14.845  0.2310  0.7629 -0.1301
   9523SM  H18S12849   1.524   1.593  14.751 -1.1494 -0.3757 -0.3751
   9523SM  H18T12850   1.650   1.590  14.867 -0.4326  2.4609 -0.7151
   9523SM  H18U12851   1.474   1.557  14.922 -1.2953 -3.2180 -0.6678
   9523SM   C1F12852   2.065   1.605  13.251 -0.5355 -0.5235  0.4514
   9523SM    OF12853   1.968   1.678  13.255 -0.6554 -0.2817 -0.7474
   9523SM   C2F12854   2.209   1.649  13.253 -0.1516 -0.2601 -0.6478
   9523SM   H2F12855   2.237   1.702  13.160 -1.9160  1.2758 -0.3500
   9523SM   H2G12856   2.270   1.556  13.260 -0.5612 -0.4492  0.6973
   9523SM   C3F12857   2.230   1.734  13.384 -0.5770 -0.2504 -0.3309
   9523SM   H3F12858   2.179   1.832  13.397  1.1377  0.6086  0.2811
   9523SM   H3G12859   2.334   1.771  13.369 -1.0845  1.6502  0.4734
   9523SM   C4F12860   2.220   1.647  13.516 -0.8492 -0.5156  0.8911
   9523SM   H4F12861   2.283   1.556  13.505 -3.4147 -2.7238  3.0335
   9523SM   H4G12862   2.114   1.618  13.533 -0.7999 -0.8676  0.6103
   9523SM   C5F12863   2.287   1.722  13.631 -0.4148  0.0665 -0.6371
   9523SM   H5F12864   2.242   1.824  13.633  0.6063  0.5257 -0.0862
   9523SM   H5G12865   2.395   1.740  13.611  0.5780 -3.1693  1.0586
   9523SM   C6F12866   2.259   1.658  13.770 -1.3731  0.3195 -0.6740
   9523SM   H6F12867   2.307   1.558  13.765  2.1111  1.9006 -1.5753
   9523SM   H6G12868   2.150   1.642  13.786 -1.6401 -1.0033 -3.3666
   9523SM   C7F12869   2.327   1.742  13.877 -0.1713 -0.1243 -0.6155
   9523SM   H7F12870   2.302   1.851  13.877 -1.6179 -0.4342  0.3201
   9523SM   H7G12871   2.436   1.737  13.855  0.0874 -0.1726  0.5985
   9523SM   C8F12872   2.305   1.697  14.025 -0.1519 -0.1624  0.2580
   9523SM   H8F12873   2.385   1.741  14.088  1.7829 -2.4464 -0.4596
   9523SM   H8G12874   2.318   1.587  14.020  1.8595  0.0549 -0.2222
   9523SM   C9F12875   2.163   1.726  14.073  0.3558 -0.2414 -0.7008
   9523SM   H9F12876   2.087   1.673  14.011 -0.3540  1.0821 -0.9887
   9523SM   H9G12877   2.139   1.834  14.070 -2.0026 -0.6262  0.9974
   9523SM  C10F12878   2.153   1.672  14.221 -0.2247 -0.4783  0.1251
   9523SM  H10F12879   2.190   1.567  14.232  0.1073 -0.2390  1.6419
   9523SM  H10G12880   2.050   1.663  14.260  0.3405 -3.2583  1.2703
   9523SM  C11F12881   2.234   1.766  14.317  0.1581 -0.6443 -0.2480
   9523SM  H11F12882   2.198   1.871  14.306  0.3391 -0.6121 -0.5152
   9523SM  H11G12883   2.342   1.755  14.296  0.2531 -2.4381  0.9150
   9523SM  C12F12884   2.229   1.726  14.467 -0.2994  0.0109  0.6755
   9523SM  H12F12885   2.297   1.798  14.516 -0.3406  0.6189 -0.1463
   9523SM  H12G12886   2.272   1.624  14.483  1.8035  0.4968 -1.4333
   9523SM  C13F12887   2.090   1.749  14.525 -0.0313  0.1788 -0.3089
   9523SM  H13F12888   2.030   1.667  14.482 -0.1865  0.6664 -1.0258
   9523SM  H13G12889   2.053   1.849  14.494 -1.8762 -0.2712  0.3125
   9523SM  C14F12890   2.071   1.740  14.676  0.5492  0.5718 -0.1158
   9523SM  H14F12891   1.976   1.774  14.721  0.5966  1.6171 -0.7832
   9523SM  H14G12892   2.153   1.807  14.710  1.0986 -0.0967 -0.0734
   9523SM  C15F12893   2.115   1.612  14.752  0.5779  0.3152  0.4663
   9523SM  H15F12894   2.214   1.580  14.713  0.3686 -0.2425  0.3859
   9523SM  H15G12895   2.055   1.522  14.726  0.0833  0.8722 -0.3667
   9523SM  C16F12896   2.112   1.625  14.906 -0.1074 -0.6042 -0.3416
   9523SM  H16F12897   2.154   1.532  14.949  0.1521 -0.1785  0.3591
   9523SM  H16G12898   2.003   1.628  14.927 -0.9390  2.0400 -4.0013
   9523SM  C17F12899   2.182   1.752  14.971 -0.1233 -0.1914  0.2777
   9523SM  H17F12900   2.125   1.835  14.925 -1.1836 -1.9437 -1.7990
   9523SM  H17G12901   2.290   1.753  14.946 -0.1490 -2.0069 -0.1144
   9523SM  C18F12902   2.169   1.759  15.116  0.1598  0.0018 -0.3115
   9523SM  H18F12903   2.067   1.729  15.150  0.0473  2.4615  1.9002
   9523SM  H18G12904   2.176   1.863  15.155  0.1391 -1.0188  2.6987
   9523SM  C19F12905   2.283   1.695  15.190  0.0663  0.0109 -0.3985
   9523SM  H19F12906   2.375   1.753  15.169  0.8768 -1.1933 -0.2896
   9523SM  H19G12907   2.303   1.594  15.148 -1.5114 -0.8580  0.7981
   9523SM  C20F12908   2.259   1.694  15.341 -0.2107  0.0032  0.3860
   9523SM  H20F12909   2.164   1.640  15.357 -0.3963 -0.7880 -2.8029
   9523SM  H20G12910   2.230   1.798  15.369 -2.8048 -0.7608  0.7648
   9523SM  C21F12911   2.379   1.638  15.424 -0.2747 -0.2408  0.1756
   9523SM  H21F12912   2.475   1.661  15.373  0.1212 -0.6941  0.6997
   9523SM  H21G12913   2.363   1.529  15.421  2.8097 -0.8789  1.8484
   9523SM  C22F12914   2.381   1.708  15.556 -0.0896 -0.3511 -0.7061
   9523SM  H22F12915   2.281   1.697  15.604  0.3750  2.1332  1.0215
   9523SM  H22G12916   2.403   1.817  15.556  1.3949 -0.6260  0.2141
   9523SM  C23F12917   2.495   1.647  15.648 -0.0717 -0.7417 -0.4853
   9523SM  H23F12918   2.483   1.676  15.755 -1.3231 -0.7015 -0.6246
   9523SM  H23G12919   2.595   1.684  15.616  0.4748 -1.2453  0.5820
   9523SM  H23H12920   2.494   1.537  15.632  0.2137 -0.7585 -0.3975
   9623SM     N12921   4.572   7.650  12.771  0.3551  1.0047 -0.1973
   9623SM   C1512922   4.517   7.758  12.685 -0.0719 -0.9491  0.2623
   9623SM  H15A12923   4.600   7.800  12.630 -0.1103 -0.9867  0.1759
   9623SM  H15B12924   4.461   7.832  12.741  0.4809  1.8378 -2.5338
   9623SM  H15C12925   4.444   7.725  12.612  0.8160 -1.1333 -0.5755
   9623SM   C1412926   4.625   7.534  12.691 -0.4155 -0.0884  0.1666
   9623SM  H14A12927   4.623   7.558  12.585 -2.1336 -2.4378 -0.4298
   9623SM  H14B12928   4.554   7.452  12.692 -1.4362  0.7885  0.8486
   9623SM  H14C12929   4.721   7.499  12.726 -0.4258 -0.4109 -0.1164
   9623SM   C1312930   4.685   7.699  12.851  0.0212 -0.2181 -0.0192
   9623SM  H13A12931   4.712   7.626  12.926 -1.2329 -0.7838 -0.0855
   9623SM  H13B12932   4.657   7.787  12.907 -0.9032 -0.3591 -0.2358
   9623SM  H13C12933   4.775   7.723  12.797  0.4356 -2.3410 -0.3596
   9623SM   C1212934   4.474   7.592  12.873 -0.2077  0.3447 -0.4717
   9623SM  H12A12935   4.431   7.669  12.935 -1.4848 -0.9361  0.2960
   9623SM  H12B12936   4.527   7.534  12.946 -2.3181 -1.9592 -0.6541
   9623SM   C1112937   4.353   7.494  12.826  0.6535 -0.1906 -0.4930
   9623SM  H11A12938   4.299   7.552  12.748 -0.1368  2.8246  2.0956
   9623SM  H11B12939   4.277   7.479  12.906  1.0210  0.0585 -0.0980
   9623SM     P12940   4.343   7.228  12.808 -0.3300 -0.0539 -0.1446
   9623SM   O1312941   4.196   7.234  12.789  0.4691 -0.3515  0.3512
   9623SM   O1412942   4.415   7.112  12.743 -0.3277 -0.1444 -0.2099
   9623SM   O1112943   4.372   7.225  12.967 -0.8239 -0.2998  0.5861
   9623SM   O1212944   4.401   7.371  12.770 -0.5503  0.6346  0.1447
   9623SM   C1S12945   4.343   7.097  13.037 -0.2298 -0.6888 -0.0705
   9623SM   H1S12946   4.428   7.026  13.023 -0.0443 -0.9100  1.8535
   9623SM   H1T12947   4.251   7.047  13.000  0.9571 -2.3237 -0.9519
   9623SM    NF12948   4.335   6.994  13.264  0.2701  0.1251 -0.2854
   9623SM   HNF12949   4.250   6.949  13.290  0.9798 -0.9131  0.3003
   9623SM   C2S12950   4.330   7.115  13.196  1.3353 -1.0765  0.8596
   9623SM   H2S12951   4.416   7.178  13.228  0.4401  1.6011 -1.5566
   9623SM   C3S12952   4.193   7.201  13.227 -0.1990 -0.1574 -0.2234
   9623SM   H3S12953   4.115   7.131  13.192 -0.4407 -0.3364  0.6554
   9623SM    O312954   4.178   7.320  13.141  0.0881 -0.3060 -0.7395
   9623SM   HO312955   4.251   7.311  13.079  0.5122 -0.3612 -0.2454
   9623SM   C4S12956   4.170   7.224  13.373 -0.2337  0.6110  0.1168
   9623SM   H4S12957   4.259   7.238  13.436  0.0172  2.1216 -0.5150
   9623SM   C5S12958   4.064   7.169  13.436 -0.4932 -0.5277  0.1446
   9623SM   H5S12959   3.983   7.114  13.387  0.4891 -0.8058 -1.2416
   9623SM   C6S12960   4.049   7.155  13.584 -0.2941  0.2749  0.1904
   9623SM   H6S12961   4.144   7.186  13.631 -0.6632  0.2875  0.9431
   9623SM   H6T12962   4.044   7.044  13.596  0.2146  0.0025 -1.8306
   9623SM   C7S12963   3.929   7.242  13.633 -0.4385  0.2509 -0.6464
   9623SM   H7S12964   3.844   7.239  13.560 -1.8568 -0.4289  0.9728
   9623SM   H7T12965   3.961   7.348  13.627 -0.3459  0.2650  0.0324
   9623SM   C8S12966   3.872   7.201  13.766 -0.2360 -0.3735  0.0140
   9623SM   H8S12967   3.914   7.103  13.795  2.2878  0.0512 -1.8669
   9623SM   H8T12968   3.761   7.201  13.769 -0.3736  2.7805 -1.2515
   9623SM   C9S12969   3.914   7.310  13.873 -0.0716 -0.0223  0.1108
   9623SM   H9S12970   3.854   7.402  13.861  0.1760 -0.0154 -1.2252
   9623SM   H9T12971   4.022   7.337  13.874 -0.2289  0.6125  0.0550
   9623SM  C10S12972   3.891   7.275  14.022 -0.4172  0.0035 -0.5271
   9623SM  H10S12973   3.941   7.178  14.043 -0.9515  0.3249  2.6846
   9623SM  H10T12974   3.782   7.258  14.033 -0.3953 -0.6458 -1.1905
   9623SM  C11S12975   3.948   7.379  14.117 -0.1423  0.1212 -0.8430
   9623SM  H11S12976   3.867   7.455  14.108 -0.8835 -0.7378 -1.5965
   9623SM  H11T12977   4.047   7.413  14.079  1.1015 -1.9147  0.3857
   9623SM  C12S12978   3.962   7.340  14.272 -0.6096  0.4219 -0.1774
   9623SM  H12S12979   3.998   7.424  14.335 -1.2206  0.8849 -0.4345
   9623SM  H12T12980   4.039   7.261  14.286 -0.1312  0.7795 -0.7513
   9623SM  C13S12981   3.825   7.292  14.333  0.4425  0.0953  0.5885
   9623SM  H13S12982   3.797   7.204  14.272 -2.7334  1.7724 -0.6362
   9623SM  H13T12983   3.749   7.370  14.309 -0.4987 -0.4463  1.7268
   9623SM  C14S12984   3.835   7.241  14.475 -0.2475  0.4377  0.1857
   9623SM  H14S12985   3.844   7.330  14.542  0.3505  3.4384 -3.5453
   9623SM  H14T12986   3.919   7.173  14.499  0.0114  1.1402  1.3537
   9623SM  C15S12987   3.703   7.171  14.524  0.0259 -1.1525  0.4423
   9623SM  H15S12988   3.717   7.125  14.624 -2.7517  1.7868  2.3733
   9623SM  H15T12989   3.687   7.079  14.463 -0.7040  0.1590 -1.4536
   9623SM  C16S12990   3.580   7.266  14.518 -0.0375  0.6461 -0.2375
   9623SM  H16S12991   3.575   7.319  14.420 -2.9131  0.2035 -0.4019
   9623SM  H16T12992   3.591   7.343  14.597  0.0062 -0.1671  0.5665
   9623SM  C17S12993   3.450   7.197  14.547  0.2577  0.2582  0.1282
   9623SM  H17S12994   3.455   7.179  14.656  1.4454  1.8546  0.3672
   9623SM  H17T12995   3.474   7.103  14.491  2.0168  0.0530  1.1568
   9623SM  C18S12996   3.326   7.265  14.496 -0.8527  0.2812 -0.1001
   9623SM  H18S12997   3.350   7.302  14.394  0.2315 -1.3429 -0.4876
   9623SM  H18T12998   3.297   7.352  14.559 -2.5966 -0.3998  0.1023
   9623SM  H18U12999   3.241   7.194  14.481 -0.2832 -0.2603 -0.8625
   9623SM   C1F13000   4.448   6.922  13.283  0.3730 -0.3743  0.4068
   9623SM    OF13001   4.557   6.963  13.249 -0.7906 -0.6242  0.2944
   9623SM   C2F13002   4.433   6.791  13.354  0.4044 -0.3689 -0.2343
   9623SM   H2F13003   4.532   6.744  13.341  0.7656  0.1995  0.4016
   9623SM   H2G13004   4.365   6.722  13.299  1.3968 -1.7263  0.2255
   9623SM   C3F13005   4.401   6.808  13.505 -0.0408  0.3084  0.7090
   9623SM   H3F13006   4.308   6.867  13.517  0.4394  1.7738 -1.9010
   9623SM   H3G13007   4.485   6.861  13.554  0.2236 -0.3468  0.9761
   9623SM   C4F13008   4.368   6.670  13.575 -0.3708 -0.2895  0.3737
   9623SM   H4F13009   4.465   6.617  13.566  0.7421  1.4197  1.6345
   9623SM   H4G13010   4.290   6.616  13.517 -0.5950 -2.3200  2.4586
   9623SM   C5F13011   4.311   6.686  13.718  0.1540  0.2743  0.2516
   9623SM   H5F13012   4.231   6.763  13.710  0.2091  0.6205  2.3591
   9623SM   H5G13013   4.392   6.723  13.785  1.4847 -0.0008 -1.1728
   9623SM   C6F13014   4.251   6.555  13.767  0.0943  0.2298 -0.2579
   9623SM   H6F13015   4.335   6.482  13.770  2.5284  2.7856 -1.3858
   9623SM   H6G13016   4.185   6.524  13.683  1.2213  2.1641 -1.9428
   9623SM   C7F13017   4.171   6.547  13.903 -0.3710  0.2373  0.0519
   9623SM   H7F13018   4.246   6.584  13.976  1.9917 -2.1628 -0.9937
   9623SM   H7G13019   4.154   6.442  13.936 -3.3789  0.5047 -0.3498
   9623SM   C8F13020   4.040   6.618  13.905 -0.2157 -0.0796 -0.6185
   9623SM   H8F13021   3.966   6.574  13.834  0.6583 -0.2233 -1.4750
   9623SM   H8G13022   4.068   6.721  13.874  0.3693  0.6844  2.2199
   9623SM   C9F13023   3.969   6.626  14.048 -0.0752 -0.3186 -0.7527
   9623SM   H9F13024   3.860   6.622  14.030 -0.2284  1.2187 -0.2580
   9623SM   H9G13025   3.980   6.726  14.094 -0.1617 -0.2548 -0.8698
   9623SM  C10F13026   3.998   6.515  14.154 -0.0219  0.6789  0.1437
   9623SM  H10F13027   4.105   6.499  14.179 -0.6803 -2.5487  1.3912
   9623SM  H10G13028   3.951   6.419  14.125 -0.5702  0.8785  0.3581
   9623SM  C11F13029   3.920   6.553  14.275 -0.2596 -0.1868 -0.3194
   9623SM  H11F13030   3.812   6.560  14.249 -0.6459 -2.7172  0.3590
   9623SM  H11G13031   3.955   6.654  14.307  0.4817 -0.2189 -1.0113
   9623SM  C12F13032   3.949   6.468  14.399  0.2770 -0.3630  0.1176
   9623SM  H12F13033   4.059   6.484  14.408  0.6224 -0.2050 -3.2296
   9623SM  H12G13034   3.936   6.358  14.386 -1.8282 -0.1567  0.0802
   9623SM  C13F13035   3.875   6.511  14.526 -0.2212  0.2136 -0.2696
   9623SM  H13F13036   3.896   6.429  14.598  1.3725  0.4115 -0.4686
   9623SM  H13G13037   3.765   6.508  14.512 -0.1729 -1.6181 -0.5886
   9623SM  C14F13038   3.925   6.649  14.583  0.9466  0.7625  0.3310
   9623SM  H14F13039   3.912   6.722  14.500  0.2595  0.2774  0.0047
   9623SM  H14G13040   4.035   6.641  14.602  1.0406 -0.7584 -0.6964
   9623SM  C15F13041   3.845   6.690  14.706  0.8122 -0.0087 -0.5954
   9623SM  H15F13042   3.897   6.625  14.779 -2.2990 -2.8942 -0.6766
   9623SM  H15G13043   3.738   6.661  14.689  0.4923  0.8503 -0.0903
   9623SM  C16F13044   3.851   6.831  14.764  0.6683 -0.4679  0.3084
   9623SM  H16F13045   3.800   6.831  14.862 -0.3844 -0.0876 -0.2191
   9623SM  H16G13046   3.793   6.890  14.690  1.9653 -1.0766 -1.2718
   9623SM  C17F13047   3.995   6.879  14.778 -0.5329  0.6178 -0.4482
   9623SM  H17F13048   4.039   6.883  14.676  0.0564 -2.6305 -0.4416
   9623SM  H17G13049   4.064   6.814  14.836 -0.9671  0.9012  0.3979
   9623SM  C18F13050   4.007   7.018  14.837  0.1207  0.2185 -0.1428
   9623SM  H18F13051   3.960   7.013  14.937  0.7601 -1.9102  0.0990
   9623SM  H18G13052   3.951   7.094  14.778  0.2880 -0.1398 -0.7786
   9623SM  C19F13053   4.154   7.063  14.855 -0.1196 -0.1812 -0.3425
   9623SM  H19F13054   4.208   7.063  14.758 -0.7067  1.4000 -0.7081
   9623SM  H19G13055   4.209   6.989  14.916  1.5559 -0.1216 -1.7095
   9623SM  C20F13056   4.174   7.200  14.922  0.4190 -0.0039 -0.1342
   9623SM  H20F13057   4.119   7.181  15.017  0.4943 -1.9688 -0.4410
   9623SM  H20G13058   4.113   7.280  14.876 -0.2927  0.8011  2.0951
   9623SM  C21F13059   4.313   7.248  14.954 -0.4053 -0.3747  0.5653
   9623SM  H21F13060   4.346   7.323  14.879 -0.4278 -1.5773 -0.6850
   9623SM  H21G13061   4.384   7.162  14.949  1.9614  1.5274 -1.3079
   9623SM  C22F13062   4.326   7.309  15.093 -0.1401 -0.1270  0.2343
   9623SM  H22F13063   4.302   7.225  15.161 -0.0969 -0.9058 -0.6908
   9623SM  H22G13064   4.250   7.390  15.101  0.0638  0.1926 -0.8167
   9623SM  C23F13065   4.465   7.373  15.114  0.0420  0.5410  0.4047
   9623SM  H23F13066   4.479   7.460  15.047 -1.2587  1.2085  0.9489
   9623SM  H23G13067   4.542   7.296  15.094 -0.8012  0.0755 -1.2963
   9623SM  H23H13068   4.476   7.395  15.222  0.3003 -2.1429  1.0029
   9723SM     N13069   5.528   1.208  12.820  0.0005 -0.5475 -0.9140
   9723SM   C1513070   5.498   1.202  12.676  0.2042  0.3944 -0.1041
   9723SM  H15A13071   5.587   1.211  12.616  0.2368  1.5508  0.0997
   9723SM  H15B13072   5.426   1.274  12.639  0.4245  0.9943  0.6198
   9723SM  H15C13073   5.455   1.107  12.648 -1.3952  0.7926  0.8394
   9723SM   C1413074   5.585   1.347  12.857 -0.1518 -0.2524 -0.0577
   9723SM  H14A13075   5.518   1.428  12.830 -0.7047 -1.0410 -1.1147
   9723SM  H14B13076   5.688   1.355  12.828 -0.0624  2.2253  0.6864
   9723SM  H14C13077   5.596   1.360  12.964  1.2001 -0.4233 -0.1699
   9723SM   C1313078   5.402   1.186  12.894 -0.2574  0.7860  0.0020
   9723SM  H13A13079   5.437   1.171  12.995 -1.2266 -3.3708 -0.1169
   9723SM  H13B13080   5.356   1.091  12.873  0.3371  0.7049 -1.0182
   9723SM  H13C13081   5.319   1.253  12.883 -0.3714  0.5125 -0.8720
   9723SM   C1213082   5.631   1.111  12.860 -0.1294 -0.2799  0.0662
   9723SM  H12A13083   5.668   1.135  12.958  1.2219  0.5493 -0.6132
   9723SM  H12B13084   5.712   1.112  12.788 -0.3648 -1.7140 -0.2484
   9723SM   C1113085   5.598   0.958  12.849  0.5723  0.2725  0.6125
   9723SM  H11A13086   5.571   0.935  12.744  0.4257  1.9681  0.2485
   9723SM  H11B13087   5.509   0.930  12.910 -2.7940 -3.8147 -5.1626
   9723SM     P13088   5.823   0.830  12.809 -0.0962  0.1215 -0.1116
   9723SM   O1313089   5.800   0.692  12.757  0.2783  0.4085 -0.3859
   9723SM   O1413090   5.848   0.937  12.710 -0.4233  0.2239 -0.1120
   9723SM   O1113091   5.949   0.821  12.898 -0.1594 -0.4935 -0.1115
   9723SM   O1213092   5.709   0.874  12.906 -0.5228 -0.0680  0.0767
   9723SM   C1S13093   5.985   0.936  12.983  0.1923 -0.4524  0.4115
   9723SM   H1S13094   5.943   1.033  12.948  1.1242 -0.9571 -2.2708
   9723SM   H1T13095   6.094   0.955  12.986 -0.2859  3.4745 -0.8037
   9723SM    NF13096   5.953   1.044  13.205  0.1053  0.3833  0.2703
   9723SM   HNF13097   6.034   1.094  13.236  0.8243 -0.2810 -0.4892
   9723SM   C2S13098   5.970   0.916  13.138  0.3129  0.6920 -0.0960
   9723SM   H2S13099   5.881   0.853  13.162  0.9078 -0.2998 -0.4565
   9723SM   C3S13100   6.093   0.826  13.186 -0.1330 -0.3908  0.2146
   9723SM   H3S13101   6.187   0.873  13.149  0.2595 -1.3930 -0.0982
   9723SM    O313102   6.097   0.698  13.119  0.3766 -0.0443 -0.1320
   9723SM   HO313103   6.077   0.717  13.027 -1.8456 -1.5518 -0.0477
   9723SM   C4S13104   6.092   0.799  13.333  0.0419 -0.3171 -0.1134
   9723SM   H4S13105   5.999   0.761  13.379 -0.3912 -0.5459 -1.1596
   9723SM   C5S13106   6.199   0.850  13.410  0.5448 -0.4579  0.3492
   9723SM   H5S13107   6.283   0.909  13.368  1.3946 -1.2643  0.8878
   9723SM   C6S13108   6.197   0.850  13.559 -0.6675  0.1056 -1.1852
   9723SM   H6S13109   6.292   0.821  13.608 -1.2441  2.2883  1.4334
   9723SM   H6T13110   6.126   0.775  13.599 -0.3445  0.0189 -0.7709
   9723SM   C7S13111   6.164   0.982  13.640  0.6359 -0.1444 -0.2469
   9723SM   H7S13112   6.195   0.950  13.742 -0.0397 -1.4682 -0.4386
   9723SM   H7T13113   6.060   1.016  13.625 -0.1412 -1.4799  1.7462
   9723SM   C8S13114   6.263   1.095  13.613  1.1161 -0.5638 -0.3945
   9723SM   H8S13115   6.229   1.186  13.667  0.8756 -1.1752  0.5133
   9723SM   H8T13116   6.257   1.125  13.506  0.4654 -0.9395 -0.4667
   9723SM   C9S13117   6.409   1.075  13.656  0.1559  0.4317 -0.2148
   9723SM   H9S13118   6.442   0.977  13.617  1.3539  1.2157 -1.2698
   9723SM   H9T13119   6.413   1.069  13.767  0.8007  1.2706 -0.1832
   9723SM  C10S13120   6.495   1.194  13.603 -0.8189 -0.4638 -0.1596
   9723SM  H10S13121   6.451   1.293  13.630  0.8850 -0.2344  2.0915
   9723SM  H10T13122   6.508   1.196  13.493  0.1958  0.3736 -0.0446
   9723SM  C11S13123   6.642   1.195  13.665  0.1141 -0.4974  0.3331
   9723SM  H11S13124   6.626   1.213  13.773  1.5081  1.9857  0.1881
   9723SM  H11T13125   6.698   1.277  13.616  1.0190 -0.9532  0.5864
   9723SM  C12S13126   6.718   1.060  13.643  0.3696  0.2916 -0.2763
   9723SM  H12S13127   6.718   1.039  13.534 -0.6122  0.0590 -0.2448
   9723SM  H12T13128   6.670   0.970  13.688 -0.0675 -1.3739 -3.7597
   9723SM  C13S13129   6.862   1.068  13.694  0.1791  0.3155  0.1926
   9723SM  H13S13130   6.905   0.967  13.677 -0.0193  0.5263 -1.8596
   9723SM  H13T13131   6.852   1.088  13.803  0.2791 -0.4603  0.3475
   9723SM  C14S13132   6.952   1.160  13.616 -0.0985  0.1334  0.6698
   9723SM  H14S13133   6.918   1.266  13.623  3.0943  1.3017  0.1613
   9723SM  H14T13134   6.958   1.131  13.510 -1.9540  1.0098  0.2743
   9723SM  C15S13135   7.099   1.168  13.671 -0.2148 -0.4781 -0.4926
   9723SM  H15S13136   7.136   1.064  13.659  1.9465  0.3095 -1.1711
   9723SM  H15T13137   7.099   1.202  13.777 -0.3893  1.9967 -1.2410
   9723SM  C16S13138   7.190   1.257  13.581  0.5022  0.2876 -0.1516
   9723SM  H16S13139   7.145   1.358  13.580  1.1008  0.5545 -1.1412
   9723SM  H16T13140   7.169   1.227  13.476 -2.3043 -0.9815  0.6772
   9723SM  C17S13141   7.340   1.266  13.610 -0.0720 -0.0146  0.5672
   9723SM  H17S13142   7.398   1.323  13.535 -0.9518 -0.9977 -0.9162
   9723SM  H17T13143   7.377   1.162  13.596 -3.1102 -0.8525 -2.8469
   9723SM  C18S13144   7.372   1.324  13.747  0.1576  0.3237  0.3737
   9723SM  H18S13145   7.327   1.425  13.757  0.2143  0.4447 -0.5293
   9723SM  H18T13146   7.482   1.329  13.763  0.0175 -1.0820  2.2278
   9723SM  H18U13147   7.320   1.264  13.825 -3.4435  1.2588 -1.0874
   9723SM   C1F13148   5.837   1.104  13.220 -0.4619 -0.1596 -0.6479
   9723SM    OF13149   5.731   1.050  13.187 -0.4437 -0.0250  0.2722
   9723SM   C2F13150   5.846   1.242  13.272 -0.4765  0.4755 -0.1035
   9723SM   H2F13151   5.831   1.316  13.190 -0.2776  0.7916  0.1468
   9723SM   H2G13152   5.943   1.267  13.320 -1.6509 -1.7783  3.9271
   9723SM   C3F13153   5.729   1.271  13.372  0.3896 -0.0235  0.3625
   9723SM   H3F13154   5.637   1.244  13.316  0.0923  0.1284  0.7756
   9723SM   H3G13155   5.737   1.377  13.401  0.9913  0.3132 -0.9382
   9723SM   C4F13156   5.718   1.195  13.503 -0.8401 -0.8832 -0.1671
   9723SM   H4F13157   5.814   1.206  13.559 -0.6953  0.7261 -0.6717
   9723SM   H4G13158   5.717   1.085  13.497  1.1204 -1.0010  0.6560
   9723SM   C5F13159   5.595   1.242  13.587 -0.6394  0.5228  0.1836
   9723SM   H5F13160   5.510   1.246  13.515 -0.0289 -2.3404 -0.8173
   9723SM   H5G13161   5.612   1.347  13.620  0.1105  0.2601  0.6622
   9723SM   C6F13162   5.556   1.158  13.709 -0.5753 -0.0003  1.0897
   9723SM   H6F13163   5.569   1.049  13.693 -2.1641 -0.1280  0.4501
   9723SM   H6G13164   5.448   1.170  13.729 -0.6865  0.4861  0.2110
   9723SM   C7F13165   5.643   1.199  13.830  0.6234  0.2313 -0.6605
   9723SM   H7F13166   5.612   1.299  13.865 -1.2237 -0.2829 -0.7166
   9723SM   H7G13167   5.751   1.201  13.805  1.4048  2.4858  2.3408
   9723SM   C8F13168   5.602   1.107  13.940 -0.2747 -0.3403 -0.0423
   9723SM   H8F13169   5.631   1.003  13.914  1.9479  0.4512 -0.9170
   9723SM   H8G13170   5.494   1.126  13.958  0.3154  4.0085 -0.0948
   9723SM   C9F13171   5.678   1.157  14.068 -1.0176  0.1488  0.1688
   9723SM   H9F13172   5.643   1.253  14.111 -1.6230 -0.9500  2.2529
   9723SM   H9G13173   5.784   1.166  14.038 -0.2484 -3.1263  1.4235
   9723SM  C10F13174   5.679   1.049  14.173 -0.2979  1.0962  0.6171
   9723SM  H10F13175   5.724   0.957  14.130 -1.2319  0.2891  1.3217
   9723SM  H10G13176   5.574   1.023  14.198 -0.3747  1.1169  0.3216
   9723SM  C11F13177   5.762   1.087  14.292 -0.3608 -0.2618  0.5243
   9723SM  H11F13178   5.720   1.181  14.333 -1.1766 -0.1417 -0.5426
   9723SM  H11G13179   5.861   1.120  14.252 -1.4796  3.0533  0.2083
   9723SM  C12F13180   5.787   0.987  14.399 -0.6929  0.0192 -0.8064
   9723SM  H12F13181   5.819   0.896  14.343  1.4340  1.3497 -1.8553
   9723SM  H12G13182   5.695   0.974  14.461 -1.0959 -0.7245 -1.5412
   9723SM  C13F13183   5.912   1.027  14.480 -0.4186 -0.3411  0.8503
   9723SM  H13F13184   5.890   1.133  14.505 -0.4102 -0.2105  0.3132
   9723SM  H13G13185   5.999   1.010  14.414 -0.9921 -2.1123  0.4901
   9723SM  C14F13186   5.928   0.952  14.614  0.0777 -0.5917 -0.7491
   9723SM  H14F13187   5.835   0.977  14.669 -2.2664 -0.9877 -4.2099
   9723SM  H14G13188   6.016   0.986  14.672  0.7554  2.3210 -3.2462
   9723SM  C15F13189   5.935   0.801  14.596 -0.1303 -0.0257  0.0841
   9723SM  H15F13190   5.834   0.768  14.566 -0.5542  2.4553 -1.5700
   9723SM  H15G13191   5.960   0.757  14.695  0.1797  2.7628  1.3524
   9723SM  C16F13192   6.048   0.762  14.494  0.1055  0.6412 -0.7871
   9723SM  H16F13193   6.136   0.826  14.519  1.2001 -0.4557 -1.7600
   9723SM  H16G13194   6.027   0.784  14.388 -2.8246 -0.5518 -0.5501
   9723SM  C17F13195   6.100   0.618  14.508 -0.0159 -0.7044  0.5995
   9723SM  H17F13196   6.034   0.543  14.458  0.4976 -0.2785 -0.7518
   9723SM  H17G13197   6.108   0.608  14.619 -0.2450 -2.2792  0.4996
   9723SM  C18F13198   6.245   0.610  14.449  0.4464 -0.5161  0.0811
   9723SM  H18F13199   6.313   0.691  14.483  1.2161 -1.7041  1.5000
   9723SM  H18G13200   6.240   0.620  14.339  0.8490 -1.2903 -0.0149
   9723SM  C19F13201   6.309   0.486  14.497 -0.2916  0.5110 -0.2959
   9723SM  H19F13202   6.244   0.403  14.461  1.3496 -2.4333  2.9077
   9723SM  H19G13203   6.302   0.487  14.608 -1.2880 -1.9257 -0.2727
   9723SM  C20F13204   6.460   0.466  14.443 -0.2412 -0.3116  0.1922
   9723SM  H20F13205   6.509   0.565  14.432 -2.3601  0.8631  0.8296
   9723SM  H20G13206   6.460   0.430  14.338 -1.6018  1.9764 -0.6632
   9723SM  C21F13207   6.524   0.360  14.531 -0.1530  0.6452  0.1929
   9723SM  H21F13208   6.454   0.286  14.574  3.2496 -2.6220  0.6458
   9723SM  H21G13209   6.558   0.415  14.622 -0.7816  1.3794 -0.0016
   9723SM  C22F13210   6.637   0.275  14.470 -0.3905  0.5781 -0.3791
   9723SM  H22F13211   6.605   0.239  14.369  1.8581 -2.3698 -0.1866
   9723SM  H22G13212   6.649   0.183  14.532  2.8381 -0.5447 -2.3791
   9723SM  C23F13213   6.772   0.348  14.475 -0.2890  0.4735  0.3775
   9723SM  H23F13214   6.760   0.451  14.435  0.5560  0.7107  0.7011
   9723SM  H23G13215   6.852   0.285  14.430  0.1780 -0.4681  2.4075
   9723SM  H23H13216   6.792   0.360  14.583 -0.1709 -0.2876  0.4443
   9823SM     N13217   0.640   7.656  12.889  0.1072  0.1810 -0.2849
   9823SM   C1513218   0.671   7.794  12.857 -0.2376  0.0308  0.5448
   9823SM  H15A13219   0.715   7.810  12.760 -1.4732 -0.6695 -0.1689
   9823SM  H15B13220   0.741   7.833  12.929  2.1324  0.0857 -1.6503
   9823SM  H15C13221   0.586   7.861  12.849  1.0231  1.4286 -4.8096
   9823SM   C1413222   0.541   7.663  13.009 -0.2989  0.8614 -0.1820
   9823SM  H14A13223   0.455   7.723  12.982 -1.7143 -0.9450  0.1460
   9823SM  H14B13224   0.590   7.715  13.090 -1.1990 -2.8499  2.9961
   9823SM  H14C13225   0.512   7.563  13.038  2.8130 -0.2997 -0.7044
   9823SM   C1313226   0.563   7.591  12.782 -1.1755  0.0427  0.1924
   9823SM  H13A13227   0.525   7.493  12.809  1.7988 -0.7823  1.9099
   9823SM  H13B13228   0.626   7.584  12.694  1.0094  0.3655  1.6384
   9823SM  H13C13229   0.482   7.651  12.745  0.1054  0.7745 -1.5601
   9823SM   C1213230   0.757   7.570  12.920  0.3793  0.5399  0.2110
   9823SM  H12A13231   0.826   7.624  12.983  1.1225 -0.1931  0.0416
   9823SM  H12B13232   0.810   7.548  12.828 -0.7746  1.2609 -0.6611
   9823SM   C1113233   0.741   7.431  12.977  0.2175  0.9058  0.5092
   9823SM  H11A13234   0.692   7.435  13.077 -2.0724  2.9079 -0.5946
   9823SM  H11B13235   0.842   7.387  12.993  0.0539  0.3472  0.0532
   9823SM     P13236   0.613   7.204  12.939 -0.4452  0.4162  0.3471
   9823SM   O1313237   0.467   7.213  12.927  0.1140 -0.2274  0.4382
   9823SM   O1413238   0.669   7.096  12.856 -0.2442 -0.6012 -0.7349
   9823SM   O1113239   0.639   7.188  13.087  0.0564 -0.8680 -0.3381
   9823SM   O1213240   0.664   7.345  12.888 -0.6129  0.1777  0.3272
   9823SM   C1S13241   0.536   7.191  13.187  0.2444  0.5266  0.3647
   9823SM   H1S13242   0.449   7.128  13.159  0.0194  0.3096  1.5348
   9823SM   H1T13243   0.491   7.292  13.203 -3.6828 -1.0752  0.4502
   9823SM    NF13244   0.476   7.134  13.427  0.4298  0.3154  0.3497
   9823SM   HNF13245   0.479   7.193  13.507  0.1506  0.3157  0.3597
   9823SM   C2S13246   0.585   7.145  13.326 -0.4381  0.4656  0.1803
   9823SM   H2S13247   0.636   7.047  13.315 -0.8416  0.0726  1.6005
   9823SM   C3S13248   0.698   7.234  13.370 -0.7106 -0.4453  0.2207
   9823SM   H3S13249   0.665   7.339  13.387  1.6231  0.6019 -1.2463
   9823SM    O313250   0.812   7.247  13.284  0.5851 -0.9064 -0.9501
   9823SM   HO313251   0.767   7.219  13.204 -2.2944 -0.4062  0.3660
   9823SM   C4S13252   0.745   7.200  13.517  0.0353  0.0031  0.4989
   9823SM   H4S13253   0.688   7.234  13.604  0.4623  0.3665  0.6408
   9823SM   C5S13254   0.848   7.115  13.550  0.8054 -0.8878 -0.1201
   9823SM   H5S13255   0.908   7.072  13.468 -0.2975 -1.6078 -0.5710
   9823SM   C6S13256   0.899   7.070  13.687 -0.3986 -0.5709 -0.1897
   9823SM   H6S13257   1.002   7.102  13.713 -0.3753  0.5569 -1.5748
   9823SM   H6T13258   0.900   6.959  13.689  0.6507 -0.5785 -0.6270
   9823SM   C7S13259   0.809   7.124  13.804 -0.2072 -0.4135 -0.0616
   9823SM   H7S13260   0.704   7.091  13.787 -0.7572  1.4734 -0.6861
   9823SM   H7T13261   0.809   7.235  13.802  2.6489 -0.3363 -1.9679
   9823SM   C8S13262   0.860   7.081  13.945 -0.5844  0.0710  0.3593
   9823SM   H8S13263   0.952   7.138  13.971 -0.2991  0.3555 -1.2016
   9823SM   H8T13264   0.882   6.974  13.925  0.1584  0.3535 -0.3881
   9823SM   C9S13265   0.746   7.072  14.049 -0.4350  0.1652  0.6807
   9823SM   H9S13266   0.665   6.999  14.028  0.8455 -1.6409  1.6261
   9823SM   H9T13267   0.709   7.176  14.058 -1.3834 -0.0318 -0.6756
   9823SM  C10S13268   0.790   7.029  14.196 -0.0285 -0.3910 -0.1047
   9823SM  H10S13269   0.852   6.937  14.190  0.6527 -0.1871  2.7072
   9823SM  H10T13270   0.692   7.008  14.243  0.4621  0.4796  1.3470
   9823SM  C11S13271   0.871   7.128  14.277  0.7418  0.0549  0.2807
   9823SM  H11S13272   0.969   7.145  14.228  0.8588 -0.3497  0.3716
   9823SM  H11T13273   0.886   7.071  14.371  0.4000 -1.2523 -0.4295
   9823SM  C12S13274   0.804   7.260  14.316 -0.0583 -0.3508 -0.1516
   9823SM  H12S13275   0.700   7.230  14.342  0.3734 -2.1237 -0.3946
   9823SM  H12T13276   0.809   7.328  14.228  1.3127 -1.3280 -0.8417
   9823SM  C13S13277   0.865   7.339  14.431 -0.4986 -0.4883 -0.0920
   9823SM  H13S13278   0.873   7.448  14.409  0.6857 -0.4061  0.6496
   9823SM  H13T13279   0.968   7.303  14.450  0.4691  2.0630 -0.1457
   9823SM  C14S13280   0.786   7.316  14.565 -0.5399  0.1655  0.2107
   9823SM  H14S13281   0.796   7.212  14.602  0.8485  0.1612 -0.1011
   9823SM  H14T13282   0.677   7.336  14.558 -0.2701  1.1398 -1.8045
   9823SM  C15S13283   0.853   7.400  14.678 -0.0655  0.0758  0.2413
   9823SM  H15S13284   0.811   7.503  14.683  0.7643  0.3746  2.5614
   9823SM  H15T13285   0.961   7.401  14.653 -0.2327 -1.2910 -0.6369
   9823SM  C16S13286   0.844   7.339  14.820  0.0323 -0.3285 -0.3171
   9823SM  H16S13287   0.900   7.416  14.878 -0.5246  0.9038 -1.3477
   9823SM  H16T13288   0.897   7.243  14.829 -0.6008 -0.5062  3.0039
   9823SM  C17S13289   0.702   7.332  14.879  0.3891  0.0092 -0.0050
   9823SM  H17S13290   0.675   7.231  14.841  4.1638 -1.6371  1.2518
   9823SM  H17T13291   0.628   7.409  14.848  0.3159  0.5681  1.4690
   9823SM  C18S13292   0.698   7.328  15.031 -0.1921 -0.2521  0.1424
   9823SM  H18S13293   0.765   7.252  15.076  0.0880  0.7799  1.5544
   9823SM  H18T13294   0.596   7.303  15.067 -0.3680  1.4317  0.9438
   9823SM  H18U13295   0.731   7.423  15.080  0.9474 -0.6809  0.2505
   9823SM   C1F13296   0.386   7.036  13.426  0.2174  0.8702  0.1772
   9823SM    OF13297   0.388   6.953  13.335  0.6472 -0.6556 -0.6553
   9823SM   C2F13298   0.283   7.038  13.531  0.4139  0.3525 -0.6764
   9823SM   H2F13299   0.198   6.975  13.498 -0.0008  1.5770 -2.0271
   9823SM   H2G13300   0.246   7.141  13.549  1.2268  0.7311 -1.1215
   9823SM   C3F13301   0.323   6.976  13.670  0.5535  0.1050 -0.0468
   9823SM   H3F13302   0.417   7.016  13.713 -0.1812 -0.4993  2.2469
   9823SM   H3G13303   0.331   6.868  13.645 -0.2948  0.3720 -1.6109
   9823SM   C4F13304   0.209   7.008  13.768  0.0281 -0.6325 -0.1107
   9823SM   H4F13305   0.114   6.982  13.716 -0.8198  0.0901  1.0325
   9823SM   H4G13306   0.197   7.114  13.799 -2.4750 -0.1718 -2.2481
   9823SM   C5F13307   0.217   6.927  13.891  0.6894  0.3589 -0.3781
   9823SM   H5F13308   0.217   6.816  13.879 -0.1454  0.2021  0.7655
   9823SM   H5G13309   0.124   6.948  13.949  1.2272  0.3350  0.5118
   9823SM   C6F13310   0.327   6.976  13.991  0.2935 -0.1278  0.3999
   9823SM   H6F13311   0.340   7.085  13.977  2.0532 -0.2825  0.6489
   9823SM   H6G13312   0.425   6.933  13.962 -0.9615 -2.7811 -0.2796
   9823SM   C7F13313   0.294   6.941  14.138 -0.0064 -0.0490  0.7544
   9823SM   H7F13314   0.259   6.836  14.134 -0.4570  0.1230 -2.3547
   9823SM   H7G13315   0.209   6.997  14.181 -0.2521 -0.8761  1.3866
   9823SM   C8F13316   0.413   6.960  14.231 -0.3570 -0.8675  0.5322
   9823SM   H8F13317   0.454   7.061  14.208 -0.5773 -0.5181  1.5991
   9823SM   H8G13318   0.496   6.899  14.192  0.9966  1.9511 -1.3286
   9823SM   C9F13319   0.378   6.929  14.377 -0.3295  0.0761  0.2073
   9823SM   H9F13320   0.379   6.819  14.390  0.0295 -0.1711 -1.6372
   9823SM   H9G13321   0.275   6.958  14.407 -1.7877 -3.6379 -0.6395
   9823SM  C10F13322   0.482   6.987  14.470  0.3998 -0.2285 -0.3025
   9823SM  H10F13323   0.473   7.096  14.455 -0.7201 -0.0951  1.0690
   9823SM  H10G13324   0.582   6.944  14.446  3.0708  4.2681  1.5556
   9823SM  C11F13325   0.461   6.954  14.621  0.2605 -0.1103 -0.1037
   9823SM  H11F13326   0.357   6.981  14.649  0.8090  0.4293  1.5783
   9823SM  H11G13327   0.521   7.015  14.692 -0.9680  2.4990 -1.2212
   9823SM  C12F13328   0.479   6.806  14.651 -0.0631  1.0810  0.4539
   9823SM  H12F13329   0.586   6.779  14.635 -0.6381 -0.4148 -1.1601
   9823SM  H12G13330   0.413   6.747  14.584  0.4335  1.2185 -0.1650
   9823SM  C13F13331   0.427   6.777  14.795 -0.2870  0.5570  0.7031
   9823SM  H13F13332   0.468   6.848  14.870  0.0944 -1.4880  2.5171
   9823SM  H13G13333   0.471   6.682  14.831 -0.8229 -1.1180 -2.6177
   9823SM  C14F13334   0.275   6.776  14.811 -0.4663  0.0789  0.7944
   9823SM  H14F13335   0.236   6.874  14.776 -3.1175 -1.3184 -0.4438
   9823SM  H14G13336   0.255   6.777  14.921 -3.6978  1.1007  0.3180
   9823SM  C15F13337   0.191   6.666  14.744  0.4541  0.2776  0.5127
   9823SM  H15F13338   0.246   6.570  14.754  0.1433  0.0507  0.0854
   9823SM  H15G13339   0.167   6.695  14.640 -0.0430  1.3025  0.8982
   9823SM  C16F13340   0.054   6.650  14.815  0.9695  0.4357 -0.4994
   9823SM  H16F13341  -0.006   6.567  14.775  2.3144 -1.3578  1.0207
   9823SM  H16G13342  -0.007   6.741  14.798 -0.4980 -0.6761 -1.3860
   9823SM  C17F13343   0.061   6.600  14.960  0.5507  0.3954  0.5391
   9823SM  H17F13344   0.072   6.692  15.022 -1.8848  0.0028  1.6672
   9823SM  H17G13345   0.152   6.540  14.979 -0.3777 -2.1937 -2.4092
   9823SM  C18F13346  -0.062   6.521  15.010 -0.0625 -0.5844  0.4996
   9823SM  H18F13347  -0.038   6.477  15.109  0.1166  0.1797  0.8082
   9823SM  H18G13348  -0.072   6.436  14.940  0.3474 -1.5149  1.5550
   9823SM  C19F13349  -0.191   6.607  15.020  0.1931  0.4229 -0.5267
   9823SM  H19F13350  -0.240   6.619  14.921 -1.0657 -1.2085 -0.1494
   9823SM  H19G13351  -0.166   6.702  15.071 -0.4390  0.2418  0.1431
   9823SM  C20F13352  -0.295   6.542  15.122  1.0241  0.0359 -0.3935
   9823SM  H20F13353  -0.245   6.515  15.217  0.2162 -2.6227 -0.6325
   9823SM  H20G13354  -0.334   6.447  15.079  1.0695  0.3979 -1.2630
   9823SM  C21F13355  -0.415   6.634  15.161  0.0299 -0.0598 -0.2092
   9823SM  H21F13356  -0.462   6.679  15.071 -0.3961 -0.2608 -0.0890
   9823SM  H21G13357  -0.386   6.723  15.220 -0.6744  1.0348 -1.4483
   9823SM  C22F13358  -0.524   6.563  15.233  0.6154  0.1726  0.8709
   9823SM  H22F13359  -0.606   6.632  15.262  0.7467  0.9352 -0.4734
   9823SM  H22G13360  -0.491   6.528  15.333 -0.2164 -0.4596  0.9437
   9823SM  C23F13361  -0.599   6.449  15.161  0.2569  0.9868 -0.5298
   9823SM  H23F13362  -0.613   6.467  15.053 -2.5046  1.6252 -0.1505
   9823SM  H23G13363  -0.702   6.436  15.201 -0.0730  2.7716 -0.7245
   9823SM  H23H13364  -0.561   6.345  15.168 -1.6056  0.2589 -0.5803
   9923SM     N13365   0.878   6.801  12.759  0.5924  0.5700  0.0843
   9923SM   C1513366   0.837   6.880  12.636 -0.3603 -0.1375 -0.1090
   9923SM  H15A13367   0.905   6.963  12.619 -0.6506 -0.0085 -0.6553
   9923SM  H15B13368   0.744   6.934  12.647  0.1395  1.7734 -3.8377
   9923SM  H15C13369   0.832   6.815  12.550 -1.9205 -1.3931  0.8896
   9923SM   C1413370   0.770   6.695  12.792  0.2122 -0.8107  0.0736
   9923SM  H14A13371   0.681   6.738  12.835  0.7947  0.5248 -0.0339
   9923SM  H14B13372   0.807   6.632  12.871 -3.0774  0.3754  2.7870
   9923SM  H14C13373   0.742   6.635  12.706  1.7203 -1.6731  0.1442
   9923SM   C1313374   1.010   6.729  12.725  0.0610  0.3630 -0.3402
   9923SM  H13A13375   1.081   6.810  12.710  1.1357 -0.5752 -0.4120
   9923SM  H13B13376   1.006   6.674  12.632  0.1658  2.5942 -1.7630
   9923SM  H13C13377   1.033   6.668  12.810 -0.7328 -1.1247 -1.1442
   9923SM   C1213378   0.894   6.891  12.873 -0.8307 -0.4191 -0.5775
   9923SM  H12A13379   0.917   6.832  12.961  0.5993 -2.6649 -2.3612
   9923SM  H12B13380   0.806   6.951  12.890 -0.8677 -0.0615 -1.9254
   9923SM   C1113381   1.010   6.998  12.862 -0.0406  0.3950  0.3801
   9923SM  H11A13382   0.987   7.089  12.922 -0.4740  2.2441 -2.4342
   9923SM  H11B13383   1.006   7.044  12.762 -0.9290 -1.1460 -0.3299
   9923SM     P13384   1.202   6.918  13.030  0.3502  0.5460  0.2647
   9923SM   O1313385   1.328   6.835  13.025  0.2365 -0.1952  0.4655
   9923SM   O1413386   1.210   7.050  13.096  0.2114 -0.2713  0.2067
   9923SM   O1113387   1.097   6.832  13.104 -0.3349  0.3899 -0.0167
   9923SM   O1213388   1.139   6.941  12.881 -0.3072  0.2307  0.1464
   9923SM   C1S13389   1.130   6.760  13.231  0.2486  0.0214 -0.3181
   9923SM   H1S13390   1.233   6.770  13.273 -0.3474  0.5792  1.0875
   9923SM   H1T13391   1.124   6.651  13.214  0.0295 -0.0810  0.3831
   9923SM    NF13392   1.090   6.744  13.468 -0.3709 -0.0900 -0.0975
   9923SM   HNF13393   1.041   6.666  13.506  0.5988 -0.0445  1.3421
   9923SM   C2S13394   1.033   6.795  13.348 -0.4832 -0.5270  0.0335
   9923SM   H2S13395   1.025   6.906  13.347  0.7510 -0.3892  1.2291
   9923SM   C3S13396   0.888   6.745  13.321  0.0428  0.1110 -0.3497
   9923SM   H3S13397   0.906   6.635  13.322  1.4067  0.1900  3.7481
   9923SM    O313398   0.848   6.771  13.191  0.4556  0.5482  0.3990
   9923SM   HO313399   0.936   6.780  13.156  1.3647  0.4197  2.4942
   9923SM   C4S13400   0.787   6.780  13.433 -0.2387 -0.0715  0.1457
   9923SM   H4S13401   0.781   6.889  13.440 -0.7941  0.0251 -1.4730
   9923SM   C5S13402   0.702   6.705  13.505 -0.0392 -1.0102  0.2072
   9923SM   H5S13403   0.692   6.597  13.486  2.2665 -1.0173 -1.3795
   9923SM   C6S13404   0.604   6.761  13.604 -0.9369  0.6589  0.1773
   9923SM   H6S13405   0.496   6.751  13.580 -0.9717 -1.9045  1.1737
   9923SM   H6T13406   0.621   6.865  13.641 -0.0592  0.3231  0.7491
   9923SM   C7S13407   0.613   6.659  13.718 -0.1919 -0.3344 -1.0080
   9923SM   H7S13408   0.622   6.555  13.682  2.3758 -1.4595  2.3376
   9923SM   H7T13409   0.522   6.660  13.782 -0.1516 -2.6533 -0.8265
   9923SM   C8S13410   0.735   6.687  13.800 -0.0211 -0.8834  0.1739
   9923SM   H8S13411   0.723   6.793  13.832 -0.1074  0.3301 -3.4531
   9923SM   H8T13412   0.829   6.681  13.742  0.5429  2.0431  0.6603
   9923SM   C9S13413   0.748   6.596  13.921  0.0250  0.6393 -0.6667
   9923SM   H9S13414   0.743   6.491  13.883  1.3399  0.0182  0.7883
   9923SM   H9T13415   0.665   6.610  13.993  0.4837 -0.4697  0.1071
   9923SM  C10S13416   0.884   6.621  13.994  0.3181  0.0460  0.6645
   9923SM  H10S13417   0.859   6.691  14.077  0.6657 -1.5895  2.2134
   9923SM  H10T13418   0.958   6.668  13.927 -1.3259 -0.1011 -1.3546
   9923SM  C11S13419   0.944   6.494  14.042 -0.4395 -0.2787 -0.7179
   9923SM  H11S13420   0.867   6.438  14.098 -2.9650  1.4765 -2.2628
   9923SM  H11T13421   1.033   6.514  14.106 -1.3804 -0.0211  0.5370
   9923SM  C12S13422   0.993   6.406  13.920 -0.0008 -0.3519 -0.4336
   9923SM  H12S13423   1.045   6.482  13.857  0.3859 -1.8488 -1.9829
   9923SM  H12T13424   0.896   6.377  13.873  0.4282  3.1776 -4.0894
   9923SM  C13S13425   1.080   6.290  13.952 -0.0861  0.7757  0.1021
   9923SM  H13S13426   1.178   6.331  13.985  0.9809  0.1072 -2.0621
   9923SM  H13T13427   1.104   6.221  13.868 -1.3215  1.3754 -0.7829
   9923SM  C14S13428   1.015   6.199  14.062 -0.0614  0.2720 -0.1502
   9923SM  H14S13429   0.915   6.162  14.031  0.4984 -2.8163  1.2752
   9923SM  H14T13430   0.985   6.265  14.146  1.0084  1.6783 -0.8333
   9923SM  C15S13431   1.098   6.092  14.121 -0.3394  0.1687  0.0797
   9923SM  H15S13432   1.049   6.061  14.216 -0.9731  0.1600 -0.2468
   9923SM  H15T13433   1.197   6.134  14.150  0.0142  0.8987 -2.0238
   9923SM  C16S13434   1.120   5.981  14.022 -0.4704 -0.0186  0.0376
   9923SM  H16S13435   1.211   5.933  14.063 -0.8772 -0.8800 -0.0521
   9923SM  H16T13436   1.151   6.028  13.926 -2.5114  0.4263 -0.4678
   9923SM  C17S13437   1.010   5.869  14.011  0.7570 -0.4739  0.2456
   9923SM  H17S13438   0.919   5.921  13.973  1.3218  0.9162  0.7060
   9923SM  H17T13439   0.980   5.827  14.110 -0.0983  0.9247  0.6125
   9923SM  C18S13440   1.035   5.771  13.903 -0.2413  0.0629  0.0509
   9923SM  H18S13441   1.011   5.805  13.801  2.7191  0.3189 -0.6645
   9923SM  H18T13442   0.995   5.669  13.919  1.3036 -0.5193  0.4565
   9923SM  H18U13443   1.146   5.766  13.902 -0.2231  0.4855 -0.2598
   9923SM   C1F13444   1.206   6.778  13.527  0.0929  0.2443  0.0482
   9923SM    OF13445   1.289   6.858  13.486 -0.1325 -0.5601  0.6107
   9923SM   C2F13446   1.230   6.717  13.660  0.2681 -0.3111 -0.8224
   9923SM   H2F13447   1.339   6.705  13.677 -0.1527 -2.1045  1.1269
   9923SM   H2G13448   1.176   6.621  13.676 -1.2523  0.7207  0.5779
   9923SM   C3F13449   1.192   6.821  13.770  0.0445 -0.0620  0.1129
   9923SM   H3F13450   1.082   6.809  13.772  0.2001 -1.6670  1.0339
   9923SM   H3G13451   1.224   6.922  13.736 -0.0668 -0.4559 -1.2384
   9923SM   C4F13452   1.255   6.797  13.909  0.1253 -0.1635  0.2081
   9923SM   H4F13453   1.364   6.819  13.903  0.3280 -1.4455 -3.7735
   9923SM   H4G13454   1.246   6.689  13.932  0.0481 -0.6831 -2.0464
   9923SM   C5F13455   1.182   6.880  14.022 -0.5394  0.5077 -0.5984
   9923SM   H5F13456   1.090   6.823  14.047 -1.6261  2.2037 -0.5215
   9923SM   H5G13457   1.148   6.977  13.978 -0.1265  0.0235 -2.0512
   9923SM   C6F13458   1.275   6.897  14.147 -0.0364 -0.1250 -0.8428
   9923SM   H6F13459   1.225   6.967  14.216 -2.2629 -3.2951  1.0117
   9923SM   H6G13460   1.373   6.935  14.110  0.5651 -0.4146  0.3979
   9923SM   C7F13461   1.290   6.769  14.234 -0.5038  0.1451 -0.0623
   9923SM   H7F13462   1.386   6.780  14.289 -0.6453 -0.1638  0.2484
   9923SM   H7G13463   1.302   6.687  14.160 -2.8145  0.4832 -0.8964
   9923SM   C8F13464   1.178   6.731  14.340  0.1287 -0.2477 -0.0358
   9923SM   H8F13465   1.080   6.754  14.293 -0.1201 -0.6564  0.2698
   9923SM   H8G13466   1.189   6.794  14.431 -3.1283 -2.1826  1.9243
   9923SM   C9F13467   1.193   6.577  14.381  0.4589  0.2904  0.6704
   9923SM   H9F13468   1.290   6.570  14.435  0.4208  1.0644  0.8544
   9923SM   H9G13469   1.186   6.522  14.285 -2.2660 -0.9581  1.4890
   9923SM  C10F13470   1.078   6.532  14.474  0.3976  0.6301 -0.0686
   9923SM  H10F13471   0.979   6.530  14.424  0.1624  3.0611  0.2173
   9923SM  H10G13472   1.073   6.619  14.542  1.2923  0.7143 -0.0933
   9923SM  C11F13473   1.100   6.410  14.571 -0.2726  0.2544 -0.0427
   9923SM  H11F13474   1.202   6.409  14.615  0.6647 -1.6560 -2.0385
   9923SM  H11G13475   1.108   6.320  14.506  0.6120 -0.4785  1.0216
   9923SM  C12F13476   1.005   6.385  14.690 -0.2169 -0.0258  0.4405
   9923SM  H12F13477   0.974   6.483  14.732 -1.2749  0.3441 -1.1148
   9923SM  H12G13478   1.050   6.325  14.772  1.4965 -1.3317 -1.3720
   9923SM  C13F13479   0.877   6.310  14.636 -0.5139  0.0230  0.1841
   9923SM  H13F13480   0.915   6.206  14.627  1.6639  0.7923 -0.1050
   9923SM  H13G13481   0.850   6.361  14.541  0.3449 -0.8672 -0.5565
   9923SM  C14F13482   0.761   6.331  14.730 -0.2783  0.3532  0.0368
   9923SM  H14F13483   0.753   6.442  14.734 -1.6169  0.3716 -1.6935
   9923SM  H14G13484   0.800   6.295  14.827 -0.2381  2.3812  0.8178
   9923SM  C15F13485   0.633   6.270  14.689 -0.2732  0.0504  0.1455
   9923SM  H15F13486   0.612   6.341  14.606 -0.1906 -1.1194 -0.9109
   9923SM  H15G13487   0.557   6.286  14.769 -1.6141 -0.1934 -1.0546
   9923SM  C16F13488   0.637   6.120  14.652 -0.4585  0.4930 -0.3763
   9923SM  H16F13489   0.701   6.103  14.562 -0.6099 -0.9860 -0.2237
   9923SM  H16G13490   0.539   6.079  14.621 -0.0869 -0.4929 -0.2735
   9923SM  C17F13491   0.674   6.019  14.766  0.3029 -0.1020  0.5894
   9923SM  H17F13492   0.613   6.040  14.856  0.1027 -1.0879  0.6939
   9923SM  H17G13493   0.781   6.040  14.791  0.6197 -2.2793  1.3117
   9923SM  C18F13494   0.679   5.868  14.735 -0.5733  0.2290 -0.3108
   9923SM  H18F13495   0.728   5.822  14.824  0.3669  0.1698 -0.8506
   9923SM  H18G13496   0.742   5.847  14.646 -2.8231 -0.9020 -1.7273
   9923SM  C19F13497   0.535   5.813  14.719 -0.3722 -1.0152  0.3037
   9923SM  H19F13498   0.494   5.868  14.631 -0.8242  1.5070  1.9923
   9923SM  H19G13499   0.486   5.844  14.814 -0.3043  2.8203 -0.7522
   9923SM  C20F13500   0.527   5.667  14.673  0.6742 -0.3113  0.2222
   9923SM  H20F13501   0.596   5.610  14.739 -0.6210 -0.2750  1.6889
   9923SM  H20G13502   0.560   5.659  14.568  0.4739 -2.4342  0.2634
   9923SM  C21F13503   0.386   5.620  14.670  0.4007  0.0799  0.0932
   9923SM  H21F13504   0.347   5.680  14.584 -1.7653 -2.4676 -0.8483
   9923SM  H21G13505   0.334   5.640  14.766  0.1583  0.5437 -0.1273
   9923SM  C22F13506   0.369   5.475  14.625  0.7436 -0.2043  0.3212
   9923SM  H22F13507   0.416   5.404  14.697 -1.0769 -1.4916  0.2910
   9923SM  H22G13508   0.421   5.455  14.529  0.0556  0.5791 -0.2272
   9923SM  C23F13509   0.221   5.442  14.597  0.8894 -0.0544 -0.2941
   9923SM  H23F13510   0.167   5.427  14.692  1.0945 -1.9089 -0.4383
   9923SM  H23G13511   0.212   5.347  14.539 -0.4406 -0.3961  0.4454
   9923SM  H23H13512   0.167   5.522  14.542 -0.0984  0.1931  0.9894
  10023SM     N13513   1.549   7.343  12.782  0.3010  0.3788  0.0831
  10023SM   C1513514   1.518   7.409  12.910 -0.3494  0.6213 -0.0134
  10023SM  H15A13515   1.424   7.463  12.906 -0.1507  1.0389  0.8891
  10023SM  H15B13516   1.593   7.480  12.938 -0.2743 -0.1965  2.0308
  10023SM  H15C13517   1.507   7.341  12.994 -1.3875  1.1456  0.2989
  10023SM   C1413518   1.701   7.337  12.757  0.0244 -0.3968 -0.2041
  10023SM  H14A13519   1.733   7.437  12.731 -3.2659  1.0853  0.9251
  10023SM  H14B13520   1.722   7.271  12.674 -2.3718 -1.7675  0.2043
  10023SM  H14C13521   1.752   7.320  12.851 -2.4898  1.1926  1.5640
  10023SM   C1313522   1.484   7.207  12.800 -0.1038 -0.0285 -0.0235
  10023SM  H13A13523   1.483   7.156  12.705  0.2585 -0.4626  0.2010
  10023SM  H13B13524   1.380   7.222  12.825 -0.2434 -1.0188  0.0312
  10023SM  H13C13525   1.534   7.142  12.871  1.5209 -0.9158 -1.8890
  10023SM   C1213526   1.488   7.428  12.671 -0.4928  0.0370 -0.5113
  10023SM  H12A13527   1.519   7.392  12.574  1.2297  2.5357 -1.0021
  10023SM  H12B13528   1.536   7.525  12.671  2.4079 -1.2561  1.3617
  10023SM   C1113529   1.327   7.442  12.662 -0.1665  0.2637  0.0836
  10023SM  H11A13530   1.291   7.340  12.635  0.2143  0.1169  0.1285
  10023SM  H11B13531   1.300   7.505  12.574 -1.1089 -2.3930 -1.6633
  10023SM     P13532   1.237   7.648  12.793 -0.3992 -0.6447  0.1970
  10023SM   O1313533   1.352   7.712  12.733  0.3412  0.9304  0.0387
  10023SM   O1413534   1.112   7.693  12.734  0.3914  0.2879 -0.1279
  10023SM   O1113535   1.230   7.688  12.950 -0.1780  0.4772 -0.0089
  10023SM   O1213536   1.260   7.489  12.783  0.3135  0.0507  0.5012
  10023SM   C1S13537   1.242   7.592  13.053  0.1767  0.4124 -0.1069
  10023SM   H1S13538   1.348   7.588  13.086  0.0794  0.1466  0.1810
  10023SM   H1T13539   1.213   7.489  13.021  0.1606  0.7469 -1.1970
  10023SM    NF13540   1.217   7.532  13.299 -0.3292 -0.6324 -0.1905
  10023SM   HNF13541   1.152   7.482  13.355  0.8739 -1.6367  0.3662
  10023SM   C2S13542   1.171   7.624  13.193  0.8213 -0.7332 -0.3018
  10023SM   H2S13543   1.209   7.725  13.217  2.0223 -1.2972  0.2379
  10023SM   C3S13544   1.016   7.633  13.165  0.0034 -0.4889  0.4969
  10023SM   H3S13545   0.985   7.535  13.124 -2.1525  0.2498  0.2240
  10023SM    O313546   0.988   7.715  13.051  0.4243  0.1104  0.1467
  10023SM   HO313547   1.068   7.722  12.999 -0.2002  0.1065 -0.8353
  10023SM   C4S13548   0.935   7.669  13.279 -0.4030  0.4854 -0.1938
  10023SM   H4S13549   0.964   7.766  13.321 -0.6930  0.4933 -0.0082
  10023SM   C5S13550   0.830   7.605  13.327  0.4222  0.2993 -0.5295
  10023SM   H5S13551   0.797   7.506  13.292  0.7730  0.1279 -0.3779
  10023SM   C6S13552   0.749   7.649  13.448 -0.3496 -0.0120 -0.6979
  10023SM   H6S13553   0.680   7.568  13.478 -0.4425  0.0812 -0.6611
  10023SM   H6T13554   0.686   7.731  13.409 -1.1123  0.3260  1.1788
  10023SM   C7S13555   0.828   7.702  13.561 -1.1265 -0.2723 -0.1912
  10023SM   H7S13556   0.867   7.803  13.535 -1.1063 -0.4014 -0.6596
  10023SM   H7T13557   0.914   7.635  13.584 -0.8264  0.0163 -0.4639
  10023SM   C8S13558   0.744   7.709  13.693 -0.0361 -0.2973  0.0264
  10023SM   H8S13559   0.705   7.606  13.707  0.3869 -0.2281  1.9524
  10023SM   H8T13560   0.665   7.786  13.690  0.6143  0.3448 -1.7385
  10023SM   C9S13561   0.835   7.735  13.816  0.0179 -0.8237 -0.9298
  10023SM   H9S13562   0.860   7.843  13.817 -0.5783 -0.6786  0.1749
  10023SM   H9T13563   0.934   7.685  13.818  0.7932  0.6792  0.8071
  10023SM  C10S13564   0.775   7.695  13.952  0.3236 -0.1779  0.1629
  10023SM  H10S13565   0.731   7.593  13.942  0.0920  0.0063 -0.7851
  10023SM  H10T13566   0.687   7.762  13.956  1.2588  1.0713  0.3988
  10023SM  C11S13567   0.865   7.699  14.081  1.4321  0.0068 -0.1628
  10023SM  H11S13568   0.952   7.766  14.063  1.1659  1.0421  2.0265
  10023SM  H11T13569   0.899   7.593  14.085 -3.0499 -1.6010  2.0414
  10023SM  C12S13570   0.790   7.747  14.211  0.1396  0.3619  0.4295
  10023SM  H12S13571   0.754   7.846  14.176  1.0270 -0.2991 -2.6160
  10023SM  H12T13572   0.871   7.749  14.288 -1.0229 -1.5765  1.7671
  10023SM  C13S13573   0.678   7.654  14.250 -0.2154 -0.4246  0.4585
  10023SM  H13S13574   0.719   7.554  14.222  2.2516  0.2032  1.5680
  10023SM  H13T13575   0.586   7.673  14.192  0.0827 -2.0220 -0.6140
  10023SM  C14S13576   0.642   7.661  14.396 -0.8625  0.0118  0.2410
  10023SM  H14S13577   0.738   7.653  14.451 -1.6526 -0.7842  1.5609
  10023SM  H14T13578   0.582   7.572  14.427  1.2594 -0.4757  3.5470
  10023SM  C15S13579   0.577   7.788  14.433  0.0648  0.4497  0.2112
  10023SM  H15S13580   0.470   7.771  14.407  0.1664  0.7264 -0.4259
  10023SM  H15T13581   0.619   7.872  14.373  1.1673 -1.1481 -1.3573
  10023SM  C16S13582   0.578   7.835  14.583 -0.0731  0.2480 -0.4837
  10023SM  H16S13583   0.523   7.931  14.582  3.0872  2.2590 -2.5753
  10023SM  H16T13584   0.685   7.843  14.611 -0.0316 -1.6496 -0.0112
  10023SM  C17S13585   0.499   7.749  14.680 -0.0528 -0.1522 -0.0441
  10023SM  H17S13586   0.579   7.703  14.741 -0.7500 -1.0867  0.1836
  10023SM  H17T13587   0.452   7.656  14.641  2.6154 -1.5457 -0.1095
  10023SM  C18S13588   0.393   7.826  14.768 -0.1288  0.3261  0.3402
  10023SM  H18S13589   0.340   7.750  14.828  0.9419 -0.1593  0.7057
  10023SM  H18T13590   0.333   7.884  14.694  0.5011 -1.2558 -1.5030
  10023SM  H18U13591   0.440   7.893  14.844 -0.0775  1.0623 -0.3201
  10023SM   C1F13592   1.345   7.524  13.346 -0.1631 -0.2640 -0.0929
  10023SM    OF13593   1.434   7.607  13.322  0.1135 -0.3394  0.0375
  10023SM   C2F13594   1.377   7.418  13.435 -0.6705 -0.3032  0.2034
  10023SM   H2F13595   1.476   7.379  13.400 -0.4120  1.9933 -1.9649
  10023SM   H2G13596   1.320   7.324  13.417 -2.1511  0.1290  2.3409
  10023SM   C3F13597   1.384   7.462  13.586 -1.1049 -0.4503 -0.0316
  10023SM   H3F13598   1.276   7.469  13.609 -1.0429  0.2933  0.0441
  10023SM   H3G13599   1.434   7.558  13.607  1.0631 -1.3425 -0.7930
  10023SM   C4F13600   1.460   7.362  13.673 -0.0916 -0.1489 -0.1114
  10023SM   H4F13601   1.563   7.362  13.632 -1.2349  0.1695 -3.3018
  10023SM   H4G13602   1.434   7.256  13.651 -0.2231  0.0056 -0.7415
  10023SM   C5F13603   1.457   7.389  13.828 -0.2769 -0.3192 -0.5509
  10023SM   H5F13604   1.354   7.373  13.867  1.1415 -1.1869  3.3013
  10023SM   H5G13605   1.474   7.498  13.845  0.1338 -0.2472 -1.3932
  10023SM   C6F13606   1.556   7.321  13.922 -0.0206 -0.6050  1.3181
  10023SM   H6F13607   1.568   7.398  14.001 -3.2034  2.2527 -0.6443
  10023SM   H6G13608   1.656   7.312  13.874  0.7419  2.1697  2.1718
  10023SM   C7F13609   1.510   7.197  13.992  0.3290 -0.1298  0.3483
  10023SM   H7F13610   1.468   7.123  13.921  2.2452 -1.1947  0.2557
  10023SM   H7G13611   1.427   7.221  14.062  0.9419  1.4251  0.5677
  10023SM   C8F13612   1.634   7.131  14.052  0.0510 -0.0411 -0.0674
  10023SM   H8F13613   1.724   7.196  14.051 -1.5706  2.3295  0.1959
  10023SM   H8G13614   1.656   7.033  14.004 -0.7943 -0.1285 -0.2887
  10023SM   C9F13615   1.614   7.106  14.206 -0.1968 -0.0255 -0.0009
  10023SM   H9F13616   1.524   7.043  14.223  0.1915 -0.2105  1.5408
  10023SM   H9G13617   1.585   7.204  14.252 -1.4952  0.3174 -1.4410
  10023SM  C10F13618   1.737   7.052  14.273  0.1920 -0.0243 -0.1672
  10023SM  H10F13619   1.816   7.130  14.281 -1.3308  1.4480  1.1564
  10023SM  H10G13620   1.770   6.964  14.214  1.6827  0.8923 -0.7726
  10023SM  C11F13621   1.716   7.022  14.422 -0.3235 -0.0982  0.2828
  10023SM  H11F13622   1.634   6.949  14.435 -0.2993 -0.6977 -2.3236
  10023SM  H11G13623   1.712   7.121  14.472  1.3590  0.1883 -0.0861
  10023SM  C12F13624   1.829   6.945  14.482  0.2293  0.3547 -0.2266
  10023SM  H12F13625   1.921   7.008  14.487  0.4397  0.0303 -0.0182
  10023SM  H12G13626   1.846   6.854  14.421 -1.5232  1.6404 -2.8219
  10023SM  C13F13627   1.801   6.907  14.629 -0.2137  0.4329 -0.1312
  10023SM  H13F13628   1.890   6.853  14.667  0.3517 -0.2779 -2.3275
  10023SM  H13G13629   1.715   6.837  14.635  1.2049 -1.4688 -1.2563
  10023SM  C14F13630   1.778   7.026  14.718  0.2344  0.4290 -0.4694
  10023SM  H14F13631   1.683   7.076  14.691  0.4576  1.0751 -0.0936
  10023SM  H14G13632   1.861   7.100  14.714  0.1885  0.5785  0.8516
  10023SM  C15F13633   1.778   6.982  14.863 -0.0986  0.1624 -0.2427
  10023SM  H15F13634   1.869   6.926  14.896  0.2428  0.8581  0.0045
  10023SM  H15G13635   1.690   6.917  14.882 -2.5959  3.0737 -1.1551
  10023SM  C16F13636   1.759   7.102  14.957 -0.4828  0.3885 -0.0071
  10023SM  H16F13637   1.666   7.151  14.920 -0.1893  0.3050 -0.8956
  10023SM  H16G13638   1.843   7.176  14.952 -0.1855 -0.0076 -1.3052
  10023SM  C17F13639   1.718   7.053  15.101  0.5342 -0.2804  0.0114
  10023SM  H17F13640   1.812   7.008  15.139  0.7853  1.6142  1.8414
  10023SM  H17G13641   1.635   6.980  15.100 -0.6001  0.9671 -1.5913
  10023SM  C18F13642   1.678   7.172  15.189  0.1993 -0.3728 -0.2062
  10023SM  H18F13643   1.578   7.210  15.159 -2.2726 -4.0377  2.5235
  10023SM  H18G13644   1.762   7.245  15.187 -0.1612  0.0567  0.0887
  10023SM  C19F13645   1.667   7.127  15.336  0.3687 -0.3964  0.6958
  10023SM  H19F13646   1.589   7.049  15.348 -0.2646  0.1210  0.0584
  10023SM  H19G13647   1.629   7.214  15.394  0.1406  0.1484 -0.2457
  10023SM  C20F13648   1.802   7.093  15.409  0.5803 -0.7538  0.1112
  10023SM  H20F13649   1.875   7.176  15.400 -1.0020  0.8514  1.3729
  10023SM  H20G13650   1.850   7.002  15.366 -0.0457 -1.1459  0.2272
  10023SM  C21F13651   1.775   7.064  15.558 -0.0553  0.2825  0.4902
  10023SM  H21F13652   1.866   7.012  15.595 -0.4265 -1.5600 -1.0037
  10023SM  H21G13653   1.692   6.990  15.555 -0.4495  0.7583 -0.5313
  10023SM  C22F13654   1.718   7.177  15.635 -1.1372 -0.5709 -0.0114
  10023SM  H22F13655   1.619   7.202  15.592 -0.5925 -1.4458 -1.9151
  10023SM  H22G13656   1.793   7.259  15.630  0.6044 -1.9884  1.5449
  10023SM  C23F13657   1.712   7.149  15.787 -0.4062 -0.7596 -0.1667
  10023SM  H23F13658   1.661   7.060  15.830  1.1183 -0.7174  1.9135
  10023SM  H23G13659   1.656   7.228  15.842 -2.4315 -3.8630  2.6362
  10023SM  H23H13660   1.816   7.146  15.825  0.0462  0.6591 -1.2025
  101CHL1    C313661   5.824   4.626  16.596  0.1197  0.3046  0.3459
  101CHL1    H313662   5.732   4.605  16.538  0.3553 -2.0557  0.7091
  101CHL1    O313663   5.785   4.606  16.733  0.0439  0.0550  0.6798
  101CHL1   H3'13664   5.715   4.671  16.739 -0.7967 -0.5718 -1.3476
  101CHL1    C413665   5.918   4.519  16.557 -0.0415  0.5346 -0.4341
  101CHL1   H4A13666   5.997   4.515  16.635  0.3279 -2.6614 -0.8118
  101CHL1   H4B13667   5.875   4.416  16.559  1.1904  0.0009 -0.2763
  101CHL1    C513668   5.991   4.537  16.429 -0.3072 -0.3114  0.2226
  101CHL1    C613669   5.986   4.436  16.337 -0.3496 -0.6027 -0.5532
  101CHL1    H613670   5.931   4.342  16.353  0.3684 -0.8111  0.9259
  101CHL1    C713671   6.062   4.450  16.208  0.0506 -0.1560 -0.0426
  101CHL1   H7A13672   6.113   4.353  16.189 -1.2512 -0.7523 -0.6102
  101CHL1   H7B13673   5.991   4.459  16.123  1.0948 -2.0326 -1.1777
  101CHL1    C813674   6.163   4.570  16.200  1.0462  0.2789 -0.1131
  101CHL1    H813675   6.259   4.542  16.250  1.8016  0.4045 -1.4430
  101CHL1   C1413676   6.195   4.600  16.054  0.6136 -0.0884 -0.2877
  101CHL1   H1413677   6.100   4.632  16.005  0.7427  1.2533  0.3038
  101CHL1   C1513678   6.249   4.490  15.963  0.3935  0.2454  0.1181
  101CHL1  H15A13679   6.330   4.425  16.003  1.6534  2.2379  0.9873
  101CHL1  H15B13680   6.159   4.430  15.938  0.1743  0.6191 -0.0073
  101CHL1   C1613681   6.290   4.564  15.839 -0.2267 -0.1068  0.4686
  101CHL1  H16A13682   6.378   4.508  15.801 -0.6885  0.7344 -2.0248
  101CHL1  H16B13683   6.225   4.571  15.749  1.6818 -0.8194 -1.0305
  101CHL1   C1713684   6.317   4.716  15.885  0.1433 -0.2526  0.3993
  101CHL1   H1713685   6.226   4.775  15.859  0.4438  0.9547  1.9429
  101CHL1   C1313686   6.298   4.709  16.039 -0.2559 -0.2958 -0.1894
  101CHL1   C1813687   6.431   4.661  16.103 -0.2975  0.2126 -0.2426
  101CHL1  H18A13688   6.501   4.747  16.095  0.8261 -0.7420 -1.0083
  101CHL1  H18B13689   6.442   4.626  16.208  0.9382  1.0563 -0.0710
  101CHL1  H18C13690   6.476   4.575  16.048  1.1640 -0.9385  2.5672
  101CHL1   C1213691   6.234   4.842  16.097 -0.0461 -0.1867 -0.0585
  101CHL1  H12A13692   6.312   4.922  16.094 -2.1920  2.0889  1.2019
  101CHL1  H12B13693   6.150   4.879  16.036 -0.2589  1.9446  1.4287
  101CHL1   C1113694   6.189   4.827  16.246  0.1405  0.1187  0.4914
  101CHL1  H11A13695   6.283   4.807  16.302 -0.4419 -0.3752  1.3067
  101CHL1  H11B13696   6.135   4.918  16.280  1.4604  1.9566 -1.9372
  101CHL1    C913697   6.101   4.700  16.264  0.7770  0.4832  0.4285
  101CHL1    H913698   6.013   4.719  16.199  0.3512 -2.3072  0.0695
  101CHL1   C1013699   6.046   4.677  16.404 -0.1349 -0.4221 -0.6048
  101CHL1   C1913700   6.177   4.685  16.491 -0.2126  0.2149  0.2540
  101CHL1  H19A13701   6.211   4.791  16.489  1.5563 -0.2976  1.1597
  101CHL1  H19B13702   6.162   4.658  16.597 -2.5877  0.3593  0.0186
  101CHL1  H19C13703   6.249   4.611  16.449 -2.6034 -1.3689 -1.3023
  101CHL1    C113704   5.937   4.787  16.435 -0.2527 -0.1640 -0.0901
  101CHL1   H1A13705   5.984   4.888  16.424  2.2842 -1.3131 -0.6615
  101CHL1   H1B13706   5.858   4.763  16.362  1.6585 -2.7907 -1.4770
  101CHL1    C213707   5.874   4.768  16.575 -0.3843  0.5144  0.1686
  101CHL1   H2A13708   5.796   4.844  16.594 -0.2778  0.7433 -0.3055
  101CHL1   H2B13709   5.948   4.790  16.655 -1.4693  0.9578  1.0725
  101CHL1   C2013710   6.440   4.782  15.827 -0.7495  0.1259 -1.1050
  101CHL1   H2013711   6.531   4.729  15.861 -2.0657 -0.9526  0.9295
  101CHL1   C2113712   6.447   4.935  15.865  0.0636  0.6328 -0.2744
  101CHL1  H21A13713   6.529   4.989  15.813 -2.5329  3.4953 -1.7175
  101CHL1  H21B13714   6.476   4.945  15.972  1.0186 -0.5764 -0.3959
  101CHL1  H21C13715   6.348   4.981  15.842 -2.1458 -2.4881  1.9561
  101CHL1   C2213716   6.464   4.762  15.675  0.3907  0.1142  0.1085
  101CHL1  H22A13717   6.554   4.821  15.647  1.0819 -0.4576  1.0466
  101CHL1  H22B13718   6.489   4.656  15.653  0.8820  0.2461  0.0180
  101CHL1   C2313719   6.348   4.808  15.589  0.0378  0.2720  0.6761
  101CHL1  H23A13720   6.258   4.742  15.590  0.5434 -0.4244  0.9789
  101CHL1  H23B13721   6.315   4.902  15.638 -1.6504 -0.3147  0.7392
  101CHL1   C2413722   6.384   4.830  15.440 -0.2765  0.3874 -0.7686
  101CHL1  H24A13723   6.489   4.867  15.448  0.4086 -1.6898  0.4662
  101CHL1  H24B13724   6.386   4.731  15.391  0.0807 -0.0078  0.0198
  101CHL1   C2513725   6.288   4.922  15.359  0.2364 -0.1454 -0.7893
  101CHL1   H2513726   6.197   4.859  15.350 -0.3548  0.4036  0.9402
  101CHL1   C2613727   6.269   5.053  15.426 -1.9149 -0.8903  0.1808
  101CHL1  H26A13728   6.372   5.077  15.456 -1.7779 -1.6474  0.3534
  101CHL1  H26B13729   6.236   5.135  15.358  1.5042  0.5271  0.0678
  101CHL1  H26C13730   6.202   5.038  15.514 -3.3520  0.6746 -0.5980
  101CHL1   C2713731   6.343   4.933  15.214 -0.0494  0.1047  0.2201
  101CHL1  H27A13732   6.267   4.974  15.144  1.0848 -0.6187 -1.5221
  101CHL1  H27B13733   6.440   4.989  15.211  1.0436 -1.7003  0.5391
  101CHL1  H27C13734   6.376   4.834  15.176 -1.2381  0.0253 -0.6610
  102CHL1    C313735   3.955   4.698  16.381  0.7378 -0.0850 -0.1514
  102CHL1    H313736   3.881   4.778  16.402  0.2998 -0.4656 -0.2333
  102CHL1    O313737   4.044   4.687  16.491 -0.3558  0.6632 -0.1122
  102CHL1   H3'13738   4.107   4.759  16.481 -0.6901  0.9982  0.1459
  102CHL1    C413739   3.876   4.567  16.383 -0.4773  0.1709  0.1020
  102CHL1   H4A13740   3.952   4.486  16.384 -1.3560 -0.6699  0.1641
  102CHL1   H4B13741   3.814   4.568  16.475 -1.2152  0.4844 -0.3823
  102CHL1    C513742   3.782   4.557  16.266  0.2923  0.5227  0.1595
  102CHL1    C613743   3.652   4.538  16.275  0.4158  0.6008  0.4541
  102CHL1    H613744   3.614   4.515  16.376  1.4045 -2.5178  0.2214
  102CHL1    C713745   3.554   4.526  16.153 -0.3511 -0.2316  0.6813
  102CHL1   H7A13746   3.488   4.437  16.162  1.3009 -2.0512 -3.0980
  102CHL1   H7B13747   3.489   4.616  16.155 -0.0289  0.0624 -0.9598
  102CHL1    C813748   3.620   4.519  16.013  0.0574 -0.5775  0.3630
  102CHL1    H813749   3.657   4.414  16.004  0.9910 -0.1674 -0.9227
  102CHL1   C1413750   3.529   4.558  15.898 -0.1193  0.2910  0.0724
  102CHL1   H1413751   3.493   4.661  15.920 -1.3983  0.3506 -2.0251
  102CHL1   C1513752   3.399   4.475  15.880  0.0484 -0.5853 -0.0305
  102CHL1  H15A13753   3.420   4.366  15.871  1.3851 -0.2950 -0.6517
  102CHL1  H15B13754   3.319   4.487  15.957  0.4101 -1.0457  0.4230
  102CHL1   C1613755   3.361   4.522  15.738 -0.6057  0.3421  0.2359
  102CHL1  H16A13756   3.328   4.429  15.686  0.4201 -0.5132  1.0772
  102CHL1  H16B13757   3.266   4.580  15.743 -0.2412  1.3236 -2.5383
  102CHL1   C1713758   3.477   4.596  15.667  0.2946 -0.4460 -0.3692
  102CHL1   H1713759   3.449   4.703  15.678 -0.6590 -0.6909 -0.2875
  102CHL1   C1313760   3.599   4.563  15.758 -0.7553  0.2752  0.5359
  102CHL1   C1813761   3.656   4.428  15.720 -0.2528  0.5591 -0.1517
  102CHL1  H18A13762   3.578   4.350  15.707 -1.3040  1.4261  0.6888
  102CHL1  H18B13763   3.715   4.427  15.626 -1.1906  1.0573 -0.7606
  102CHL1  H18C13764   3.723   4.396  15.802 -0.6506  0.0072 -0.0359
  102CHL1   C1213765   3.703   4.662  15.750  0.2455 -0.3088 -0.5696
  102CHL1  H12A13766   3.759   4.675  15.655  0.6901  1.2953 -0.1188
  102CHL1  H12B13767   3.657   4.759  15.777 -0.2821 -0.5025 -0.7772
  102CHL1   C1113768   3.799   4.647  15.874 -0.4971 -0.6142  0.0547
  102CHL1  H11A13769   3.861   4.560  15.844 -3.2591 -3.0918  0.9259
  102CHL1  H11B13770   3.863   4.736  15.862  1.3793 -1.9403 -0.2124
  102CHL1    C913771   3.736   4.624  16.017 -0.1486  0.3567 -0.0515
  102CHL1    H913772   3.689   4.720  16.047  0.0789 -0.1431  2.0800
  102CHL1   C1013773   3.843   4.597  16.127 -0.5258  0.2399 -0.2037
  102CHL1   C1913774   3.917   4.472  16.093  0.1907 -0.0101  0.0741
  102CHL1  H19A13775   3.970   4.495  15.998  1.3907 -0.5265  0.6058
  102CHL1  H19B13776   3.986   4.436  16.172  2.3723 -1.0658 -2.1908
  102CHL1  H19C13777   3.850   4.387  16.069 -1.2747  1.2983 -0.7168
  102CHL1    C113778   3.931   4.732  16.131 -0.2756  0.7482  0.2969
  102CHL1   H1A13779   3.981   4.737  16.032 -0.1921 -2.7158  0.0135
  102CHL1   H1B13780   3.865   4.820  16.127 -0.4878  0.6044  0.6188
  102CHL1    C213781   4.029   4.727  16.252  0.1192 -0.3437  0.3376
  102CHL1   H2A13782   4.069   4.831  16.259 -2.0100  0.6776 -1.2981
  102CHL1   H2B13783   4.111   4.656  16.230  2.2272  1.2460  2.5284
  102CHL1   C2013784   3.484   4.562  15.518  0.1407 -0.0447  0.0690
  102CHL1   H2013785   3.509   4.456  15.496  2.7018  0.9562 -2.4798
  102CHL1   C2113786   3.597   4.646  15.451 -0.1933  0.3752 -0.7607
  102CHL1  H21A13787   3.604   4.743  15.504  1.6652 -0.4739  0.6285
  102CHL1  H21B13788   3.571   4.664  15.344 -2.4637 -0.5385 -0.4373
  102CHL1  H21C13789   3.691   4.590  15.465 -0.0166  1.1020  1.3631
  102CHL1   C2213790   3.357   4.617  15.448  0.4802  0.5096 -0.1799
  102CHL1  H22A13791   3.262   4.604  15.503  1.1146  0.2948  0.8875
  102CHL1  H22B13792   3.374   4.724  15.424  1.7356 -0.0038 -1.7053
  102CHL1   C2313793   3.341   4.538  15.317 -0.1994 -0.3356  0.0155
  102CHL1  H23A13794   3.428   4.555  15.250  0.0119 -0.1795  0.3216
  102CHL1  H23B13795   3.347   4.428  15.336  2.3811 -0.1161  0.9266
  102CHL1   C2413796   3.202   4.571  15.245  0.2543  0.1904 -0.2791
  102CHL1  H24A13797   3.122   4.513  15.297  0.2879  1.2161  0.9752
  102CHL1  H24B13798   3.183   4.680  15.247  0.1551  0.2071 -1.6253
  102CHL1   C2513799   3.185   4.528  15.100 -0.8028  0.1763  0.1478
  102CHL1   H2513800   3.209   4.420  15.091 -0.0298  0.2358  1.2705
  102CHL1   C2613801   3.048   4.543  15.040 -0.6085 -0.3913 -0.3156
  102CHL1  H26A13802   3.035   4.654  15.047  2.8734  0.0411  0.9116
  102CHL1  H26B13803   3.052   4.512  14.933 -1.4808  0.5056 -0.6300
  102CHL1  H26C13804   2.975   4.488  15.103  2.2318 -1.1691  2.5167
  102CHL1   C2713805   3.286   4.612  15.017  0.1712 -0.3191 -0.4218
  102CHL1  H27A13806   3.391   4.598  15.050 -0.4250 -1.4618  1.0875
  102CHL1  H27B13807   3.279   4.579  14.911  2.2282 -1.4517 -0.2488
  102CHL1  H27C13808   3.274   4.722  15.030  1.7573  0.1100 -2.1220
  103CHL1    C313809   3.592   2.986  16.569  0.1860 -0.2690  0.2577
  103CHL1    H313810   3.690   2.956  16.527  0.9324  1.1979  0.8884
  103CHL1    O313811   3.592   2.972  16.709  0.0002  0.3464 -0.2951
  103CHL1   H3'13812   3.500   2.970  16.737 -0.0728  1.0435 -0.4594
  103CHL1    C413813   3.576   3.131  16.533  0.1314  0.3421 -0.4910
  103CHL1   H4A13814   3.483   3.171  16.579 -0.1150  1.2281 -1.7065
  103CHL1   H4B13815   3.659   3.198  16.565 -0.0105 -0.4073  1.5494
  103CHL1    C513816   3.554   3.136  16.380  0.2126  0.0138 -0.3599
  103CHL1    C613817   3.641   3.212  16.305 -0.3482 -0.0389  0.0957
  103CHL1    H613818   3.725   3.261  16.357  0.8237 -1.2020 -0.6404
  103CHL1    C713819   3.623   3.236  16.157  0.2247  0.3277 -0.1022
  103CHL1   H7A13820   3.641   3.342  16.129  0.7246  0.5280  0.9215
  103CHL1   H7B13821   3.694   3.172  16.101 -1.3813  0.1185 -2.0278
  103CHL1    C813822   3.479   3.188  16.110  0.3495 -0.2999 -0.4934
  103CHL1    H813823   3.416   3.272  16.146 -0.7527 -1.8361  1.3229
  103CHL1   C1413824   3.478   3.186  15.958 -0.5170  0.2501  0.2839
  103CHL1   H1413825   3.544   3.102  15.927 -0.1476  1.1977 -1.7171
  103CHL1   C1513826   3.537   3.305  15.883 -0.5237  0.4962 -0.2600
  103CHL1  H15A13827   3.507   3.404  15.922 -0.3453  1.5154 -2.6113
  103CHL1  H15B13828   3.647   3.288  15.882 -0.7317 -1.0723 -1.3547
  103CHL1   C1613829   3.477   3.289  15.739  0.6429 -0.2789 -0.3980
  103CHL1  H16A13830   3.407   3.372  15.717  0.1369 -1.2176 -2.5722
  103CHL1  H16B13831   3.544   3.273  15.652  0.4864 -3.1586 -0.1000
  103CHL1   C1713832   3.377   3.167  15.744  0.3360 -0.5527  0.2876
  103CHL1   H1713833   3.437   3.075  15.728  1.5188  0.2837 -0.2128
  103CHL1   C1313834   3.342   3.148  15.897  0.5595 -0.2628 -0.2736
  103CHL1   C1813835   3.236   3.258  15.935  0.2097  0.2458 -0.1367
  103CHL1  H18A13836   3.144   3.228  15.883  0.9343 -0.0102 -1.3075
  103CHL1  H18B13837   3.212   3.250  16.043 -1.6488  0.6862 -0.4963
  103CHL1  H18C13838   3.262   3.362  15.904  2.6499 -0.8010 -1.9587
  103CHL1   C1213839   3.310   3.001  15.946  0.4873  0.9097  0.5629
  103CHL1  H12A13840   3.211   2.967  15.909  0.0962  0.8935  1.5707
  103CHL1  H12B13841   3.388   2.932  15.909  0.2531  1.1622 -0.4153
  103CHL1   C1113842   3.309   2.992  16.100  0.7195 -0.1665  0.3213
  103CHL1  H11A13843   3.211   3.027  16.140  0.5961 -1.5727  1.3399
  103CHL1  H11B13844   3.301   2.881  16.103 -2.3334 -0.0370  0.2932
  103CHL1    C913845   3.433   3.054  16.167 -0.7660 -0.2244 -0.4460
  103CHL1    H913846   3.518   2.985  16.146  0.9685  1.7887 -0.4189
  103CHL1   C1013847   3.435   3.056  16.322  0.1536  0.2916  0.4609
  103CHL1   C1913848   3.303   3.124  16.373  0.3778 -0.1233  0.4868
  103CHL1  H19A13849   3.302   3.130  16.484  0.4805 -0.9887  0.5462
  103CHL1  H19B13850   3.275   3.216  16.317 -2.9674 -0.1730  1.8477
  103CHL1  H19C13851   3.222   3.055  16.341  0.5226  1.0288 -2.7207
  103CHL1    C113852   3.451   2.912  16.376 -0.5348  0.5795  1.1515
  103CHL1   H1A13853   3.370   2.844  16.342  0.3922  0.3848 -0.8252
  103CHL1   H1B13854   3.544   2.868  16.333 -1.2170  1.5574 -1.4983
  103CHL1    C213855   3.476   2.910  16.525  0.3594  0.0221 -0.1020
  103CHL1   H2A13856   3.495   2.804  16.553 -1.9001 -1.1121 -2.4656
  103CHL1   H2B13857   3.379   2.948  16.564 -0.9613  0.4482 -3.4812
  103CHL1   C2013858   3.270   3.161  15.636  0.0525 -0.2837  0.3139
  103CHL1   H2013859   3.206   3.252  15.649 -0.2790 -0.6266  1.1442
  103CHL1   C2113860   3.180   3.031  15.638  0.1015 -0.1892  0.6294
  103CHL1  H21A13861   3.235   2.934  15.640 -1.6046 -1.1956  1.6302
  103CHL1  H21B13862   3.115   3.021  15.548  1.3489 -0.6732 -0.2545
  103CHL1  H21C13863   3.111   3.032  15.725  0.4641 -0.9442  0.9330
  103CHL1   C2213864   3.328   3.190  15.498 -0.2466 -0.5237 -0.4716
  103CHL1  H22A13865   3.253   3.173  15.417  1.3952 -0.5311 -2.0529
  103CHL1  H22B13866   3.364   3.295  15.502 -0.5201 -0.3518 -1.8280
  103CHL1   C2313867   3.453   3.104  15.454  0.4253 -0.1210  0.1013
  103CHL1  H23A13868   3.528   3.124  15.533  0.2946 -0.6571  0.3659
  103CHL1  H23B13869   3.438   2.994  15.448 -1.8263  0.0944  0.7044
  103CHL1   C2413870   3.504   3.164  15.319  0.0976 -0.0148  0.8325
  103CHL1  H24A13871   3.426   3.147  15.241  0.5551 -0.0087  0.3759
  103CHL1  H24B13872   3.494   3.273  15.333 -2.5365 -0.0371 -0.3185
  103CHL1   C2513873   3.648   3.109  15.283  0.8439 -0.1038 -0.5331
  103CHL1   H2513874   3.697   3.092  15.381 -2.0096 -2.2485  0.6632
  103CHL1   C2613875   3.649   2.985  15.196  0.4480  0.9086 -0.0114
  103CHL1  H26A13876   3.593   3.009  15.104  2.5686  0.0378 -1.6079
  103CHL1  H26B13877   3.758   2.972  15.175  0.7121  3.0284 -0.2450
  103CHL1  H26C13878   3.619   2.888  15.241  0.1907  1.4573  1.0338
  103CHL1   C2713879   3.720   3.233  15.213  0.3530 -0.4964  0.3089
  103CHL1  H27A13880   3.660   3.269  15.127 -0.0628  1.7528  1.4626
  103CHL1  H27B13881   3.720   3.326  15.274 -1.4760 -1.1970  1.4748
  103CHL1  H27C13882   3.818   3.197  15.175 -0.0456 -1.7560  0.4283
  104CHL1    C313883   0.868   2.967  16.370  0.3570  0.4934  0.5543
  104CHL1    H313884   0.924   2.872  16.376 -0.0435  0.1614 -0.6396
  104CHL1    O313885   0.825   3.006  16.499 -0.1300  0.3891  0.1217
  104CHL1   H3'13886   0.788   3.094  16.493  0.1305  0.5145  0.3258
  104CHL1    C413887   0.974   3.060  16.321  0.3935  0.3411  0.4032
  104CHL1   H4A13888   0.930   3.162  16.320 -1.1055 -0.2839 -0.8076
  104CHL1   H4B13889   1.059   3.057  16.393  0.6113  1.8020  0.2341
  104CHL1    C513890   1.015   3.025  16.184 -1.0164 -0.0921 -0.1489
  104CHL1    C613891   1.151   2.997  16.168  0.3295 -0.3432  0.0946
  104CHL1    H613892   1.222   3.002  16.252  1.8995  0.1077 -1.1978
  104CHL1    C713893   1.208   2.970  16.028 -0.0574  0.0388 -0.2026
  104CHL1   H7A13894   1.310   3.012  16.015  0.3712 -1.4428 -2.0422
  104CHL1   H7B13895   1.206   2.861  16.004 -2.4325 -0.3293  1.3133
  104CHL1    C813896   1.114   3.029  15.917  0.6303  0.0366 -0.4703
  104CHL1    H813897   1.116   3.139  15.924  1.0182 -0.0687  1.6791
  104CHL1   C1413898   1.168   2.994  15.782  0.8321  0.9943 -0.2192
  104CHL1   H1413899   1.177   2.883  15.776 -0.1135  0.8758  0.3398
  104CHL1   C1513900   1.306   3.050  15.749  0.9388 -0.8817  0.1651
  104CHL1  H15A13901   1.299   3.155  15.785 -0.1695 -1.1254  0.7170
  104CHL1  H15B13902   1.385   2.994  15.803 -0.3014 -4.2375 -1.2055
  104CHL1   C1613903   1.310   3.038  15.600 -0.3355 -0.0761  0.5834
  104CHL1  H16A13904   1.341   3.134  15.554  1.8974 -0.8577  0.3503
  104CHL1  H16B13905   1.386   2.966  15.562 -0.8415 -0.6721  0.6697
  104CHL1   C1713906   1.168   2.984  15.560 -0.3969 -0.4234  0.9330
  104CHL1   H1713907   1.164   2.873  15.560 -2.8521 -0.3847  0.1504
  104CHL1   C1313908   1.080   3.029  15.670  0.0618  0.3502  0.3210
  104CHL1   C1813909   1.054   3.184  15.661  0.0956  0.3227 -0.4537
  104CHL1  H18A13910   1.028   3.229  15.759  0.3538 -0.1813 -0.1484
  104CHL1  H18B13911   1.150   3.235  15.639  0.4425 -0.6166 -1.2221
  104CHL1  H18C13912   0.982   3.198  15.577  1.3995 -1.0916 -1.8984
  104CHL1   C1213913   0.942   2.956  15.686  0.5610 -0.8317  0.1883
  104CHL1  H12A13914   0.887   3.000  15.601 -0.2820  0.4678  1.3531
  104CHL1  H12B13915   0.941   2.846  15.676 -0.3175 -0.8521  0.4377
  104CHL1   C1113916   0.877   3.002  15.814 -1.1514  0.4683  0.1705
  104CHL1  H11A13917   0.848   3.109  15.804  3.1807  1.7941 -0.5163
  104CHL1  H11B13918   0.793   2.934  15.839  1.1021 -2.4661  0.3959
  104CHL1    C913919   0.968   2.977  15.938  0.4313 -0.2384  0.5070
  104CHL1    H913920   0.979   2.867  15.952 -0.3879 -0.2608  1.0678
  104CHL1   C1013921   0.904   3.020  16.074 -0.1477  0.4588 -0.2174
  104CHL1   C1913922   0.836   3.157  16.056  0.3756  0.4642 -0.1444
  104CHL1  H19A13923   0.906   3.228  16.006  0.0922 -0.5380 -2.0541
  104CHL1  H19B13924   0.744   3.147  15.995 -1.1440 -0.0311  2.1101
  104CHL1  H19C13925   0.804   3.197  16.155  0.4600 -1.4222  0.6789
  104CHL1    C113926   0.794   2.921  16.125 -0.4411 -0.8040 -0.8312
  104CHL1   H1A13927   0.703   2.928  16.062 -1.7491  1.5596  1.1374
  104CHL1   H1B13928   0.846   2.822  16.123 -0.9494 -1.0676 -1.6278
  104CHL1    C213929   0.750   2.963  16.270  0.2615 -0.1375  0.4313
  104CHL1   H2A13930   0.677   2.891  16.313 -0.1076  1.0595  1.9090
  104CHL1   H2B13931   0.689   3.056  16.272 -2.3615 -1.6866 -1.4480
  104CHL1   C2013932   1.128   3.008  15.411  0.2277 -0.0761  0.4570
  104CHL1   H2013933   1.025   2.971  15.393  0.2599  0.5414 -1.2565
  104CHL1   C2113934   1.229   2.920  15.329  0.7920  0.1931  0.8181
  104CHL1  H21A13935   1.323   2.975  15.310  0.5905  1.5908  3.4753
  104CHL1  H21B13936   1.187   2.877  15.235  1.2940  0.3918  0.4975
  104CHL1  H21C13937   1.252   2.825  15.383  2.6328  0.2529  0.2163
  104CHL1   C2213938   1.124   3.148  15.343 -0.1463 -0.0861 -0.4736
  104CHL1  H22A13939   1.045   3.209  15.393  0.8186  1.2851 -0.5674
  104CHL1  H22B13940   1.223   3.197  15.346  0.0651 -0.5579  0.3810
  104CHL1   C2313941   1.092   3.146  15.190 -0.5605 -0.1426 -0.3934
  104CHL1  H23A13942   1.108   3.252  15.159 -0.1679 -0.4797 -1.3785
  104CHL1  H23B13943   1.163   3.080  15.135  1.1279 -1.1739  2.7893
  104CHL1   C2413944   0.953   3.110  15.159  0.3775 -0.0082 -0.4767
  104CHL1  H24A13945   0.933   3.007  15.198  0.0939 -0.8939 -2.8360
  104CHL1  H24B13946   0.889   3.183  15.213 -0.0313 -1.0887  0.5579
  104CHL1   C2513947   0.919   3.112  15.016  0.6992  0.0523  0.1151
  104CHL1   H2513948   0.993   3.048  14.963  0.9017  0.2680  0.1375
  104CHL1   C2613949   0.781   3.057  14.992  0.9175  0.1264  1.2382
  104CHL1  H26A13950   0.769   2.964  15.052 -1.1503 -0.0802  0.5637
  104CHL1  H26B13951   0.699   3.116  15.039 -0.5635 -0.3722 -0.6052
  104CHL1  H26C13952   0.771   3.038  14.883 -1.3013  2.1057  1.0232
  104CHL1   C2713953   0.924   3.257  14.957  0.4429  0.6680 -0.1461
  104CHL1  H27A13954   1.030   3.291  14.967  0.9613 -0.2491 -2.1648
  104CHL1  H27B13955   0.897   3.256  14.849  0.0961 -1.4209 -0.0642
  104CHL1  H27C13956   0.858   3.334  15.003 -1.3530 -0.4347 -0.7638
  105CHL1    C313957   6.740   3.249  16.425  0.2230 -0.3901 -0.2026
  105CHL1    H313958   6.754   3.350  16.382  4.2074  0.1402  1.8701
  105CHL1    O313959   6.728   3.257  16.565  0.5506  0.1790  0.4370
  105CHL1   H3'13960   6.795   3.314  16.603 -0.4000 -1.0928  4.4412
  105CHL1    C413961   6.606   3.194  16.371  0.1118  0.0847  0.1920
  105CHL1   H4A13962   6.570   3.097  16.411  0.0121 -0.4850 -1.2243
  105CHL1   H4B13963   6.528   3.271  16.392 -0.3700 -0.3763  0.1283
  105CHL1    C513964   6.623   3.176  16.221 -0.5724 -0.1934  0.2733
  105CHL1    C613965   6.543   3.243  16.136  0.3975  0.9398  0.2360
  105CHL1    H613966   6.462   3.309  16.171 -0.5198  0.3221 -0.6353
  105CHL1    C713967   6.543   3.215  15.990  0.0514 -0.3754  0.0100
  105CHL1   H7A13968   6.439   3.203  15.953 -0.2174  1.7317 -0.0224
  105CHL1   H7B13969   6.564   3.312  15.940 -0.7449 -0.3010 -0.1970
  105CHL1    C813970   6.630   3.100  15.943 -0.1890 -0.4485  0.1191
  105CHL1    H813971   6.589   3.000  15.969  0.0734 -1.1334 -1.9262
  105CHL1   C1413972   6.656   3.110  15.792  0.8208 -0.6877 -0.2248
  105CHL1   H1413973   6.706   3.210  15.789  0.4685 -0.4949  0.3008
  105CHL1   C1513974   6.538   3.125  15.701 -0.0542  0.0941  0.0287
  105CHL1  H15A13975   6.460   3.049  15.725 -0.1202  0.8166  2.2162
  105CHL1  H15B13976   6.492   3.226  15.706  0.3534  0.2411  1.1091
  105CHL1   C1613977   6.601   3.099  15.555  0.0599 -0.6074 -0.3738
  105CHL1  H16A13978   6.554   3.009  15.512 -2.3282  0.1299  0.5484
  105CHL1  H16B13979   6.591   3.195  15.500 -0.2310 -0.0320  0.6488
  105CHL1   C1713980   6.747   3.048  15.579  0.4238  0.4457 -0.0464
  105CHL1   H1713981   6.798   3.143  15.555  0.2640  0.4345 -0.4347
  105CHL1   C1313982   6.754   3.016  15.729 -0.4387  0.8672 -0.6878
  105CHL1   C1813983   6.699   2.873  15.740  0.0502 -0.5422  0.5793
  105CHL1  H18A13984   6.607   2.875  15.676  0.4697 -2.2798 -0.1430
  105CHL1  H18B13985   6.768   2.798  15.696  0.5975 -0.2413  0.9228
  105CHL1  H18C13986   6.668   2.855  15.845 -1.9030 -2.4286 -0.2519
  105CHL1   C1213987   6.884   3.047  15.801 -0.3801  0.6246 -0.3841
  105CHL1  H12A13988   6.959   2.969  15.774 -1.1673 -0.1604 -0.3642
  105CHL1  H12B13989   6.911   3.152  15.778 -0.3970  1.0416  1.3675
  105CHL1   C1113990   6.875   3.021  15.951 -0.1381  0.0975  0.5735
  105CHL1  H11A13991   6.846   2.913  15.953  0.0080  0.0020 -1.1911
  105CHL1  H11B13992   6.979   3.036  15.987  0.8192  0.5716 -2.2077
  105CHL1    C913993   6.765   3.108  16.018 -0.5631 -0.6218 -0.1080
  105CHL1    H913994   6.805   3.209  15.996 -0.4838 -1.0097 -1.8572
  105CHL1   C1013995   6.744   3.087  16.169 -0.1380  0.4508 -0.7637
  105CHL1   C1913996   6.709   2.935  16.205 -0.1043 -0.6345  0.0129
  105CHL1  H19A13997   6.789   2.869  16.166  0.9575  0.7997 -0.3284
  105CHL1  H19B13998   6.703   2.921  16.315 -3.2291 -0.8944 -0.0995
  105CHL1  H19C13999   6.607   2.919  16.164  0.5006 -0.6946 -1.5357
  105CHL1    C114000   6.874   3.132  16.245  0.1416 -0.5052  1.0320
  105CHL1   H1A14001   6.946   3.051  16.220 -0.1741 -0.5481  0.2361
  105CHL1   H1B14002   6.920   3.218  16.192  2.1160 -2.0561  0.0619
  105CHL1    C214003   6.862   3.160  16.389  0.3346  0.2785 -0.0487
  105CHL1   H2A14004   6.956   3.203  16.430  0.4150 -0.0167  0.0789
  105CHL1   H2B14005   6.844   3.063  16.440 -2.1006 -0.7834 -2.6618
  105CHL1   C2014006   6.812   2.954  15.479 -0.0258  0.4047  0.4446
  105CHL1   H2014007   6.755   2.859  15.470  1.2062 -0.3392  0.2672
  105CHL1   C2114008   6.960   2.934  15.514 -0.3771  1.1278  0.0981
  105CHL1  H21A14009   7.014   2.888  15.429  0.1857 -2.3742  2.1806
  105CHL1  H21B14010   6.975   2.865  15.600  1.8886  3.0442  1.3740
  105CHL1  H21C14011   7.012   3.030  15.538 -1.4456  1.2644  2.1263
  105CHL1   C2214012   6.796   3.018  15.337 -0.7480  0.7307  0.2259
  105CHL1  H22A14013   6.686   3.033  15.323 -0.9440 -1.1573 -0.5853
  105CHL1  H22B14014   6.851   3.112  15.315 -0.1775  0.8364  1.9589
  105CHL1   C2314015   6.824   2.923  15.223  0.1862  0.7040  0.1557
  105CHL1  H23A14016   6.809   2.984  15.131  1.2221  1.6426  0.5823
  105CHL1  H23B14017   6.929   2.889  15.237  0.2663  1.4195  1.4398
  105CHL1   C2414018   6.728   2.810  15.208 -0.6631  0.3716 -0.4979
  105CHL1  H24A14019   6.714   2.763  15.307  2.2117 -2.2630 -1.1700
  105CHL1  H24B14020   6.634   2.851  15.167 -0.7297  1.8654  1.0724
  105CHL1   C2514021   6.781   2.692  15.117 -0.6707 -0.1462  0.4733
  105CHL1   H2514022   6.809   2.737  15.019 -3.2722  1.0232  0.1904
  105CHL1   C2614023   6.898   2.612  15.185 -0.5380  0.3208  0.1725
  105CHL1  H26A14024   6.849   2.551  15.264  0.1033 -0.2953  0.1056
  105CHL1  H26B14025   6.942   2.546  15.107 -0.8452  2.4814 -1.9557
  105CHL1  H26C14026   6.985   2.672  15.218 -1.2927  2.2359 -1.1543
  105CHL1   C2714027   6.669   2.603  15.090 -0.1605  0.1728  0.3158
  105CHL1  H27A14028   6.627   2.560  15.183  1.8077 -0.8261  0.8148
  105CHL1  H27B14029   6.590   2.655  15.033 -1.2914 -2.1487 -0.3785
  105CHL1  H27C14030   6.694   2.517  15.024 -0.9965 -0.4510  0.7879
  106CHL1    C314031   2.186   1.485  17.055  1.2072 -0.0120  0.2975
  106CHL1    H314032   2.281   1.427  17.059  1.0720 -0.3103 -0.6092
  106CHL1    O314033   2.116   1.470  17.176 -0.2188 -0.5171 -0.3125
  106CHL1   H3'14034   2.085   1.379  17.173  0.6529 -0.8034 -1.0989
  106CHL1    C414035   2.227   1.636  17.041  0.1831 -0.4081 -0.4766
  106CHL1   H4A14036   2.134   1.695  17.027  0.8959  0.7608 -0.4385
  106CHL1   H4B14037   2.270   1.672  17.137 -0.0938 -0.2999 -0.3913
  106CHL1    C514038   2.312   1.655  16.918 -0.1240  0.8181  0.1325
  106CHL1    C614039   2.429   1.712  16.928 -0.5867 -0.2495 -0.2187
  106CHL1    H614040   2.468   1.750  17.023  0.9582  1.0923 -1.3276
  106CHL1    C714041   2.515   1.721  16.809 -0.5220 -0.0400 -0.2261
  106CHL1   H7A14042   2.553   1.826  16.815 -0.1089 -0.2834  2.1104
  106CHL1   H7B14043   2.596   1.646  16.822 -1.0446 -1.2120 -2.9715
  106CHL1    C814044   2.454   1.703  16.663  0.1149  0.2080 -0.0003
  106CHL1    H814045   2.398   1.794  16.630 -0.6212 -1.6018 -4.5136
  106CHL1   C1414046   2.566   1.678  16.562 -0.1918 -0.6103  0.0605
  106CHL1   H1414047   2.604   1.575  16.583  2.5488 -0.2208 -2.3297
  106CHL1   C1514048   2.692   1.760  16.563 -0.6202 -0.3918 -0.2365
  106CHL1  H15A14049   2.656   1.865  16.567  0.2613 -0.1189  1.6152
  106CHL1  H15B14050   2.756   1.740  16.652  0.2970 -1.0403 -1.0322
  106CHL1   C1614051   2.756   1.717  16.428 -0.0924 -0.6382  0.3476
  106CHL1  H16A14052   2.795   1.809  16.380  0.8239 -0.9357  0.4955
  106CHL1  H16B14053   2.842   1.647  16.429  0.4532 -0.0357 -1.3274
  106CHL1   C1714054   2.645   1.654  16.348  0.0039  0.1091  0.0683
  106CHL1   H1714055   2.677   1.548  16.346 -1.2444 -0.3129 -2.5108
  106CHL1   C1314056   2.508   1.664  16.420  0.2114 -0.6764  0.2843
  106CHL1   C1814057   2.441   1.800  16.384  0.1692 -0.3419  0.0927
  106CHL1  H18A14058   2.398   1.792  16.281 -0.9889 -1.4745  0.6322
  106CHL1  H18B14059   2.350   1.805  16.448  0.3211  2.6724  0.2111
  106CHL1  H18C14060   2.506   1.889  16.398  1.0797 -1.2356  1.8398
  106CHL1   C1214061   2.410   1.543  16.414  0.2752 -0.3054  0.0344
  106CHL1  H12A14062   2.365   1.521  16.315  0.2534 -1.4030  0.2790
  106CHL1  H12B14063   2.484   1.464  16.441  1.8257  2.0292  3.3302
  106CHL1   C1114064   2.297   1.559  16.519  0.7492 -0.3149  0.0577
  106CHL1  H11A14065   2.219   1.633  16.489 -0.1432 -0.2228  2.3668
  106CHL1  H11B14066   2.241   1.463  16.522  1.2253 -0.6318 -0.7656
  106CHL1    C914067   2.347   1.593  16.663 -0.3819 -0.0964  0.5321
  106CHL1    H914068   2.411   1.505  16.686  0.3551  0.1534 -0.4844
  106CHL1   C1014069   2.250   1.603  16.780 -0.6900 -0.2464 -0.2994
  106CHL1   C1914070   2.139   1.692  16.738 -0.2054 -0.2375  0.1174
  106CHL1  H19A14071   2.071   1.713  16.823  0.2519  0.7706  0.2573
  106CHL1  H19B14072   2.176   1.776  16.675  0.4267 -0.7238 -0.1690
  106CHL1  H19C14073   2.081   1.645  16.656 -0.5931  2.6396 -1.3935
  106CHL1    C114074   2.186   1.461  16.812 -0.4049  0.0550  0.1278
  106CHL1   H1A14075   2.123   1.441  16.723 -0.7081  2.7725 -0.3242
  106CHL1   H1B14076   2.266   1.384  16.812 -0.2649  0.2020  0.5638
  106CHL1    C214077   2.097   1.449  16.937  0.6220 -0.3497  0.0798
  106CHL1   H2A14078   2.069   1.342  16.948  0.1494 -0.1165  1.1840
  106CHL1   H2B14079   2.009   1.516  16.944  0.1393 -1.1503  2.5222
  106CHL1   C2014080   2.649   1.691  16.195 -1.0226 -0.0907 -0.2997
  106CHL1   H2014081   2.622   1.798  16.186 -0.4049  0.1244  0.2517
  106CHL1   C2114082   2.561   1.594  16.105 -0.3181 -0.5811  0.4056
  106CHL1  H21A14083   2.454   1.583  16.133 -1.1924  0.3706 -2.2418
  106CHL1  H21B14084   2.620   1.501  16.118  0.4370 -0.4063 -1.5627
  106CHL1  H21C14085   2.571   1.630  16.001  0.8484 -0.2324  0.6263
  106CHL1   C2214086   2.798   1.694  16.137  0.1547  0.4930  0.4496
  106CHL1  H22A14087   2.851   1.784  16.176 -0.3549  2.0639 -2.2615
  106CHL1  H22B14088   2.843   1.604  16.185 -1.3581 -0.4165  0.2180
  106CHL1   C2314089   2.829   1.683  15.982 -0.6744 -0.0184 -0.8178
  106CHL1  H23A14090   2.814   1.578  15.947 -1.4305 -1.2804  2.8805
  106CHL1  H23B14091   2.766   1.733  15.906 -0.6414 -0.6872 -1.2963
  106CHL1   C2414092   2.972   1.731  15.954 -0.2964  0.1215 -0.7587
  106CHL1  H24A14093   2.975   1.842  15.955 -2.0010  0.2083  1.4301
  106CHL1  H24B14094   3.037   1.696  16.037 -0.7969  2.7641  0.8648
  106CHL1   C2514095   3.029   1.680  15.827 -0.5086  0.3439  1.0205
  106CHL1   H2514096   3.024   1.569  15.829 -0.3505  0.3138  0.0640
  106CHL1   C2614097   2.940   1.723  15.712  0.7748  0.7465 -0.5150
  106CHL1  H26A14098   2.992   1.685  15.621  1.8123 -1.2578  0.8309
  106CHL1  H26B14099   2.838   1.681  15.720  0.2171  2.3020  0.9651
  106CHL1  H26C14100   2.926   1.831  15.688 -3.1726  0.0277 -2.3054
  106CHL1   C2714101   3.173   1.721  15.809 -0.4731  0.1630  0.2423
  106CHL1  H27A14102   3.186   1.831  15.803 -2.3818  0.4067 -0.1801
  106CHL1  H27B14103   3.230   1.698  15.901  0.5656  2.7107  0.3260
  106CHL1  H27C14104   3.217   1.669  15.722  1.3238  0.8132  0.7315
  107CHL1    C314105   5.555   6.000  16.644 -0.0149 -0.1558  0.0702
  107CHL1    H314106   5.585   6.106  16.640  1.1892 -0.5173 -1.8994
  107CHL1    O314107   5.583   5.943  16.768 -0.3116 -0.2069  0.0157
  107CHL1   H3'14108   5.678   5.948  16.774 -0.3581  0.2762  0.4765
  107CHL1    C414109   5.403   5.999  16.614 -0.2101 -0.0713  0.0116
  107CHL1   H4A14110   5.364   5.895  16.616  0.1114 -0.1808  2.4025
  107CHL1   H4B14111   5.354   6.044  16.703 -1.5360 -1.3542 -0.0305
  107CHL1    C514112   5.360   6.058  16.484 -0.3395  0.2963  0.3606
  107CHL1    C614113   5.270   6.155  16.468  0.2154 -0.2060 -0.1063
  107CHL1    H614114   5.225   6.211  16.551  0.9430  1.8461 -1.0421
  107CHL1    C714115   5.224   6.202  16.340 -0.0639 -0.1490 -0.6273
  107CHL1   H7A14116   5.117   6.231  16.337 -0.2753 -0.8515 -0.0072
  107CHL1   H7B14117   5.273   6.302  16.332 -2.6095  1.1924 -0.2991
  107CHL1    C814118   5.279   6.121  16.215  0.0441 -0.4015 -0.3618
  107CHL1    H814119   5.206   6.036  16.216  0.6247 -0.9349  1.6776
  107CHL1   C1414120   5.277   6.217  16.097  0.3506  0.3530  0.0415
  107CHL1   H1414121   5.351   6.296  16.121  1.2407 -0.3334 -0.4077
  107CHL1   C1514122   5.153   6.301  16.055 -0.3230  0.2426  0.1187
  107CHL1  H15A14123   5.056   6.247  16.054 -1.0131  1.4282  0.5769
  107CHL1  H15B14124   5.150   6.392  16.119  1.7020  1.2625 -1.1652
  107CHL1   C1614125   5.190   6.347  15.911 -0.2156 -0.2880  0.2333
  107CHL1  H16A14126   5.118   6.327  15.830  1.4973 -1.4561 -1.0688
  107CHL1  H16B14127   5.197   6.458  15.909  0.5613 -0.3328 -1.6128
  107CHL1   C1714128   5.318   6.275  15.872  0.0835 -0.5158  0.1230
  107CHL1   H1714129   5.395   6.350  15.898  1.0613 -0.6376 -2.1634
  107CHL1   C1314130   5.338   6.154  15.973  0.0707 -0.1824  0.5792
  107CHL1   C1814131   5.243   6.046  15.920  0.2979  0.3178 -0.2317
  107CHL1  H18A14132   5.141   6.085  15.901  0.1107 -0.1401 -0.1886
  107CHL1  H18B14133   5.289   5.998  15.831 -1.2448 -0.4910 -0.6280
  107CHL1  H18C14134   5.218   5.982  16.007 -3.2229  1.4790 -0.2408
  107CHL1   C1214135   5.476   6.092  15.992 -0.2451 -0.7671  0.7856
  107CHL1  H12A14136   5.498   6.017  15.912  0.7920 -0.8346  1.1229
  107CHL1  H12B14137   5.553   6.170  16.010 -3.0853  2.2360  0.9116
  107CHL1   C1114138   5.473   6.002  16.116 -0.0109 -0.2939 -0.8400
  107CHL1  H11A14139   5.404   5.921  16.085  1.0247 -1.0457 -1.2561
  107CHL1  H11B14140   5.570   5.951  16.137 -1.0725 -1.9268  0.3338
  107CHL1    C914141   5.427   6.075  16.238  0.7428 -0.4890  0.7670
  107CHL1    H914142   5.483   6.170  16.253 -1.0968  0.8187 -0.1827
  107CHL1   C1014143   5.445   6.000  16.367 -0.0142  0.2763  0.1220
  107CHL1   C1914144   5.399   5.852  16.337  0.2230 -0.0684 -0.3037
  107CHL1  H19A14145   5.484   5.800  16.288 -0.3681 -0.2719 -1.1317
  107CHL1  H19B14146   5.374   5.794  16.428  0.0715  0.9065  0.2984
  107CHL1  H19C14147   5.311   5.851  16.270  0.8775 -1.5089 -1.1733
  107CHL1    C114148   5.597   5.995  16.402  0.5228  0.2958  0.7914
  107CHL1   H1A14149   5.644   5.937  16.319 -0.7669  2.2217 -1.4286
  107CHL1   H1B14150   5.635   6.099  16.400  0.1496  0.4282  0.5901
  107CHL1    C214151   5.632   5.928  16.533  0.0118  0.4214 -0.1275
  107CHL1   H2A14152   5.742   5.937  16.544  0.0497 -1.0493  0.9576
  107CHL1   H2B14153   5.611   5.819  16.536  1.7733  0.0715  0.2382
  107CHL1   C2014154   5.343   6.253  15.722  0.6507  0.2364 -0.5053
  107CHL1   H2014155   5.276   6.169  15.693  1.2242 -0.4015 -0.0037
  107CHL1   C2114156   5.488   6.218  15.684  0.3152  0.0860 -0.7213
  107CHL1  H21A14157   5.561   6.292  15.723  1.4890 -1.7263  0.6947
  107CHL1  H21B14158   5.500   6.224  15.574  0.3694 -0.2782 -0.7368
  107CHL1  H21C14159   5.517   6.118  15.722  2.3793  1.1445  0.6395
  107CHL1   C2214160   5.305   6.382  15.638  0.0752 -0.2951 -0.2803
  107CHL1  H22A14161   5.328   6.362  15.531 -0.7180 -0.3508 -0.4450
  107CHL1  H22B14162   5.196   6.397  15.627 -0.0476 -1.8572 -1.4568
  107CHL1   C2314163   5.371   6.514  15.685  0.1274 -0.8377 -0.2207
  107CHL1  H23A14164   5.328   6.556  15.779  0.3838 -1.5002  0.2010
  107CHL1  H23B14165   5.479   6.493  15.696  0.4390  0.0064 -1.4531
  107CHL1   C2414166   5.367   6.629  15.578  0.1962  0.0624  0.5682
  107CHL1  H24A14167   5.414   6.719  15.622  0.7860  0.0639 -0.0476
  107CHL1  H24B14168   5.428   6.599  15.490  0.3936  0.8258  0.4415
  107CHL1   C2514169   5.223   6.670  15.536 -0.2565  0.3711 -0.8278
  107CHL1   H2514170   5.164   6.585  15.575 -1.0864  0.2885 -2.1944
  107CHL1   C2614171   5.178   6.798  15.596  0.0980 -0.1856 -0.0787
  107CHL1  H26A14172   5.195   6.790  15.705  2.7403 -1.7611 -0.5018
  107CHL1  H26B14173   5.225   6.886  15.547  0.4006 -0.2306  0.1285
  107CHL1  H26C14174   5.072   6.802  15.564  0.2832  0.8746 -0.5975
  107CHL1   C2714175   5.199   6.678  15.383 -0.4215  0.6181  0.5228
  107CHL1  H27A14176   5.090   6.686  15.361 -0.8321 -1.5986  1.4774
  107CHL1  H27B14177   5.249   6.767  15.339 -0.5087 -0.4687 -1.9488
  107CHL1  H27C14178   5.250   6.592  15.334  1.3422  0.6582  2.1842
  108CHL1    C314179   6.503   2.468  16.334  0.1973 -0.0170 -0.5047
  108CHL1    H314180   6.489   2.363  16.368 -2.3612  0.9254  1.8129
  108CHL1    O314181   6.449   2.539  16.443 -0.3681 -0.0392  0.0192
  108CHL1   H3'14182   6.496   2.623  16.448  0.4266 -0.3671 -1.4899
  108CHL1    C414183   6.650   2.503  16.308  0.6618  0.3055 -0.0970
  108CHL1   H4A14184   6.649   2.613  16.287  0.6215  0.2067 -0.6228
  108CHL1   H4B14185   6.691   2.479  16.408  0.5894 -0.0705 -0.1588
  108CHL1    C514186   6.705   2.425  16.185 -0.0054 -0.2981 -0.4170
  108CHL1    C614187   6.811   2.348  16.193 -0.2021 -0.3086 -0.0380
  108CHL1    H614188   6.858   2.336  16.291 -0.6759 -1.9892  0.0239
  108CHL1    C714189   6.870   2.264  16.079  0.3922 -0.5639 -0.0628
  108CHL1   H7A14190   6.980   2.265  16.085  0.5122  2.3273 -0.9565
  108CHL1   H7B14191   6.835   2.160  16.096 -1.1887 -0.0091  0.3254
  108CHL1    C814192   6.819   2.318  15.942  0.0357  0.1234  0.0861
  108CHL1    H814193   6.861   2.419  15.926  1.2122 -0.4266 -0.4670
  108CHL1   C1414194   6.860   2.226  15.826  0.3772 -0.6471 -0.0070
  108CHL1   H1414195   6.807   2.133  15.856 -0.2797 -0.3666 -0.2784
  108CHL1   C1514196   7.011   2.188  15.801  0.0950 -0.5552 -0.4202
  108CHL1  H15A14197   7.074   2.280  15.796 -1.1898  0.4226  0.6169
  108CHL1  H15B14198   7.054   2.122  15.879 -2.0224 -0.5048  0.8699
  108CHL1   C1614199   7.011   2.128  15.658  0.0244 -1.0951 -0.1549
  108CHL1  H16A14200   7.105   2.165  15.611  1.2767 -2.7878  0.8896
  108CHL1  H16B14201   7.010   2.018  15.645 -3.2443 -0.9351 -2.6217
  108CHL1   C1714202   6.870   2.168  15.603 -0.0422 -0.5624  0.0100
  108CHL1   H1714203   6.797   2.085  15.613 -0.1640 -0.6260 -1.2765
  108CHL1   C1314204   6.810   2.275  15.688  0.0318 -0.7389 -0.2149
  108CHL1   C1814205   6.869   2.415  15.653 -0.1974  0.1787 -0.0017
  108CHL1  H18A14206   6.808   2.482  15.718 -1.6168 -0.7078 -0.3542
  108CHL1  H18B14207   6.979   2.426  15.662 -0.1639  0.4019 -0.6442
  108CHL1  H18C14208   6.842   2.448  15.551 -1.1800  0.6726  0.4040
  108CHL1   C1214209   6.655   2.283  15.695 -1.2335 -0.0992 -0.7165
  108CHL1  H12A14210   6.601   2.313  15.603 -4.1075 -1.5232  0.3700
  108CHL1  H12B14211   6.624   2.178  15.715  1.4437 -1.2560 -2.2237
  108CHL1   C1114212   6.596   2.366  15.806  0.3049  0.1973  0.2690
  108CHL1  H11A14213   6.610   2.473  15.777 -0.2510  0.0443 -0.5721
  108CHL1  H11B14214   6.487   2.347  15.813 -0.1402  1.7068 -1.6100
  108CHL1    C914215   6.670   2.341  15.942  0.4530 -0.2676  0.5240
  108CHL1    H914216   6.628   2.242  15.970  0.6537 -0.9140 -1.3506
  108CHL1   C1014217   6.619   2.441  16.060 -0.5337 -0.0065  0.1693
  108CHL1   C1914218   6.621   2.586  16.007 -0.5942  0.2903 -0.1660
  108CHL1  H19A14219   6.522   2.626  15.974  0.0127  2.0545  0.0300
  108CHL1  H19B14220   6.647   2.658  16.088 -0.7350 -3.9300  4.0231
  108CHL1  H19C14221   6.700   2.598  15.929 -0.8154 -1.4296 -0.6895
  108CHL1    C114222   6.472   2.408  16.088 -0.1441  0.5424 -0.0980
  108CHL1   H1A14223   6.413   2.430  15.996  0.4817 -0.0433 -0.6511
  108CHL1   H1B14224   6.456   2.300  16.109  0.0050  0.5582  0.0967
  108CHL1    C214225   6.415   2.485  16.208  0.8943  0.2078  1.0476
  108CHL1   H2A14226   6.313   2.450  16.234 -0.1430  2.6430  0.5134
  108CHL1   H2B14227   6.396   2.592  16.182  2.3107 -0.0975 -1.5868
  108CHL1   C2014228   6.884   2.204  15.453 -0.3687 -0.3407  0.6851
  108CHL1   H2014229   6.955   2.288  15.440 -0.6986 -0.1168  0.3157
  108CHL1   C2114230   6.753   2.239  15.389 -0.2330 -0.3813  0.0673
  108CHL1  H21A14231   6.669   2.189  15.442  0.8202  1.0547  3.3689
  108CHL1  H21B14232   6.749   2.221  15.280 -1.1541 -1.1853  0.2103
  108CHL1  H21C14233   6.741   2.349  15.398  0.1783 -0.3933  0.9221
  108CHL1   C2214234   6.949   2.086  15.365 -0.1744  0.3860 -0.0467
  108CHL1  H22A14235   7.026   2.033  15.425  1.4137  1.6600 -0.8989
  108CHL1  H22B14236   6.874   2.008  15.338  0.7935 -0.2101 -1.0802
  108CHL1   C2314237   7.010   2.138  15.239 -0.2033  0.0538  0.3195
  108CHL1  H23A14238   6.932   2.186  15.177 -1.4842  1.5716  2.9578
  108CHL1  H23B14239   7.092   2.209  15.263 -0.2334  0.1046  0.2740
  108CHL1   C2414240   7.073   2.020  15.156 -0.4697 -0.0490 -0.1135
  108CHL1  H24A14241   7.126   1.955  15.229  1.5153  1.0159 -0.5261
  108CHL1  H24B14242   6.988   1.970  15.104  1.0994 -2.1680 -0.7844
  108CHL1   C2514243   7.181   2.050  15.047  0.1257 -0.1952 -0.1602
  108CHL1   H2514244   7.246   2.127  15.094 -0.1474 -0.9637  1.5653
  108CHL1   C2614245   7.256   1.924  15.019 -0.0793  0.3301 -0.1288
  108CHL1  H26A14246   7.190   1.837  15.001  0.9217 -1.1712  2.8340
  108CHL1  H26B14247   7.315   1.933  14.925 -1.2864 -3.2363 -1.3799
  108CHL1  H26C14248   7.327   1.887  15.096 -0.4431 -0.0987  0.0045
  108CHL1   C2714249   7.109   2.112  14.926  0.4895 -0.6514  0.2234
  108CHL1  H27A14250   7.022   2.173  14.958 -0.7520 -1.7372 -0.9601
  108CHL1  H27B14251   7.172   2.182  14.866 -1.6476  1.6819  0.5254
  108CHL1  H27C14252   7.074   2.027  14.864 -0.7633  1.2498 -1.8316
  109CHL1    C314253   4.078   6.152  16.277 -0.9677 -0.1290  0.1041
  109CHL1    H314254   4.017   6.059  16.276  0.2130 -1.0433  2.9870
  109CHL1    O314255   4.085   6.189  16.410 -0.1691  0.2734 -0.2886
  109CHL1   H3'14256   4.118   6.279  16.412  1.1153 -0.1572 -1.1416
  109CHL1    C414257   4.221   6.118  16.218 -0.0757 -0.4366 -0.4182
  109CHL1   H4A14258   4.276   6.215  16.227  0.2120 -0.5036 -1.3357
  109CHL1   H4B14259   4.268   6.044  16.287  2.5822  0.9152 -0.6383
  109CHL1    C514260   4.229   6.073  16.076  0.0654  0.2860 -0.5806
  109CHL1    C614261   4.275   5.952  16.039  0.5602 -0.2078 -0.0556
  109CHL1    H614262   4.304   5.874  16.110  0.3105 -1.6660 -1.4826
  109CHL1    C714263   4.265   5.898  15.899 -0.0365  0.1574 -0.0393
  109CHL1   H7A14264   4.362   5.847  15.879  1.2757  2.1509  0.8073
  109CHL1   H7B14265   4.188   5.818  15.900 -1.8329  1.7611 -1.5021
  109CHL1    C814266   4.228   6.005  15.790  0.3566 -0.0053  1.1984
  109CHL1    H814267   4.325   6.050  15.760 -0.2592  1.1902  0.9227
  109CHL1   C1414268   4.178   5.946  15.658  0.4656 -0.7063  0.0666
  109CHL1   H1414269   4.078   5.908  15.687  1.1931 -1.7946  1.2829
  109CHL1   C1514270   4.245   5.824  15.596 -0.3862  0.1502  0.4765
  109CHL1  H15A14271   4.355   5.838  15.592 -0.4840  0.9899  0.4151
  109CHL1  H15B14272   4.232   5.725  15.644 -1.2190 -0.9052 -1.7721
  109CHL1   C1614273   4.189   5.812  15.450  0.7511  0.9386 -0.4622
  109CHL1  H16A14274   4.273   5.815  15.378  0.6508  0.9278 -0.5788
  109CHL1  H16B14275   4.147   5.711  15.437 -0.2724  1.3139 -0.1948
  109CHL1   C1714276   4.096   5.933  15.430  0.1763  0.3568  0.0134
  109CHL1   H1714277   3.992   5.900  15.450  0.6628 -0.5634  1.1255
  109CHL1   C1314278   4.142   6.038  15.542 -0.5994 -0.1160  0.2738
  109CHL1   C1814279   4.277   6.106  15.496 -0.0067  0.2030  0.3965
  109CHL1  H18A14280   4.255   6.190  15.426 -2.4475  1.6045  2.6606
  109CHL1  H18B14281   4.326   6.150  15.585 -0.0925 -0.2997  0.6896
  109CHL1  H18C14282   4.341   6.033  15.441 -2.1662 -0.5765 -1.2275
  109CHL1   C1214283   4.040   6.146  15.593 -0.2609  0.2826  0.5546
  109CHL1  H12A14284   4.012   6.224  15.520 -1.9226  0.0959  0.9600
  109CHL1  H12B14285   3.952   6.079  15.597  0.7964 -1.4289 -2.1642
  109CHL1   C1114286   4.088   6.211  15.720 -0.2089 -0.0409  0.0083
  109CHL1  H11A14287   4.182   6.266  15.698  1.9001 -3.3604  0.0146
  109CHL1  H11B14288   4.014   6.289  15.746  0.0586  1.1580 -2.4658
  109CHL1    C914289   4.124   6.109  15.837 -0.0854  0.5070 -0.2801
  109CHL1    H914290   4.031   6.049  15.845  0.4957 -0.8938 -2.9204
  109CHL1   C1014291   4.158   6.167  15.978 -0.5019 -0.4084  0.7539
  109CHL1   C1914292   4.249   6.289  15.959 -0.5628 -0.2512  0.5613
  109CHL1  H19A14293   4.280   6.328  16.058 -1.2613  1.6235  0.0822
  109CHL1  H19B14294   4.338   6.275  15.895 -0.9640 -0.1423 -0.0365
  109CHL1  H19C14295   4.197   6.373  15.907  0.7070  1.3402  1.7658
  109CHL1    C114296   4.020   6.202  16.041 -0.9074 -0.1955  0.2378
  109CHL1   H1A14297   3.973   6.283  15.981  0.7475  1.0148  0.5187
  109CHL1   H1B14298   3.961   6.108  16.031  0.4545 -1.0539  0.0146
  109CHL1    C214299   4.021   6.254  16.185 -0.3035 -0.6070 -0.1656
  109CHL1   H2A14300   3.912   6.271  16.202 -0.4206  0.4781 -1.8184
  109CHL1   H2B14301   4.076   6.350  16.189  0.6455 -1.1151 -0.5801
  109CHL1   C2014302   4.093   5.983  15.286 -0.0169  0.0906  0.1563
  109CHL1   H2014303   4.186   6.036  15.257 -0.9186  0.4821 -2.1747
  109CHL1   C2114304   3.985   6.095  15.265 -0.4332  0.3602  0.7376
  109CHL1  H21A14305   4.044   6.181  15.302 -0.0449  0.0589  0.8365
  109CHL1  H21B14306   3.892   6.070  15.320 -0.0771 -2.3690  0.2498
  109CHL1  H21C14307   3.973   6.111  15.155 -1.2911 -1.6403  0.4913
  109CHL1   C2214308   4.076   5.866  15.181  0.2280 -0.7036 -0.1717
  109CHL1  H22A14309   4.078   5.912  15.080 -0.5100 -0.2491  0.0111
  109CHL1  H22B14310   4.164   5.800  15.193  2.5910  2.4239  0.9481
  109CHL1   C2314311   3.942   5.798  15.202  0.0518  0.8181 -0.1668
  109CHL1  H23A14312   3.924   5.751  15.301 -1.0158  1.2641 -0.1429
  109CHL1  H23B14313   3.853   5.860  15.176 -0.4624 -0.3817 -1.4054
  109CHL1   C2414314   3.944   5.684  15.097  0.1662  0.9907 -0.0993
  109CHL1  H24A14315   3.973   5.725  14.998  1.3300  0.1207 -0.1375
  109CHL1  H24B14316   4.021   5.607  15.119 -0.7795  0.2110  0.5909
  109CHL1   C2514317   3.809   5.609  15.085 -0.5579  0.3268  0.1160
  109CHL1   H2514318   3.786   5.566  15.184  0.8383 -0.0181  0.3093
  109CHL1   C2614319   3.694   5.705  15.047  0.2314  0.5234 -0.1433
  109CHL1  H26A14320   3.674   5.769  15.136  1.4432  2.7955 -1.3875
  109CHL1  H26B14321   3.723   5.763  14.957  0.7077  1.1222  0.3866
  109CHL1  H26C14322   3.603   5.648  15.019  1.2786 -1.5203  0.4409
  109CHL1   C2714323   3.819   5.501  14.984 -0.3524  0.8457 -0.1333
  109CHL1  H27A14324   3.887   5.418  15.014  0.5242  0.9754 -1.6884
  109CHL1  H27B14325   3.720   5.455  14.965 -0.0553  0.3564 -0.5305
  109CHL1  H27C14326   3.852   5.538  14.885  2.4725 -0.7958  0.0949
  110CHL1    C314327   1.858   5.308  16.143 -0.6153  0.0201 -0.8685
  110CHL1    H314328   1.835   5.205  16.178 -1.3358  0.7300  0.8913
  110CHL1    O314329   1.885   5.386  16.261 -0.0928 -0.0497  0.6205
  110CHL1   H3'14330   1.980   5.389  16.276  0.0038 -2.1272  0.6732
  110CHL1    C414331   1.979   5.295  16.049  0.0531 -0.1049 -0.3510
  110CHL1   H4A14332   2.014   5.397  16.021  1.8213 -0.6822 -0.3413
  110CHL1   H4B14333   2.067   5.256  16.105 -0.5969 -1.4248 -0.2155
  110CHL1    C514334   1.945   5.215  15.932 -0.4375  0.6317  1.0109
  110CHL1    C614335   2.024   5.106  15.903  0.0436 -0.9103  0.8781
  110CHL1    H614336   2.113   5.074  15.960 -0.2809 -2.1871  0.6946
  110CHL1    C714337   2.010   5.021  15.778 -0.4683 -0.3827 -0.2647
  110CHL1   H7A14338   2.110   5.003  15.732 -1.1572 -1.0858 -1.5427
  110CHL1   H7B14339   1.958   4.925  15.795 -1.6995 -0.3421 -3.1486
  110CHL1    C814340   1.929   5.099  15.675  0.5462  0.6695 -0.2003
  110CHL1    H814341   2.003   5.174  15.641  1.9425 -0.5670  0.0401
  110CHL1   C1414342   1.896   5.001  15.559  0.2773  0.0783  0.5201
  110CHL1   H1414343   1.843   4.920  15.614  2.2734 -3.0609 -1.8548
  110CHL1   C1514344   2.017   4.929  15.491  0.5622  0.2723  0.9493
  110CHL1  H15A14345   2.095   5.004  15.468 -1.4282  2.9995  2.5054
  110CHL1  H15B14346   2.048   4.835  15.541 -2.4376 -1.2793  0.1499
  110CHL1   C1614347   1.954   4.878  15.359  0.0091 -0.0753 -0.2380
  110CHL1  H16A14348   2.022   4.924  15.284 -0.6850  1.3616 -0.0173
  110CHL1  H16B14349   1.959   4.768  15.343 -1.1825 -0.7835  3.3229
  110CHL1   C1714350   1.807   4.934  15.346 -0.3839 -0.2935  0.0762
  110CHL1   H1714351   1.744   4.857  15.394  0.6700 -2.3226 -1.6362
  110CHL1   C1314352   1.809   5.057  15.444 -0.0531  0.2243  0.5454
  110CHL1   C1814353   1.888   5.176  15.371 -0.4276  0.0454 -0.5434
  110CHL1  H18A14354   1.816   5.228  15.305 -0.0701  1.1665 -0.0822
  110CHL1  H18B14355   1.929   5.254  15.440  1.9746  1.7304 -3.6283
  110CHL1  H18C14356   1.973   5.136  15.312  1.0083 -0.1789  1.5352
  110CHL1   C1214357   1.678   5.104  15.507 -1.0384 -0.7709 -0.4923
  110CHL1  H12A14358   1.616   5.157  15.431  0.7255  1.0964 -0.7126
  110CHL1  H12B14359   1.615   5.022  15.547 -1.8162 -0.3204 -0.7691
  110CHL1   C1114360   1.708   5.210  15.620 -0.2274  0.8020  0.3500
  110CHL1  H11A14361   1.746   5.294  15.558  0.5422  1.3937  1.5871
  110CHL1  H11B14362   1.607   5.234  15.658 -1.1914  1.0223 -2.1313
  110CHL1    C914363   1.804   5.160  15.727 -0.2288  0.3864 -0.2694
  110CHL1    H914364   1.754   5.069  15.766 -0.4658  1.0626  1.0694
  110CHL1   C1014365   1.828   5.263  15.838  0.5400 -0.2915  0.2937
  110CHL1   C1914366   1.851   5.405  15.774  0.2057 -0.0205  0.4344
  110CHL1  H19A14367   1.937   5.389  15.706 -1.3142 -0.8417 -1.3893
  110CHL1  H19B14368   1.760   5.439  15.719  0.6211 -0.3676 -0.4895
  110CHL1  H19C14369   1.869   5.476  15.858 -1.5473 -0.5124  1.2838
  110CHL1    C114370   1.718   5.276  15.942  0.1515 -0.1823  0.0160
  110CHL1   H1A14371   1.632   5.317  15.885 -1.0716 -1.5613  0.7929
  110CHL1   H1B14372   1.691   5.173  15.974  0.5053 -0.4461 -0.5132
  110CHL1    C214373   1.741   5.364  16.068 -0.3543  0.1194  0.2829
  110CHL1   H2A14374   1.650   5.370  16.131 -0.2665  1.8805  0.2902
  110CHL1   H2B14375   1.763   5.472  16.049  0.3504  0.0577  0.6818
  110CHL1   C2014376   1.763   4.950  15.197 -0.3378 -0.2120  0.5115
  110CHL1   H2014377   1.827   5.027  15.151 -0.6156 -1.7483 -2.7041
  110CHL1   C2114378   1.628   5.024  15.187  0.1441 -0.0898  0.3859
  110CHL1  H21A14379   1.553   4.968  15.247  1.3326 -0.7070  1.3259
  110CHL1  H21B14380   1.581   5.038  15.087 -1.1441 -0.0101  0.9908
  110CHL1  H21C14381   1.629   5.127  15.229 -0.7801  1.0008 -2.0859
  110CHL1   C2214382   1.774   4.828  15.107  1.2022  0.6151 -0.4529
  110CHL1  H22A14383   1.753   4.855  15.002  1.1590  0.8372 -0.3880
  110CHL1  H22B14384   1.878   4.789  15.106  0.6256 -0.9997 -0.2532
  110CHL1   C2314385   1.676   4.721  15.137  0.1463 -0.1924 -0.3383
  110CHL1  H23A14386   1.694   4.695  15.244  0.9788 -0.2628 -0.4922
  110CHL1  H23B14387   1.575   4.766  15.125  0.2505  0.0890 -0.1753
  110CHL1   C2414388   1.690   4.585  15.067 -0.1863  0.0782 -0.5555
  110CHL1  H24A14389   1.693   4.607  14.958  0.1455  0.0427 -0.5535
  110CHL1  H24B14390   1.781   4.529  15.097 -0.3887 -1.0969 -1.9986
  110CHL1   C2514391   1.582   4.482  15.114 -0.0401  0.0300  0.1763
  110CHL1   H2514392   1.492   4.536  15.079  0.1143  0.6061  0.6553
  110CHL1   C2614393   1.595   4.346  15.032  0.2787 -0.6664 -0.3204
  110CHL1  H26A14394   1.610   4.363  14.923  1.7777 -0.5723 -0.1218
  110CHL1  H26B14395   1.670   4.281  15.082 -0.5019 -0.9352  0.5156
  110CHL1  H26C14396   1.497   4.294  15.035 -0.5902  0.8884 -0.7131
  110CHL1   C2714397   1.588   4.451  15.270  0.2895  0.6883  0.4053
  110CHL1  H27A14398   1.573   4.549  15.320 -0.8476  1.7033 -1.7705
  110CHL1  H27B14399   1.515   4.377  15.308  0.5460 -0.8291 -1.8635
  110CHL1  H27C14400   1.685   4.401  15.290 -0.7182 -2.7869 -2.3573
  111CHL1    C314401   4.378   1.343  16.348  0.0311  0.4817  0.0707
  111CHL1    H314402   4.312   1.432  16.351 -0.8968 -0.2058  0.9074
  111CHL1    O314403   4.462   1.351  16.461 -0.3634  0.4028  0.2949
  111CHL1   H3'14404   4.490   1.260  16.478  0.2318  0.3975 -0.6240
  111CHL1    C414405   4.283   1.222  16.352  0.0708 -0.2882  0.2872
  111CHL1   H4A14406   4.343   1.128  16.353  0.3081 -0.1699  2.8972
  111CHL1   H4B14407   4.224   1.224  16.446 -0.8907  0.4456 -0.3155
  111CHL1    C514408   4.182   1.220  16.234  0.3660  0.2813 -0.4005
  111CHL1    C614409   4.050   1.214  16.255 -0.4963  0.1847  0.9095
  111CHL1    H614410   4.018   1.190  16.358 -0.2422 -0.7881  0.7727
  111CHL1    C714411   3.955   1.235  16.138 -0.0756 -0.0499  0.5199
  111CHL1   H7A14412   3.867   1.167  16.141  0.7158 -1.3405 -2.2628
  111CHL1   H7B14413   3.927   1.343  16.136  0.3689  0.0600 -0.4985
  111CHL1    C814414   4.015   1.225  15.991 -0.4300 -0.1301  0.8057
  111CHL1    H814415   4.035   1.120  15.962 -1.4583 -0.2288  0.4138
  111CHL1   C1414416   3.921   1.287  15.892 -0.7052 -0.0685 -0.0587
  111CHL1   H1414417   3.905   1.394  15.917  0.7142  0.4818 -1.3262
  111CHL1   C1514418   3.779   1.225  15.880 -0.5411 -0.7563  0.1041
  111CHL1  H15A14419   3.780   1.114  15.888 -1.6220 -0.8835 -1.1955
  111CHL1  H15B14420   3.725   1.267  15.968 -1.9290 -0.9436 -0.6220
  111CHL1   C1614421   3.733   1.273  15.745  0.5582  0.3172  0.2582
  111CHL1  H16A14422   3.703   1.181  15.690  0.3857  1.4490 -1.6190
  111CHL1  H16B14423   3.650   1.347  15.745  0.5099  0.2638 -0.0237
  111CHL1   C1714424   3.852   1.341  15.667 -0.1725 -0.6342  0.2392
  111CHL1   H1714425   3.851   1.447  15.701  1.4299 -0.7773  0.8340
  111CHL1   C1314426   3.971   1.290  15.741  0.4408  0.5167 -0.2129
  111CHL1   C1814427   3.994   1.145  15.692 -0.1740 -0.6207 -0.3852
  111CHL1  H18A14428   3.910   1.075  15.712 -0.8211  0.6162  1.5206
  111CHL1  H18B14429   4.020   1.137  15.584  2.6389 -1.6038  0.2619
  111CHL1  H18C14430   4.080   1.106  15.751 -0.1396  0.3698  0.2294
  111CHL1   C1214431   4.107   1.371  15.742  0.0830  0.1781  0.0517
  111CHL1  H12A14432   4.139   1.365  15.635 -1.4294 -0.3214 -0.3981
  111CHL1  H12B14433   4.090   1.477  15.771 -1.6805  0.0683 -0.4921
  111CHL1   C1114434   4.209   1.321  15.842  0.3256 -0.1951 -0.2818
  111CHL1  H11A14435   4.259   1.232  15.800 -1.1587 -1.1036 -0.1942
  111CHL1  H11B14436   4.285   1.402  15.840  1.4324 -1.1913  0.2460
  111CHL1    C914437   4.150   1.303  15.989 -0.5564  0.4538  0.1609
  111CHL1    H914438   4.130   1.409  16.019  2.7902  1.1074  0.4386
  111CHL1   C1014439   4.250   1.251  16.096  0.8576 -0.8303  0.0578
  111CHL1   C1914440   4.287   1.105  16.051 -0.6955 -0.0995 -0.2155
  111CHL1  H19A14441   4.214   1.022  16.059  2.2475 -3.1422 -2.3179
  111CHL1  H19B14442   4.332   1.104  15.949  2.1492 -1.7201  0.9314
  111CHL1  H19C14443   4.369   1.071  16.118 -1.4606 -1.1522  0.2064
  111CHL1    C114444   4.377   1.339  16.104 -0.1664  0.1940  0.3480
  111CHL1   H1A14445   4.442   1.315  16.016 -0.6943  1.5422 -0.4433
  111CHL1   H1B14446   4.352   1.447  16.090 -0.2178  0.1775  0.3168
  111CHL1    C214447   4.463   1.327  16.224  0.2556  0.0458 -1.2058
  111CHL1   H2A14448   4.540   1.404  16.203 -0.1785  0.4221 -1.4160
  111CHL1   H2B14449   4.512   1.228  16.235 -1.7855 -0.9708 -0.8026
  111CHL1   C2014450   3.843   1.339  15.512 -0.9636  0.2423  0.7106
  111CHL1   H2014451   3.852   1.240  15.464 -0.7588  0.8233 -0.4773
  111CHL1   C2114452   3.933   1.443  15.453 -0.1040  0.6171  0.3379
  111CHL1  H21A14453   4.039   1.417  15.432  0.7354  4.2182 -0.5096
  111CHL1  H21B14454   3.950   1.528  15.523  2.9203  0.4159 -0.0105
  111CHL1  H21C14455   3.908   1.487  15.354  2.1000  1.8519  0.2577
  111CHL1   C2214456   3.701   1.386  15.466 -0.2236 -0.0276 -0.1293
  111CHL1  H22A14457   3.626   1.344  15.536 -1.6296  2.7973  0.2029
  111CHL1  H22B14458   3.690   1.496  15.460  2.3712  0.2662 -0.5577
  111CHL1   C2314459   3.676   1.345  15.322  0.5275  0.2470  0.6838
  111CHL1  H23A14460   3.753   1.389  15.255  0.8676  0.5980  1.2950
  111CHL1  H23B14461   3.686   1.234  15.320  3.6665  0.4467  1.1186
  111CHL1   C2414462   3.536   1.383  15.265 -0.7370  0.5633 -0.3156
  111CHL1  H24A14463   3.456   1.319  15.309  0.4128 -1.4400 -1.0256
  111CHL1  H24B14464   3.520   1.487  15.302  3.0557  1.0747  0.2839
  111CHL1   C2514465   3.513   1.369  15.113 -0.5070  0.2428 -0.2301
  111CHL1   H2514466   3.588   1.435  15.064  2.0168 -0.6089  2.2130
  111CHL1   C2614467   3.542   1.223  15.071 -0.5963  0.2913 -0.1184
  111CHL1  H26A14468   3.537   1.209  14.961 -0.7188  0.8663 -0.1908
  111CHL1  H26B14469   3.651   1.211  15.087 -0.1264  1.4451 -2.0612
  111CHL1  H26C14470   3.482   1.148  15.127  1.2884 -0.6993  0.6647
  111CHL1   C2714471   3.377   1.404  15.061  0.7854 -0.1965 -0.3228
  111CHL1  H27A14472   3.352   1.513  15.056  1.1563 -0.1586 -4.0051
  111CHL1  H27B14473   3.362   1.356  14.962  1.5384 -1.6350  0.2419
  111CHL1  H27C14474   3.304   1.351  15.126 -0.5232  2.7021  0.7537
  112CHL1    C314475   5.631   0.478  16.375 -0.0301  1.0712 -0.7144
  112CHL1    H314476   5.719   0.420  16.410 -0.0363  1.6793  0.3544
  112CHL1    O314477   5.573   0.527  16.492  0.3957  0.4994  0.1704
  112CHL1   H3'14478   5.490   0.567  16.465 -2.2360 -2.8892  2.3744
  112CHL1    C414479   5.685   0.603  16.298  0.2107 -0.3774 -0.0435
  112CHL1   H4A14480   5.597   0.670  16.295  0.2248 -0.3838 -0.7322
  112CHL1   H4B14481   5.758   0.659  16.360  0.6265 -0.7838 -0.1566
  112CHL1    C514482   5.733   0.571  16.156  0.2103 -0.2347 -0.1708
  112CHL1    C614483   5.855   0.606  16.109 -0.3293 -0.1498  1.1057
  112CHL1    H614484   5.926   0.675  16.157  1.9745 -0.3144 -1.7885
  112CHL1    C714485   5.917   0.580  15.970 -0.6788 -0.4542 -0.3039
  112CHL1   H7A14486   5.970   0.669  15.932 -2.0120 -0.4411 -2.2675
  112CHL1   H7B14487   5.982   0.490  15.976 -0.8833 -0.5184  2.5662
  112CHL1    C814488   5.804   0.534  15.875 -0.0842 -0.0934 -0.3094
  112CHL1    H814489   5.749   0.627  15.847 -0.5316 -0.3864 -0.4188
  112CHL1   C1414490   5.866   0.476  15.746 -0.0270  0.1985 -0.1773
  112CHL1   H1414491   5.920   0.380  15.765 -0.4787 -0.6884 -2.9542
  112CHL1   C1514492   5.952   0.577  15.663 -0.4206 -0.4287 -0.1782
  112CHL1  H15A14493   5.905   0.677  15.649 -0.7585 -0.3096  1.6058
  112CHL1  H15B14494   6.049   0.607  15.708 -0.1340 -0.7549 -0.5645
  112CHL1   C1614495   5.964   0.517  15.528  0.3739 -0.0960 -0.2508
  112CHL1  H16A14496   5.955   0.600  15.454 -1.7782 -0.4955 -0.4848
  112CHL1  H16B14497   6.071   0.489  15.512  1.2376  2.8713 -0.4121
  112CHL1   C1714498   5.853   0.407  15.524 -0.4785  0.2426 -0.3490
  112CHL1   H1714499   5.896   0.309  15.554  2.2038  1.2160 -0.7826
  112CHL1   C1314500   5.761   0.441  15.645 -0.0946  0.1819 -0.0929
  112CHL1   C1814501   5.670   0.557  15.598  0.3973 -0.4248  0.3717
  112CHL1  H18A14502   5.598   0.521  15.521 -1.9583 -0.3857  2.4232
  112CHL1  H18B14503   5.607   0.595  15.682 -0.1998  0.0366 -0.2680
  112CHL1  H18C14504   5.730   0.644  15.565  1.4033 -1.0878  0.4060
  112CHL1   C1214505   5.689   0.322  15.710  0.5291 -0.2630 -0.0738
  112CHL1  H12A14506   5.612   0.274  15.646 -0.2966  0.4444  0.3840
  112CHL1  H12B14507   5.766   0.246  15.735  3.0696  2.1667  0.0258
  112CHL1   C1114508   5.613   0.367  15.837  0.6211 -0.0020 -0.5639
  112CHL1  H11A14509   5.520   0.419  15.806 -1.2663 -2.4656  0.6441
  112CHL1  H11B14510   5.581   0.270  15.882 -2.0371  0.1797 -1.8628
  112CHL1    C914511   5.711   0.433  15.943 -0.0741  0.4395 -0.0018
  112CHL1    H914512   5.770   0.344  15.976 -3.3923 -2.2244 -0.7106
  112CHL1   C1014513   5.640   0.483  16.070  0.4470  0.0702 -0.8069
  112CHL1   C1914514   5.514   0.560  16.021  0.9990 -0.1930 -0.3148
  112CHL1  H19A14515   5.549   0.635  15.948  0.9410 -0.5473 -0.7101
  112CHL1  H19B14516   5.421   0.514  15.980  1.0118  0.6514 -1.3296
  112CHL1  H19C14517   5.480   0.620  16.108  0.2941  2.4911 -2.3083
  112CHL1    C114518   5.592   0.363  16.152 -0.3132 -0.1482  0.5519
  112CHL1   H1A14519   5.521   0.306  16.089  1.0982 -2.2503  0.7174
  112CHL1   H1B14520   5.681   0.305  16.186 -0.0851  0.7836  1.5967
  112CHL1    C214521   5.531   0.397  16.282  0.3874  0.6980 -0.4049
  112CHL1   H2A14522   5.492   0.318  16.349 -2.6039  1.1759 -1.3942
  112CHL1   H2B14523   5.444   0.467  16.279  1.9296  2.7615  0.4614
  112CHL1   C2014524   5.793   0.390  15.388 -0.6874  0.4215 -0.6214
  112CHL1   H2014525   5.754   0.490  15.361 -3.6780  0.3084  2.5782
  112CHL1   C2114526   5.676   0.286  15.392 -0.4813  0.0480  0.4245
  112CHL1  H21A14527   5.638   0.282  15.287 -0.6673 -3.1775  0.5177
  112CHL1  H21B14528   5.595   0.334  15.450 -1.4008 -0.3013 -0.5478
  112CHL1  H21C14529   5.693   0.189  15.442 -2.3584 -0.4153  0.2198
  112CHL1   C2214530   5.903   0.346  15.294  0.1055 -0.2895  0.1900
  112CHL1  H22A14531   5.875   0.343  15.186 -0.5375  1.0680  0.3037
  112CHL1  H22B14532   5.993   0.411  15.290  0.0621 -0.2759 -0.7551
  112CHL1   C2314533   5.956   0.202  15.317  0.7065 -0.1350 -0.8710
  112CHL1  H23A14534   6.019   0.206  15.408  1.1436 -0.3503 -1.1582
  112CHL1  H23B14535   5.881   0.122  15.337  0.0606  0.7799  0.4516
  112CHL1   C2414536   6.030   0.139  15.204 -0.0729 -0.8516  0.2167
  112CHL1  H24A14537   6.036   0.029  15.214  1.4564 -1.0969 -2.4051
  112CHL1  H24B14538   5.974   0.162  15.111  0.6802 -1.0212 -0.2902
  112CHL1   C2514539   6.179   0.203  15.183  0.4714 -0.4675  0.0471
  112CHL1   H2514540   6.167   0.311  15.204  2.1169 -0.5456  1.6785
  112CHL1   C2614541   6.275   0.145  15.281 -0.5310 -0.6011 -0.9242
  112CHL1  H26A14542   6.372   0.199  15.280 -1.6167  1.5892  1.6168
  112CHL1  H26B14543   6.232   0.155  15.383 -2.5900  2.7962 -1.9762
  112CHL1  H26C14544   6.295   0.036  15.267  2.7198  0.0041 -1.9188
  112CHL1   C2714545   6.230   0.174  15.040  0.3298  0.0146 -0.5134
  112CHL1  H27A14546   6.325   0.227  15.019 -0.9279  2.0538 -1.4199
  112CHL1  H27B14547   6.253   0.068  15.018 -0.7836 -0.0965 -1.2368
  112CHL1  H27C14548   6.155   0.206  14.964  1.2027  0.0967 -1.3574
  113CHL1    C314549   1.826   4.979  16.415 -0.3099 -0.5216 -0.0533
  113CHL1    H314550   1.809   5.078  16.369  1.9144  0.6728  1.4383
  113CHL1    O314551   1.822   5.023  16.550 -0.2652 -0.4410 -0.3218
  113CHL1   H3'14552   1.887   5.092  16.567 -1.5544  0.4574  1.3691
  113CHL1    C414553   1.730   4.869  16.382  0.3271 -0.0788 -0.6049
  113CHL1   H4A14554   1.751   4.784  16.451  2.0599  0.9158  0.1740
  113CHL1   H4B14555   1.625   4.893  16.410  0.6902 -0.9710  1.7609
  113CHL1    C514556   1.746   4.818  16.242  0.4906  0.4363 -0.8278
  113CHL1    C614557   1.642   4.821  16.156 -0.5558 -0.4399 -0.0884
  113CHL1    H614558   1.544   4.861  16.186 -0.6932 -1.3445  0.7152
  113CHL1    C714559   1.658   4.751  16.021  0.1935  0.4041  0.1182
  113CHL1   H7A14560   1.569   4.688  16.001  0.7703 -0.9225  1.5242
  113CHL1   H7B14561   1.673   4.825  15.940 -0.8013 -0.5240 -0.9443
  113CHL1    C814562   1.789   4.660  15.997  0.9687  0.2640 -0.4156
  113CHL1    H814563   1.788   4.565  16.056  2.0355 -1.4891 -3.0117
  113CHL1   C1414564   1.804   4.632  15.850 -0.3741  0.2248  0.6166
  113CHL1   H1414565   1.809   4.729  15.796 -0.1983 -0.6127 -0.9350
  113CHL1   C1514566   1.694   4.550  15.781 -0.4286  0.5169  0.2817
  113CHL1  H15A14567   1.670   4.453  15.829 -2.6756 -0.3172 -2.2446
  113CHL1  H15B14568   1.608   4.618  15.762 -0.6297  0.1334 -0.2165
  113CHL1   C1614569   1.762   4.512  15.645  0.1448  0.5670  0.5113
  113CHL1  H16A14570   1.740   4.408  15.612 -0.4341  0.6382  0.6481
  113CHL1  H16B14571   1.719   4.575  15.565  1.9206 -0.1071 -1.0378
  113CHL1   C1714572   1.915   4.544  15.660 -0.5063 -0.0975  0.5359
  113CHL1   H1714573   1.942   4.645  15.622  0.8987 -1.3077 -1.9459
  113CHL1   C1314574   1.936   4.563  15.812 -1.0298  0.4345 -0.2347
  113CHL1   C1814575   1.947   4.427  15.886  0.2357  0.1631  0.6138
  113CHL1  H18A14576   1.934   4.449  15.994 -1.5741  1.7815  0.1166
  113CHL1  H18B14577   1.874   4.349  15.855  1.8646 -0.7575 -1.1030
  113CHL1  H18C14578   2.042   4.369  15.877  0.8601  1.2340  0.0386
  113CHL1   C1214579   2.051   4.652  15.866  0.1825 -0.1659  0.7927
  113CHL1  H12A14580   2.153   4.609  15.853  0.0857  0.0441 -0.9169
  113CHL1  H12B14581   2.048   4.739  15.798  0.1400  0.9358  2.1642
  113CHL1   C1114582   2.039   4.697  16.012 -1.0235  0.1252 -1.1625
  113CHL1  H11A14583   2.066   4.602  16.063  0.6087  1.1081 -0.1004
  113CHL1  H11B14584   2.114   4.775  16.036 -0.7351 -0.0062 -1.6378
  113CHL1    C914585   1.903   4.745  16.050  0.8717 -0.3049 -0.1911
  113CHL1    H914586   1.894   4.845  16.002 -0.3663 -0.4561 -0.2985
  113CHL1   C1014587   1.891   4.769  16.202  0.1535  0.1849  0.2032
  113CHL1   C1914588   1.929   4.638  16.275 -0.1520  0.5077  0.1999
  113CHL1  H19A14589   1.902   4.645  16.382 -0.0294 -1.2247  0.3621
  113CHL1  H19B14590   1.893   4.548  16.222 -0.5077  1.5385 -1.3848
  113CHL1  H19C14591   2.040   4.626  16.275 -0.0360  1.4277 -0.5030
  113CHL1    C114592   1.989   4.881  16.249  0.1748  0.1265  0.1234
  113CHL1   H1A14593   2.090   4.837  16.243  0.3697  0.7345 -1.9902
  113CHL1   H1B14594   1.997   4.961  16.171  1.4387 -0.1705 -0.0731
  113CHL1    C214595   1.973   4.935  16.391  0.6372  0.1917  0.2303
  113CHL1   H2A14596   2.034   5.024  16.417 -1.0571  0.7630  2.5537
  113CHL1   H2B14597   1.995   4.850  16.459 -2.3333 -1.3015 -0.4677
  113CHL1   C2014598   1.993   4.436  15.588 -0.2001  0.3872 -0.9190
  113CHL1   H2014599   1.949   4.337  15.611 -2.6444  1.0416 -2.3768
  113CHL1   C2114600   2.140   4.448  15.612 -0.1378 -0.5472  0.0691
  113CHL1  H21A14601   2.185   4.542  15.575 -0.4704  0.4707  2.0555
  113CHL1  H21B14602   2.199   4.366  15.566 -1.8042 -0.7632 -1.8132
  113CHL1  H21C14603   2.162   4.433  15.720  1.1966 -1.8669 -0.3624
  113CHL1   C2214604   1.967   4.438  15.436 -0.4527  0.2196 -0.2916
  113CHL1  H22A14605   1.859   4.423  15.417 -0.6702  1.2091  0.1395
  113CHL1  H22B14606   1.982   4.542  15.400 -1.8340  0.3019 -0.7004
  113CHL1   C2314607   2.043   4.332  15.355 -0.2039 -0.2158  0.8525
  113CHL1  H23A14608   2.153   4.335  15.372 -0.2074 -1.1664  1.0687
  113CHL1  H23B14609   2.015   4.228  15.383  0.7635 -1.2914 -1.8458
  113CHL1   C2414610   2.001   4.350  15.208 -0.2365 -0.7041  0.9750
  113CHL1  H24A14611   1.895   4.322  15.196 -0.3637 -0.3112  1.1744
  113CHL1  H24B14612   2.012   4.458  15.181  0.6061 -0.9838  0.1136
  113CHL1   C2514613   2.097   4.273  15.106  0.8778  0.0882 -0.4676
  113CHL1   H2514614   2.101   4.167  15.142 -3.5930 -1.1006 -2.8173
  113CHL1   C2614615   2.040   4.272  14.961 -0.6036 -0.0625  0.2909
  113CHL1  H26A14616   2.109   4.216  14.896  1.1738  2.4526 -0.1567
  113CHL1  H26B14617   1.940   4.224  14.958  0.3313 -2.0763  0.2129
  113CHL1  H26C14618   2.030   4.374  14.917  2.2772 -1.0434 -3.0180
  113CHL1   C2714619   2.242   4.346  15.109  0.5065 -0.2402 -0.3406
  113CHL1  H27A14620   2.308   4.324  15.022  1.8360  0.1798  0.5298
  113CHL1  H27B14621   2.218   4.454  15.105  1.5734 -0.0159 -0.9194
  113CHL1  H27C14622   2.292   4.317  15.204  2.1325 -0.8383 -1.3403
  114CHL1    C314623   6.157   0.083  16.446  0.5373 -0.1443 -0.0297
  114CHL1    H314624   6.233   0.159  16.417 -1.1709  1.1178 -1.4488
  114CHL1    O314625   6.123   0.097  16.583 -0.4091  0.2578  0.0913
  114CHL1   H3'14626   6.100   0.007  16.605  1.5874 -0.6721 -1.2911
  114CHL1    C414627   6.040   0.102  16.359  0.0769 -0.2003 -0.1358
  114CHL1   H4A14628   5.967   0.026  16.395 -1.3364  0.7926 -0.7852
  114CHL1   H4B14629   5.994   0.202  16.375 -0.0927  0.0739 -2.0676
  114CHL1    C514630   6.048   0.066  16.211  1.0148  0.6696  0.2921
  114CHL1    C614631   6.010   0.146  16.114 -0.4538 -0.5624  0.0435
  114CHL1    H614632   5.976   0.246  16.148 -0.2006 -0.6266  0.5042
  114CHL1    C714633   6.020   0.111  15.970  0.6865 -0.4993 -0.5635
  114CHL1   H7A14634   5.934   0.152  15.912  1.4452 -0.7549 -1.8956
  114CHL1   H7B14635   6.106   0.165  15.923 -0.5280  0.9922 -1.1734
  114CHL1    C814636   6.043  -0.037  15.932 -0.0675 -0.0540 -0.4816
  114CHL1    H814637   5.948  -0.094  15.945  1.5123 -2.6174  0.5882
  114CHL1   C1414638   6.090  -0.050  15.789 -0.4457  0.0943  0.3094
  114CHL1   H1414639   6.183   0.010  15.783 -0.9087  0.7328 -0.6692
  114CHL1   C1514640   6.010   0.003  15.675  0.0727  0.5206  0.1979
  114CHL1  H15A14641   5.904  -0.027  15.689 -0.6181  1.9642 -1.4633
  114CHL1  H15B14642   5.999   0.111  15.649 -2.0050  0.3733  0.3056
  114CHL1   C1614643   6.061  -0.063  15.549 -0.3527 -0.4849  0.5016
  114CHL1  H16A14644   5.976  -0.087  15.481 -0.8818  1.8292  0.2702
  114CHL1  H16B14645   6.128   0.004  15.491 -0.5967  0.5143  1.3329
  114CHL1   C1714646   6.152  -0.181  15.587 -0.7645 -0.4521 -0.8257
  114CHL1   H1714647   6.256  -0.143  15.589 -0.7432 -0.4929 -1.1958
  114CHL1   C1314648   6.126  -0.198  15.741 -0.4566 -0.4890  0.2285
  114CHL1   C1814649   6.007  -0.293  15.762  0.2843  0.3156 -0.2902
  114CHL1  H18A14650   6.044  -0.393  15.731  1.8342  1.0030 -0.7597
  114CHL1  H18B14651   5.961  -0.302  15.863 -2.4489 -3.2631 -1.6195
  114CHL1  H18C14652   5.927  -0.270  15.688 -1.0553  0.3202  1.1229
  114CHL1   C1214653   6.238  -0.246  15.836 -0.1241  0.0036  0.6073
  114CHL1  H12A14654   6.281  -0.345  15.812  2.0142  0.7940  1.0088
  114CHL1  H12B14655   6.321  -0.180  15.805 -1.1503  0.5345 -1.2121
  114CHL1   C1114656   6.201  -0.235  15.986  0.0916  0.4127  0.2667
  114CHL1  H11A14657   6.124  -0.312  16.006  1.5844 -1.4457 -0.7458
  114CHL1  H11B14658   6.294  -0.251  16.045  1.5925  2.1837 -1.4675
  114CHL1    C914659   6.149  -0.094  16.027 -0.8447  0.6781 -0.0624
  114CHL1    H914660   6.241  -0.033  16.012 -0.8849  0.7209 -0.1362
  114CHL1   C1014661   6.112  -0.075  16.180  0.2944 -0.4036  0.1749
  114CHL1   C1914662   6.014  -0.187  16.218 -0.1735  0.2969  0.0049
  114CHL1  H19A14663   5.959  -0.177  16.315  2.2578  0.9557  1.4106
  114CHL1  H19B14664   5.939  -0.195  16.137  0.6227 -1.8761 -0.5847
  114CHL1  H19C14665   6.064  -0.286  16.218 -0.1784  0.2678 -1.6954
  114CHL1    C114666   6.237  -0.079  16.271 -0.5304  0.2974 -0.8619
  114CHL1   H1A14667   6.296  -0.173  16.269  1.3394  1.4051 -2.2531
  114CHL1   H1B14668   6.316  -0.014  16.227  2.1318 -1.0745  1.5364
  114CHL1    C214669   6.221  -0.054  16.422 -0.6171  0.1586  0.6685
  114CHL1   H2A14670   6.321  -0.075  16.466  0.5793 -1.3400 -2.4249
  114CHL1   H2B14671   6.149  -0.133  16.451  0.0128 -0.5649  0.3164
  114CHL1   C2014672   6.147  -0.295  15.493 -0.0322 -0.0253 -0.3699
  114CHL1   H2014673   6.043  -0.334  15.483  0.4060 -1.3404 -0.0005
  114CHL1   C2114674   6.229  -0.422  15.535  0.0696 -0.0964 -0.0289
  114CHL1  H21A14675   6.171  -0.516  15.549  1.4468 -0.7463  1.6009
  114CHL1  H21B14676   6.287  -0.398  15.626 -2.2183  0.5656  1.3388
  114CHL1  H21C14677   6.306  -0.447  15.459 -0.3043  0.6439 -0.6694
  114CHL1   C2214678   6.186  -0.259  15.342 -0.7989 -0.0150 -0.8468
  114CHL1  H22A14679   6.165  -0.153  15.319  0.5274  0.1338 -1.4584
  114CHL1  H22B14680   6.295  -0.275  15.331 -0.6606 -0.5973  0.9686
  114CHL1   C2314681   6.125  -0.357  15.243 -0.3325  0.0040  0.4144
  114CHL1  H23A14682   6.153  -0.461  15.269  1.3331 -0.0154 -1.2751
  114CHL1  H23B14683   6.014  -0.349  15.235 -0.4149 -0.0224  1.3709
  114CHL1   C2414684   6.169  -0.336  15.093 -0.1238 -0.0100  0.0785
  114CHL1  H24A14685   6.279  -0.350  15.091 -0.2144 -0.6296 -0.7757
  114CHL1  H24B14686   6.120  -0.414  15.032  0.8896 -1.7858  1.4239
  114CHL1   C2514687   6.143  -0.202  15.019 -0.3011 -0.1216  0.3701
  114CHL1   H2514688   6.202  -0.135  15.086  0.5218  0.0359 -0.5016
  114CHL1   C2614689   6.195  -0.193  14.881 -0.5523 -0.7227 -0.0333
  114CHL1  H26A14690   6.303  -0.215  14.894 -0.5855 -0.0362  1.5279
  114CHL1  H26B14691   6.146  -0.265  14.812  2.3549 -2.1330 -0.7879
  114CHL1  H26C14692   6.179  -0.086  14.854  0.1297 -1.1137 -2.1960
  114CHL1   C2714693   5.988  -0.168  15.035 -0.9050  0.0224 -0.2133
  114CHL1  H27A14694   5.930  -0.250  14.987 -1.2128 -1.3886  2.3706
  114CHL1  H27B14695   5.957  -0.158  15.141  0.7972 -0.0386  0.3221
  114CHL1  H27C14696   5.967  -0.076  14.977 -0.0904  1.1875  1.2846
  115CHL1    C314697   3.206   0.221  16.443  0.1738  0.1547  0.1661
  115CHL1    H314698   3.201   0.113  16.415 -2.0154  0.6969 -1.8184
  115CHL1    O314699   3.247   0.235  16.577 -0.0119  0.3666 -0.3641
  115CHL1   H3'14700   3.315   0.303  16.571 -0.2221  0.6405  0.1902
  115CHL1    C414701   3.329   0.259  16.359 -0.7400 -0.2736 -0.0215
  115CHL1   H4A14702   3.363   0.359  16.395 -0.2450 -0.1171 -0.8929
  115CHL1   H4B14703   3.409   0.186  16.382 -2.3782 -2.4642 -1.0179
  115CHL1    C514704   3.296   0.266  16.212  0.2753  0.3623 -0.6460
  115CHL1    C614705   3.368   0.197  16.118  0.4189 -0.4515  0.8778
  115CHL1    H614706   3.450   0.136  16.159  1.2108  1.6907  2.7648
  115CHL1    C714707   3.357   0.202  15.970 -0.2403 -0.6356 -0.4737
  115CHL1   H7A14708   3.458   0.214  15.925 -0.5454 -0.1479 -1.0457
  115CHL1   H7B14709   3.313   0.106  15.934 -0.7461  0.5173 -3.2099
  115CHL1    C814710   3.267   0.319  15.926  0.3057  0.5313  0.1565
  115CHL1    H814711   3.322   0.414  15.941 -2.9378  2.5272  0.1923
  115CHL1   C1414712   3.228   0.290  15.774 -0.0939 -0.9883  0.1275
  115CHL1   H1414713   3.173   0.194  15.769  2.2086 -2.3452 -0.4479
  115CHL1   C1514714   3.330   0.279  15.668 -0.2859  0.2647  0.1077
  115CHL1  H15A14715   3.414   0.350  15.675 -0.7005  0.8790 -0.9068
  115CHL1  H15B14716   3.379   0.179  15.670  0.4340  0.5946  2.8982
  115CHL1   C1614717   3.255   0.301  15.539  0.3711  0.2604  0.4309
  115CHL1  H16A14718   3.288   0.395  15.489 -0.0405  0.7422  1.0432
  115CHL1  H16B14719   3.260   0.221  15.462 -0.1212 -1.2248  1.8793
  115CHL1   C1714720   3.103   0.339  15.574 -0.9731  0.8778  0.2557
  115CHL1   H1714721   3.047   0.244  15.578 -1.2621  1.0250 -0.2306
  115CHL1   C1314722   3.123   0.393  15.718  0.5530  0.5846  0.0807
  115CHL1   C1814723   3.182   0.536  15.715 -0.0202 -0.1965 -0.4569
  115CHL1  H18A14724   3.256   0.567  15.638  1.9204 -0.5690  1.1702
  115CHL1  H18B14725   3.100   0.611  15.713  1.0674  1.2588  2.6222
  115CHL1  H18C14726   3.242   0.555  15.807 -1.4232 -0.7403  0.6160
  115CHL1   C1214727   3.000   0.387  15.805 -0.3341 -0.2252 -0.6086
  115CHL1  H12A14728   2.924   0.465  15.783 -0.2810  0.0707  0.2262
  115CHL1  H12B14729   2.945   0.291  15.804 -0.8390  0.0633 -1.4235
  115CHL1   C1114730   3.028   0.411  15.958  0.3215 -0.3985 -0.0291
  115CHL1  H11A14731   3.052   0.518  15.973  2.2688 -1.0175  1.9341
  115CHL1  H11B14732   2.928   0.391  16.002  0.0800  1.7688  0.5331
  115CHL1    C914733   3.141   0.324  16.018  0.5950 -0.3465 -0.3164
  115CHL1    H914734   3.107   0.219  16.024  1.7857 -0.6501  2.4959
  115CHL1   C1014735   3.172   0.345  16.170  0.3716  0.2068 -0.3429
  115CHL1   C1914736   3.204   0.490  16.190  0.3132 -0.0106 -0.1240
  115CHL1  H19A14737   3.121   0.560  16.166 -0.8111 -1.7866 -1.6625
  115CHL1  H19B14738   3.231   0.499  16.298  1.3384 -0.2568 -0.3523
  115CHL1  H19C14739   3.289   0.514  16.124  0.0871 -1.5663 -1.0349
  115CHL1    C114740   3.045   0.302  16.260  0.0293 -0.3553  0.3989
  115CHL1   H1A14741   2.960   0.372  16.244 -0.3792 -0.8141  0.5403
  115CHL1   H1B14742   3.018   0.199  16.230  2.4596 -0.6167 -1.1005
  115CHL1    C214743   3.082   0.304  16.417  0.2768 -0.4570 -0.9249
  115CHL1   H2A14744   2.994   0.274  16.478 -1.0921 -0.1209 -2.6294
  115CHL1   H2B14745   3.105   0.410  16.442 -0.0262 -0.0670 -2.2312
  115CHL1   C2014746   3.033   0.432  15.470 -0.5768 -0.3927  0.1134
  115CHL1   H2014747   3.084   0.530  15.471 -0.1430 -0.5542  3.4122
  115CHL1   C2114748   2.883   0.465  15.495 -0.1656 -0.4536  0.5123
  115CHL1  H21A14749   2.822   0.374  15.482  1.8191 -1.5022 -2.8362
  115CHL1  H21B14750   2.836   0.533  15.420  1.0606 -2.4574 -2.2503
  115CHL1  H21C14751   2.867   0.514  15.594  2.8659  2.0684 -0.0785
  115CHL1   C2214752   3.051   0.381  15.324 -0.0883 -0.2074  0.4240
  115CHL1  H22A14753   3.001   0.445  15.248 -1.5630  0.1544  1.6508
  115CHL1  H22B14754   3.159   0.374  15.299 -0.3265  1.0183 -1.0564
  115CHL1   C2314755   2.989   0.243  15.294 -1.0678 -0.1608 -0.4953
  115CHL1  H23A14756   3.042   0.181  15.370  2.1854  1.4441 -1.3371
  115CHL1  H23B14757   2.882   0.262  15.320 -0.6782  1.6772 -0.1743
  115CHL1   C2414758   3.029   0.199  15.152  0.3834  0.0051 -0.5433
  115CHL1  H24A14759   3.011   0.276  15.075 -1.5905 -1.5838 -1.7670
  115CHL1  H24B14760   3.138   0.201  15.175  0.2102 -1.5849  0.6525
  115CHL1   C2514761   2.971   0.062  15.112 -0.4602 -0.1305 -0.3493
  115CHL1   H2514762   2.864   0.089  15.094  0.2670  1.6642 -2.5400
  115CHL1   C2614763   3.027   0.026  14.976  0.2910 -0.0492 -0.1203
  115CHL1  H26A14764   2.965  -0.056  14.934 -2.3046  0.4839  2.3371
  115CHL1  H26B14765   3.009   0.109  14.905 -0.2887  0.2960  0.4235
  115CHL1  H26C14766   3.131  -0.011  14.987  0.0535 -0.6352  0.1781
  115CHL1   C2714767   2.995  -0.054  15.211 -0.7363  0.5765 -0.6027
  115CHL1  H27A14768   2.994  -0.155  15.166 -1.0486  0.5643 -0.5738
  115CHL1  H27B14769   3.105  -0.045  15.227 -0.3624  2.2451 -3.3809
  115CHL1  H27C14770   2.936  -0.046  15.305  0.1398  0.3631 -0.0213
  116CHL1    C314771   4.483   7.292  16.304 -0.0093 -0.6126  0.6369
  116CHL1    H314772   4.379   7.304  16.342 -0.5063  1.3450 -1.1654
  116CHL1    O314773   4.583   7.285  16.404 -0.0234 -0.1833 -0.3115
  116CHL1   H3'14774   4.571   7.193  16.430 -1.9025 -0.5474 -2.2161
  116CHL1    C414775   4.494   7.162  16.223  0.1732 -0.1494  0.4903
  116CHL1   H4A14776   4.597   7.161  16.181  0.3988  1.0192  0.9826
  116CHL1   H4B14777   4.478   7.074  16.289  1.8295 -0.5562  0.3859
  116CHL1    C514778   4.391   7.162  16.112 -0.0228  0.3131 -0.6338
  116CHL1    C614779   4.293   7.068  16.111 -0.0649 -0.0071 -0.2593
  116CHL1    H614780   4.288   6.999  16.196  0.6492  1.0602  0.6746
  116CHL1    C714781   4.184   7.063  16.008  0.1913  0.0881 -0.0921
  116CHL1   H7A14782   4.177   6.958  15.972  0.9471  0.0920 -0.2682
  116CHL1   H7B14783   4.083   7.096  16.041 -0.5623 -0.9364 -1.2321
  116CHL1    C814784   4.215   7.142  15.879 -0.0275 -0.2729 -0.8096
  116CHL1    H814785   4.301   7.093  15.830  1.6597  0.6758  1.0299
  116CHL1   C1414786   4.091   7.157  15.789  0.3146  0.0287  0.1917
  116CHL1   H1414787   4.016   7.200  15.859  0.0211 -0.4511  0.1799
  116CHL1   C1514788   4.030   7.027  15.739 -0.6773  0.4072  0.1472
  116CHL1  H15A14789   4.098   6.947  15.701 -1.6761  0.1827 -1.2499
  116CHL1  H15B14790   3.962   6.976  15.811 -2.0554 -0.1071 -1.4596
  116CHL1   C1614791   3.939   7.072  15.621 -0.1976 -0.3656  0.2582
  116CHL1  H16A14792   3.984   7.014  15.538  0.9525 -0.2322  0.7738
  116CHL1  H16B14793   3.829   7.059  15.623 -0.2562 -0.3132 -1.4488
  116CHL1   C1714794   3.975   7.224  15.608  0.9904 -0.7429 -0.2062
  116CHL1   H1714795   3.902   7.274  15.675  1.3286 -0.0947 -0.3095
  116CHL1   C1314796   4.108   7.249  15.668 -0.0235  0.5013 -0.1824
  116CHL1   C1814797   4.225   7.197  15.576  0.4313 -0.1636  0.4360
  116CHL1  H18A14798   4.325   7.195  15.622  0.5548 -0.4295  0.1626
  116CHL1  H18B14799   4.195   7.092  15.556 -1.3600  0.3042  0.4437
  116CHL1  H18C14800   4.233   7.247  15.477 -0.6927  0.9213  0.8589
  116CHL1   C1214801   4.149   7.397  15.714  0.5623 -0.2293  0.2378
  116CHL1  H12A14802   4.175   7.462  15.628  1.7063 -1.3379 -0.2865
  116CHL1  H12B14803   4.065   7.441  15.773  2.4134  0.3409  2.5845
  116CHL1   C1114804   4.264   7.386  15.810  0.5335 -0.4650 -0.4756
  116CHL1  H11A14805   4.355   7.372  15.748  1.5520 -0.2791  0.9318
  116CHL1  H11B14806   4.287   7.487  15.849  2.1910 -1.2361  0.5980
  116CHL1    C914807   4.260   7.282  15.925  0.0394 -0.2017  0.0344
  116CHL1    H914808   4.178   7.314  15.993 -0.2486 -0.0308 -0.3899
  116CHL1   C1014809   4.389   7.278  16.015  0.4944 -0.5666 -0.3634
  116CHL1   C1914810   4.513   7.262  15.917 -0.4719  0.2011 -0.9839
  116CHL1  H19A14811   4.520   7.348  15.847 -1.2474 -0.3990 -1.8269
  116CHL1  H19B14812   4.607   7.273  15.976 -0.6566  2.2886 -1.0212
  116CHL1  H19C14813   4.502   7.169  15.858  0.3228 -0.7088  0.2527
  116CHL1    C114814   4.400   7.407  16.096  0.2858 -0.0015 -0.5910
  116CHL1   H1A14815   4.418   7.483  16.017  0.7481 -0.6134 -1.0874
  116CHL1   H1B14816   4.300   7.431  16.139  0.2935  0.6768 -0.9323
  116CHL1    C214817   4.515   7.409  16.209  0.1260  1.0485 -0.2154
  116CHL1   H2A14818   4.514   7.512  16.250 -1.6346  1.3133 -0.8210
  116CHL1   H2B14819   4.612   7.390  16.157 -1.1343  1.1460 -2.7579
  116CHL1   C2014820   3.944   7.274  15.467 -0.1426 -0.3307 -0.9725
  116CHL1   H2014821   4.010   7.221  15.395  1.0052 -0.0380 -0.1713
  116CHL1   C2114822   3.959   7.422  15.455 -0.1304  0.1068 -0.2583
  116CHL1  H21A14823   3.921   7.454  15.356 -1.8652 -2.3717 -0.4886
  116CHL1  H21B14824   4.061   7.462  15.473 -1.4121  3.4990  0.1237
  116CHL1  H21C14825   3.894   7.469  15.531 -0.9639 -1.2168 -0.1133
  116CHL1   C2214826   3.801   7.226  15.412 -0.1746 -0.8240 -0.2719
  116CHL1  H22A14827   3.798   7.117  15.432 -0.2997 -0.7002  0.4339
  116CHL1  H22B14828   3.713   7.277  15.457 -0.0109  0.0806 -0.9380
  116CHL1   C2314829   3.786   7.255  15.262  0.0397 -0.6178 -0.1499
  116CHL1  H23A14830   3.771   7.363  15.242 -1.2818 -1.1348 -2.2898
  116CHL1  H23B14831   3.878   7.220  15.210  1.7479  0.6777  1.8253
  116CHL1   C2414832   3.663   7.183  15.199 -0.3935 -0.2762 -0.9103
  116CHL1  H24A14833   3.648   7.075  15.217  0.4123 -0.2889 -0.2561
  116CHL1  H24B14834   3.570   7.217  15.250  0.0417  2.1275 -1.5834
  116CHL1   C2514835   3.670   7.196  15.045  0.3564  1.4480 -0.7794
  116CHL1   H2514836   3.762   7.153  15.000 -0.1015 -0.6904  0.1933
  116CHL1   C2614837   3.556   7.117  14.995 -0.0451 -0.4438 -0.0395
  116CHL1  H26A14838   3.562   7.018  15.044 -3.6499 -1.1359 -0.7030
  116CHL1  H26B14839   3.460   7.165  15.025 -0.8030 -1.6996 -0.3678
  116CHL1  H26C14840   3.567   7.105  14.885 -0.1467 -0.9933  0.0104
  116CHL1   C2714841   3.672   7.349  15.001 -0.5103 -0.1981  0.0583
  116CHL1  H27A14842   3.632   7.418  15.078 -0.5492  0.0702 -0.2001
  116CHL1  H27B14843   3.778   7.383  14.994 -0.8875  0.7352 -2.3898
  116CHL1  H27C14844   3.627   7.360  14.900  2.9209  0.2932 -1.5909
  117CHL1    C314845   6.647   0.199  16.436 -0.2978 -0.2070 -0.3138
  117CHL1    H314846   6.688   0.096  16.426  0.7021  0.1546  0.0214
  117CHL1    O314847   6.560   0.203  16.544  0.3027 -0.2096  0.2391
  117CHL1   H3'14848   6.537   0.295  16.559  0.8497 -0.0505  0.1289
  117CHL1    C414849   6.766   0.297  16.454 -0.3410 -0.3065 -0.2781
  117CHL1   H4A14850   6.719   0.396  16.474  0.5382 -0.2656  1.7817
  117CHL1   H4B14851   6.824   0.264  16.542 -0.2052  0.2641 -0.1449
  117CHL1    C514852   6.848   0.296  16.329 -0.5110  0.2648  0.0058
  117CHL1    C614853   6.978   0.271  16.346 -0.0855  0.1895  0.1559
  117CHL1    H614854   7.020   0.256  16.447 -1.5253  1.0565  0.9169
  117CHL1    C714855   7.076   0.264  16.237 -0.5637 -0.3402 -0.8067
  117CHL1   H7A14856   7.172   0.311  16.267 -0.3018 -1.7188  0.6083
  117CHL1   H7B14857   7.099   0.160  16.205  3.6765  0.1721 -0.0221
  117CHL1    C814858   7.020   0.331  16.104  0.2501 -0.0082 -0.1663
  117CHL1    H814859   7.024   0.441  16.116  2.0794 -0.1470  0.9364
  117CHL1   C1414860   7.111   0.302  15.977 -0.3654  0.3997 -0.4281
  117CHL1   H1414861   7.110   0.192  15.964  0.4099  0.5604 -2.0562
  117CHL1   C1514862   7.269   0.330  15.984  0.4887 -0.1031 -0.1047
  117CHL1  H15A14863   7.281   0.438  16.009 -1.0432  0.3647 -1.2343
  117CHL1  H15B14864   7.317   0.266  16.061  2.5883 -0.0843 -1.3324
  117CHL1   C1614865   7.309   0.299  15.836  0.0667  0.8053 -0.1184
  117CHL1  H16A14866   7.378   0.380  15.806  1.4606 -1.4670 -3.5972
  117CHL1  H16B14867   7.358   0.200  15.829  0.3255  0.6901  2.3096
  117CHL1   C1714868   7.174   0.294  15.753  0.4285 -0.4895  0.2471
  117CHL1   H1714869   7.156   0.186  15.736  1.6913 -0.9039  1.3998
  117CHL1   C1314870   7.060   0.350  15.842  0.8763 -0.4659 -0.3381
  117CHL1   C1814871   7.074   0.507  15.846 -0.6818  0.5407 -0.5785
  117CHL1  H18A14872   7.024   0.549  15.937  0.8198 -2.9699  2.1035
  117CHL1  H18B14873   7.178   0.544  15.846  0.0542 -1.0516  3.2095
  117CHL1  H18C14874   7.023   0.539  15.752 -0.0242  2.2111 -0.4097
  117CHL1   C1214875   6.917   0.311  15.811  0.2390 -1.0486 -0.4287
  117CHL1  H12A14876   6.876   0.375  15.730 -0.9340  1.2994  1.8891
  117CHL1  H12B14877   6.916   0.202  15.790 -1.9876 -0.8835 -1.4997
  117CHL1   C1114878   6.826   0.341  15.936 -0.6580  0.3602 -0.3142
  117CHL1  H11A14879   6.813   0.451  15.937 -0.1024  0.4342  0.8961
  117CHL1  H11B14880   6.731   0.289  15.913  0.5116 -1.3298 -1.6582
  117CHL1    C914881   6.877   0.285  16.074  0.9109 -0.0980  0.2006
  117CHL1    H914882   6.893   0.176  16.058  0.3393 -0.0019 -1.1885
  117CHL1   C1014883   6.776   0.315  16.189 -0.0381  0.0670 -0.8069
  117CHL1   C1914884   6.736   0.470  16.187 -0.4163 -0.0174 -0.3514
  117CHL1  H19A14885   6.661   0.487  16.108 -0.2180  1.1600 -0.2960
  117CHL1  H19B14886   6.688   0.493  16.284  2.4611  3.5859  0.4371
  117CHL1  H19C14887   6.824   0.537  16.177  0.5469 -1.3716 -1.4931
  117CHL1    C114888   6.653   0.233  16.187  0.3466  0.3478 -0.4007
  117CHL1   H1A14889   6.590   0.252  16.098 -1.5469 -2.0384  0.3280
  117CHL1   H1B14890   6.687   0.129  16.170 -2.2860 -0.6464 -0.0577
  117CHL1    C214891   6.563   0.229  16.310 -0.5503  0.1030  0.0581
  117CHL1   H2A14892   6.505   0.137  16.289  0.7117 -0.3085 -1.9227
  117CHL1   H2B14893   6.498   0.318  16.325  0.9881  1.6502 -1.9110
  117CHL1   C2014894   7.190   0.358  15.613  0.3203 -0.4983 -0.2699
  117CHL1   H2014895   7.197   0.468  15.627  1.9448 -0.5317 -0.6110
  117CHL1   C2114896   7.080   0.331  15.513 -0.8013 -0.1329 -0.0898
  117CHL1  H21A14897   6.979   0.364  15.544 -1.6044 -1.0597 -1.5635
  117CHL1  H21B14898   7.063   0.222  15.495 -3.1611  0.0243  0.7991
  117CHL1  H21C14899   7.105   0.386  15.420  3.1840  0.1399  0.9635
  117CHL1   C2214900   7.326   0.335  15.541  0.0789  0.2099 -0.3189
  117CHL1  H22A14901   7.335   0.404  15.455 -0.9899  0.3878 -0.3020
  117CHL1  H22B14902   7.408   0.363  15.611  0.3293 -2.0201  0.3723
  117CHL1   C2314903   7.347   0.195  15.483  0.6499 -0.2786  0.4012
  117CHL1  H23A14904   7.341   0.123  15.568  2.0777  1.9729  2.5590
  117CHL1  H23B14905   7.263   0.171  15.415 -1.0778 -0.2891  2.4464
  117CHL1   C2414906   7.482   0.188  15.407 -0.1094  0.3218  0.3780
  117CHL1  H24A14907   7.511   0.282  15.356  1.6367 -0.6024 -0.4602
  117CHL1  H24B14908   7.558   0.178  15.487 -1.3855  0.7100  1.6737
  117CHL1   C2514909   7.487   0.083  15.295 -0.3998 -0.0323 -0.0947
  117CHL1   H2514910   7.413   0.114  15.218  0.8184  1.5075 -0.6815
  117CHL1   C2614911   7.623   0.078  15.230  0.5323 -0.1539  0.0122
  117CHL1  H26A14912   7.638  -0.011  15.166 -0.8381 -0.1643 -0.3146
  117CHL1  H26B14913   7.635   0.178  15.182  0.0048  0.5630  1.3040
  117CHL1  H26C14914   7.703   0.062  15.306  1.7108  0.9022 -0.9591
  117CHL1   C2714915   7.441  -0.056  15.345  0.2638 -0.0991  0.0048
  117CHL1  H27A14916   7.338  -0.041  15.381  0.9987  2.4570  1.2338
  117CHL1  H27B14917   7.428  -0.136  15.269 -2.5501  0.2535  0.0231
  117CHL1  H27C14918   7.521  -0.089  15.415  0.6497 -1.3241 -0.9637
  118CHL1    C314919   0.313   1.310  16.669 -0.6309  0.1841 -0.3554
  118CHL1    H314920   0.222   1.250  16.646  0.3988 -1.3406 -0.6502
  118CHL1    O314921   0.308   1.324  16.807 -0.0684 -0.3457  0.0886
  118CHL1   H3'14922   0.285   1.417  16.816 -3.7652 -1.0138 -0.8527
  118CHL1    C414923   0.431   1.222  16.632 -0.0673 -0.1096 -0.6821
  118CHL1   H4A14924   0.519   1.278  16.669 -0.0519  0.3779 -1.4459
  118CHL1   H4B14925   0.419   1.127  16.689  1.3329  0.0732 -0.0199
  118CHL1    C514926   0.449   1.200  16.486 -0.7559  0.0724 -0.9961
  118CHL1    C614927   0.457   1.074  16.440 -0.3075 -0.4673  1.0079
  118CHL1    H614928   0.464   0.988  16.508 -0.6350 -1.7172 -0.4791
  118CHL1    C714929   0.460   1.048  16.292 -0.1032 -0.1794 -1.4536
  118CHL1   H7A14930   0.528   0.961  16.276 -1.3113 -1.7240  1.2423
  118CHL1   H7B14931   0.360   1.008  16.262 -0.2650 -0.9286 -0.0045
  118CHL1    C814932   0.498   1.170  16.203 -0.7416  0.3923 -0.2971
  118CHL1    H814933   0.606   1.190  16.215 -0.3581 -1.6160  0.0561
  118CHL1   C1414934   0.486   1.139  16.057 -0.1959  0.1723  0.2858
  118CHL1   H1414935   0.376   1.121  16.048 -0.3867  0.4069  1.8691
  118CHL1   C1514936   0.555   1.014  15.999 -0.5296  0.0952 -0.3901
  118CHL1  H15A14937   0.651   1.009  16.054 -0.6436  1.1290 -0.0668
  118CHL1  H15B14938   0.497   0.920  16.011  2.2283 -1.7082 -0.2618
  118CHL1   C1614939   0.573   1.037  15.855 -0.4582 -0.2423  0.2464
  118CHL1  H16A14940   0.681   1.026  15.832 -0.5535 -1.1472  0.1975
  118CHL1  H16B14941   0.535   0.952  15.796  0.7582 -0.4548 -0.2563
  118CHL1   C1714942   0.509   1.174  15.827 -0.4455 -0.1346  0.3180
  118CHL1   H1714943   0.401   1.166  15.803 -0.8047  1.0160  1.4263
  118CHL1   C1314944   0.517   1.251  15.956 -0.1841  0.2232 -0.0649
  118CHL1   C1814945   0.670   1.296  15.979 -0.7845  0.0286  0.1506
  118CHL1  H18A14946   0.679   1.332  16.084 -2.8992 -2.8741  1.4793
  118CHL1  H18B14947   0.742   1.212  15.969 -2.4834 -1.3530 -1.1925
  118CHL1  H18C14948   0.705   1.373  15.908 -0.8628 -0.4355 -0.3984
  118CHL1   C1214949   0.425   1.369  15.996 -0.4322  0.5988  0.0402
  118CHL1  H12A14950   0.436   1.454  15.925  3.7641 -0.7555 -1.2646
  118CHL1  H12B14951   0.323   1.325  15.993  0.1576 -0.8188 -0.5879
  118CHL1   C1114952   0.439   1.419  16.140 -0.3492  0.0969  0.0199
  118CHL1  H11A14953   0.536   1.471  16.153  0.8137 -1.0405 -3.1529
  118CHL1  H11B14954   0.349   1.481  16.155 -0.5895 -0.2912  0.2063
  118CHL1    C914955   0.421   1.295  16.246  0.2071 -0.5253  0.0505
  118CHL1    H914956   0.317   1.260  16.231  0.6928 -1.2475 -1.8809
  118CHL1   C1014957   0.434   1.325  16.399  0.1249 -0.1444  0.4866
  118CHL1   C1914958   0.557   1.417  16.415 -0.1848 -1.0358 -0.1195
  118CHL1  H19A14959   0.635   1.385  16.342  0.0206  1.5141 -1.1220
  118CHL1  H19B14960   0.535   1.520  16.380  0.3443 -0.8117  0.1862
  118CHL1  H19C14961   0.591   1.436  16.520 -0.2806  3.1571 -0.6966
  118CHL1    C114962   0.315   1.404  16.447 -0.2124  0.1766  0.3500
  118CHL1   H1A14963   0.307   1.501  16.395 -1.0283  0.1021  0.3252
  118CHL1   H1B14964   0.221   1.346  16.433 -0.4427  0.7622 -0.6424
  118CHL1    C214965   0.316   1.438  16.598  0.2819 -0.0437 -0.5671
  118CHL1   H2A14966   0.224   1.492  16.630  0.4900  0.3906 -0.6904
  118CHL1   H2B14967   0.401   1.500  16.634  1.8034 -1.0002 -2.3541
  118CHL1   C2014968   0.588   1.242  15.698  0.1031  0.6190  0.1695
  118CHL1   H2014969   0.688   1.271  15.737  0.3683  0.3441 -0.2921
  118CHL1   C2114970   0.512   1.373  15.647 -0.1841 -0.2596  0.1547
  118CHL1  H21A14971   0.451   1.414  15.730  2.5210 -0.9628  2.6737
  118CHL1  H21B14972   0.437   1.343  15.571 -2.0289  0.4195  1.6123
  118CHL1  H21C14973   0.594   1.440  15.614 -1.6252  1.4674 -0.0762
  118CHL1   C2214974   0.607   1.144  15.581 -0.0913 -0.1245  0.2163
  118CHL1  H22A14975   0.668   1.060  15.619  0.2711  1.0018  2.2882
  118CHL1  H22B14976   0.506   1.100  15.576 -0.4740  0.3166  2.7546
  118CHL1   C2314977   0.667   1.198  15.451  0.6078 -0.1330  0.1948
  118CHL1  H23A14978   0.602   1.276  15.406  0.6370 -0.8243 -1.0766
  118CHL1  H23B14979   0.759   1.256  15.475 -0.7143  2.3995 -0.4470
  118CHL1   C2414980   0.694   1.103  15.329  0.6193  0.7807  0.0238
  118CHL1  H24A14981   0.771   1.028  15.357  3.4087  2.7013 -1.9254
  118CHL1  H24B14982   0.600   1.052  15.299  1.6563 -0.8008 -0.6678
  118CHL1   C2514983   0.756   1.165  15.206  0.0435 -0.0564 -0.3684
  118CHL1   H2514984   0.851   1.208  15.245 -0.2103 -0.9469  1.3500
  118CHL1   C2614985   0.803   1.063  15.092  0.1780 -0.1568  0.0596
  118CHL1  H26A14986   0.850   1.124  15.012  2.3701 -0.4986  1.0342
  118CHL1  H26B14987   0.867   0.979  15.127  2.3821  2.3323  2.3821
  118CHL1  H26C14988   0.714   1.024  15.037  0.7820  1.8529 -2.5539
  118CHL1   C2714989   0.674   1.285  15.154 -0.9115  0.0439  0.3686
  118CHL1  H27A14990   0.667   1.363  15.233  1.9708  1.5269 -0.6832
  118CHL1  H27B14991   0.727   1.336  15.071 -1.4410 -1.0246 -0.6626
  118CHL1  H27C14992   0.574   1.251  15.119 -0.7282 -0.0496 -0.0694
  119CHL1    C314993   1.967   0.713  16.520  0.3419  0.0216 -0.1016
  119CHL1    H314994   1.861   0.743  16.535  0.2816 -1.0418  2.1622
  119CHL1    O314995   2.028   0.706  16.653  0.2279  0.4150  0.6475
  119CHL1   H3'14996   2.047   0.795  16.684  1.9115 -0.1610  1.4269
  119CHL1    C414997   1.969   0.577  16.457 -0.1840  0.7203 -0.1000
  119CHL1   H4A14998   2.070   0.533  16.466 -0.0835  0.7776 -0.8633
  119CHL1   H4B14999   1.898   0.516  16.516  0.6912 -1.3509 -1.0783
  119CHL1    C515000   1.925   0.579  16.310 -0.0015  0.5539  0.1481
  119CHL1    C615001   1.824   0.501  16.267  0.3748 -0.6325  0.2833
  119CHL1    H615002   1.757   0.444  16.333 -2.2819  3.4093  1.4989
  119CHL1    C715003   1.767   0.501  16.128 -0.1797 -0.1129 -1.1915
  119CHL1   H7A15004   1.745   0.394  16.108  1.0139 -1.4201  3.3108
  119CHL1   H7B15005   1.674   0.562  16.130 -2.1459 -2.8550  1.6824
  119CHL1    C815006   1.874   0.550  16.028  0.1941 -0.3744  0.4788
  119CHL1    H815007   1.951   0.469  16.028  0.7789  0.0819 -1.8452
  119CHL1   C1415008   1.815   0.568  15.889 -0.3396 -0.4446  0.4796
  119CHL1   H1415009   1.741   0.651  15.894 -1.4801 -1.2231 -1.8429
  119CHL1   C1515010   1.728   0.451  15.837 -0.1431 -0.2680  0.3256
  119CHL1  H15A15011   1.772   0.350  15.843 -0.7021 -0.4766  1.0436
  119CHL1  H15B15012   1.625   0.439  15.877  0.1161 -2.0928  0.5383
  119CHL1   C1615013   1.723   0.474  15.690 -0.2001  0.3726 -0.0976
  119CHL1  H16A15014   1.768   0.384  15.643 -0.1848 -1.3553  3.0063
  119CHL1  H16B15015   1.619   0.493  15.658 -0.5319 -1.2539 -0.0586
  119CHL1   C1715016   1.819   0.599  15.665 -0.4310  0.3275  0.3242
  119CHL1   H1715017   1.759   0.692  15.661  0.1540  0.6858 -0.3887
  119CHL1   C1315018   1.907   0.612  15.786  0.0291  0.4392  0.0779
  119CHL1   C1815019   2.016   0.504  15.780  0.6015 -0.2770  0.3627
  119CHL1  H18A15020   2.089   0.553  15.712 -3.5778  1.4268 -3.3984
  119CHL1  H18B15021   2.062   0.477  15.878 -0.4416  0.3465  1.0445
  119CHL1  H18C15022   1.987   0.406  15.735 -0.3353  0.4667 -0.6927
  119CHL1   C1215023   1.967   0.749  15.822 -0.3446 -0.6081 -0.2717
  119CHL1  H12A15024   2.037   0.794  15.749 -1.6161  1.8201 -0.0807
  119CHL1  H12B15025   1.887   0.826  15.817  0.0383 -0.1752  0.2571
  119CHL1   C1115026   2.043   0.733  15.960  0.1313  0.3543 -0.4805
  119CHL1  H11A15027   2.127   0.661  15.960  0.5726  0.7689  2.3229
  119CHL1  H11B15028   2.089   0.833  15.972  0.5251  0.2274 -0.8855
  119CHL1    C915029   1.949   0.682  16.073  0.3391  0.1056 -0.3664
  119CHL1    H915030   1.871   0.761  16.069 -0.5059 -0.6537  0.5629
  119CHL1   C1015031   2.003   0.675  16.222  0.4329  0.5470  0.9067
  119CHL1   C1915032   2.153   0.635  16.224 -0.5754  0.1152  0.5577
  119CHL1  H19A15033   2.161   0.529  16.190  3.7017  0.3416  0.3801
  119CHL1  H19B15034   2.219   0.693  16.156  1.0714 -1.2127  0.9550
  119CHL1  H19C15035   2.203   0.637  16.323  2.1310 -1.0688 -0.6900
  119CHL1    C115036   1.995   0.810  16.293  0.5166 -0.4606  0.1862
  119CHL1   H1A15037   2.053   0.883  16.233 -0.6279  2.3989  2.3222
  119CHL1   H1B15038   1.892   0.850  16.285  0.4990 -0.7551 -1.5974
  119CHL1    C215039   2.031   0.821  16.439  0.3782  0.9142  0.0117
  119CHL1   H2A15040   2.004   0.924  16.470 -2.1644  0.9453 -1.9802
  119CHL1   H2B15041   2.141   0.807  16.442  0.0739 -1.8308  1.4023
  119CHL1   C2015042   1.892   0.585  15.523 -0.4718 -0.0325 -0.2330
  119CHL1   H2015043   1.961   0.499  15.534  0.8698  1.3029  2.9543
  119CHL1   C2115044   1.975   0.714  15.483 -0.2543  0.0361 -0.4666
  119CHL1  H21A15045   2.062   0.732  15.549 -0.6088 -0.9346  0.2941
  119CHL1  H21B15046   1.913   0.806  15.485 -1.2464 -0.6272  0.7525
  119CHL1  H21C15047   2.021   0.701  15.383  2.3286 -1.4616  0.8254
  119CHL1   C2215048   1.796   0.548  15.406 -0.8313  0.1628  0.0276
  119CHL1  H22A15049   1.723   0.469  15.432 -1.8961  0.9090 -0.6118
  119CHL1  H22B15050   1.742   0.643  15.387 -0.1628  0.1235 -2.5261
  119CHL1   C2315051   1.864   0.525  15.268 -0.0121 -0.5742  0.0761
  119CHL1  H23A15052   1.899   0.618  15.217 -1.0518  0.4872  1.2303
  119CHL1  H23B15053   1.946   0.456  15.293  0.0964  0.1059  1.7097
  119CHL1   C2415054   1.760   0.466  15.163  0.6857 -0.7767 -0.5139
  119CHL1  H24A15055   1.737   0.366  15.204  0.4253 -0.1704  0.8785
  119CHL1  H24B15056   1.665   0.523  15.152 -0.7413 -2.4178  2.2550
  119CHL1   C2515057   1.814   0.448  15.022 -0.0061 -0.2171  1.1605
  119CHL1   H2515058   1.738   0.407  14.952  1.9148  0.2608 -1.3581
  119CHL1   C2615059   1.864   0.579  14.952 -0.2797  0.0645 -0.2640
  119CHL1  H26A15060   1.788   0.658  14.937  0.8232  1.8464  2.6937
  119CHL1  H26B15061   1.943   0.613  15.022  0.0216 -1.9657  0.4610
  119CHL1  H26C15062   1.921   0.555  14.859  0.3959 -1.5393  0.5273
  119CHL1   C2715063   1.928   0.340  15.008  0.6210 -0.8063 -0.1261
  119CHL1  H27A15064   1.953   0.337  14.900  0.6155 -0.7542 -0.1297
  119CHL1  H27B15065   2.016   0.375  15.066  1.3036 -2.2640 -0.2664
  119CHL1  H27C15066   1.899   0.243  15.054  0.8407  0.1887  2.2577
  120CHL1    C315067   1.215   6.603  16.393 -0.2189  0.1162 -0.2610
  120CHL1    H315068   1.208   6.714  16.400 -0.8656  0.0501  0.3611
  120CHL1    O315069   1.182   6.555  16.528  0.0640  0.5751  0.4919
  120CHL1   H3'15070   1.194   6.460  16.531  0.2472  0.5396 -0.8659
  120CHL1    C415071   1.107   6.548  16.293 -0.4095 -0.5639 -0.2606
  120CHL1   H4A15072   1.115   6.438  16.302  3.0113 -0.5931 -2.1273
  120CHL1   H4B15073   1.011   6.577  16.340  1.3437  0.5952  2.8643
  120CHL1    C515074   1.124   6.590  16.146 -0.1069  0.2301 -0.1500
  120CHL1    C615075   1.031   6.663  16.084 -0.4133 -0.8603  0.7198
  120CHL1    H615076   0.935   6.686  16.133 -0.3948 -1.7155  1.1839
  120CHL1    C715077   1.051   6.696  15.944 -0.0277  0.5450  1.2354
  120CHL1   H7A15078   0.960   6.671  15.886  1.0897 -0.0759 -0.3383
  120CHL1   H7B15079   1.067   6.806  15.947 -2.7393  0.9935  1.8611
  120CHL1    C815080   1.174   6.628  15.870  0.3096 -0.2577  0.2347
  120CHL1    H815081   1.148   6.523  15.844 -0.9991 -0.0257  0.5503
  120CHL1   C1415082   1.196   6.695  15.737  0.2439  0.3762  0.7198
  120CHL1   H1415083   1.233   6.795  15.771 -1.5165  0.4921  2.4821
  120CHL1   C1515084   1.066   6.709  15.636 -0.5753 -0.5130 -0.6897
  120CHL1  H15A15085   1.007   6.615  15.632 -0.6499 -0.6205  1.4480
  120CHL1  H15B15086   0.995   6.789  15.665 -1.2932 -0.6091 -2.1094
  120CHL1   C1615087   1.143   6.734  15.500  0.0492  0.8384 -0.7153
  120CHL1  H16A15088   1.102   6.660  15.428 -0.5920 -0.3016  0.7679
  120CHL1  H16B15089   1.124   6.837  15.461  0.2581  1.4470  0.7324
  120CHL1   C1715090   1.297   6.706  15.526 -0.6058 -0.2615 -0.3933
  120CHL1   H1715091   1.339   6.803  15.558  0.7968 -0.5144 -1.3755
  120CHL1   C1315092   1.306   6.625  15.653 -0.3144 -1.1693 -0.9742
  120CHL1   C1815093   1.282   6.478  15.611 -0.3075  0.2088 -0.8660
  120CHL1  H18A15094   1.184   6.463  15.560 -0.7555 -0.9654  0.2783
  120CHL1  H18B15095   1.360   6.430  15.548  0.2700  0.5941 -0.4488
  120CHL1  H18C15096   1.276   6.422  15.707  0.7862  0.2834 -0.7439
  120CHL1   C1215097   1.436   6.639  15.739  0.2732  0.4039 -0.3623
  120CHL1  H12A15098   1.518   6.583  15.688  1.6266  0.5662  1.5589
  120CHL1  H12B15099   1.455   6.747  15.754  2.7163 -0.2131  1.6120
  120CHL1   C1115100   1.430   6.578  15.882  0.6347  0.3376  0.0001
  120CHL1  H11A15101   1.442   6.469  15.863  0.5892  0.2619  0.4072
  120CHL1  H11B15102   1.510   6.609  15.952 -1.4760  0.8704  2.3587
  120CHL1    C915103   1.299   6.623  15.956 -0.9784  0.2751 -0.3891
  120CHL1    H915104   1.309   6.728  15.990  3.1255  0.0999 -0.6178
  120CHL1   C1015105   1.267   6.550  16.089 -0.1851  0.7087 -0.0641
  120CHL1   C1915106   1.266   6.399  16.070  0.1515 -0.6932 -0.2295
  120CHL1  H19A15107   1.206   6.374  15.979  4.8453 -3.9896 -2.8734
  120CHL1  H19B15108   1.362   6.363  16.028 -0.2104  0.1327 -1.8809
  120CHL1  H19C15109   1.239   6.341  16.160 -2.1598 -0.9334 -0.9987
  120CHL1    C115110   1.377   6.598  16.203  0.5123  0.5399  0.2075
  120CHL1   H1A15111   1.479   6.584  16.162  0.1811  2.3184 -1.3768
  120CHL1   H1B15112   1.375   6.709  16.211 -0.0270  0.4680  1.2493
  120CHL1    C215113   1.352   6.556  16.346  0.5694  0.4536 -0.5223
  120CHL1   H2A15114   1.426   6.609  16.410  1.6336 -2.0440  0.4772
  120CHL1   H2B15115   1.355   6.446  16.364  0.5047  0.5420  0.0438
  120CHL1   C2015116   1.365   6.664  15.397 -0.1524 -0.2671  0.2647
  120CHL1   H2015117   1.325   6.564  15.367  0.4803 -1.2791  2.5732
  120CHL1   C2115118   1.516   6.655  15.419  0.5914 -0.3799  0.1342
  120CHL1  H21A15119   1.548   6.752  15.463 -1.5462  0.1133  0.7074
  120CHL1  H21B15120   1.565   6.641  15.320 -0.3232  2.6547 -0.8711
  120CHL1  H21C15121   1.541   6.564  15.477 -0.7257 -0.4360  0.6379
  120CHL1   C2215122   1.343   6.760  15.279 -0.1339 -0.1873 -0.6086
  120CHL1  H22A15123   1.237   6.791  15.271 -0.1183 -0.0256 -0.2278
  120CHL1  H22B15124   1.405   6.850  15.302 -0.5079 -0.2644  0.7855
  120CHL1   C2315125   1.377   6.713  15.130  0.4737  0.6083 -1.4178
  120CHL1  H23A15126   1.487   6.710  15.116  0.4709  2.9735 -2.3777
  120CHL1  H23B15127   1.350   6.606  15.120 -0.9747  0.7711  0.2637
  120CHL1   C2415128   1.313   6.799  15.020 -0.2403 -0.6517 -0.3873
  120CHL1  H24A15129   1.206   6.818  15.043  0.0400  0.6277 -0.0597
  120CHL1  H24B15130   1.349   6.904  15.015 -2.0468  0.1411  1.7600
  120CHL1   C2515131   1.327   6.719  14.895  0.1648  0.8236 -0.2678
  120CHL1   H2515132   1.420   6.659  14.896 -0.1328  0.3548 -0.3440
  120CHL1   C2615133   1.209   6.619  14.877  0.1114  0.7707 -0.0992
  120CHL1  H26A15134   1.223   6.533  14.946  1.8081  1.5870  0.6396
  120CHL1  H26B15135   1.114   6.674  14.897  0.5188  1.5871 -0.3460
  120CHL1  H26C15136   1.210   6.577  14.774  1.5271 -2.6434  1.1591
  120CHL1   C2715137   1.317   6.817  14.778 -0.2550  0.5061 -0.1808
  120CHL1  H27A15138   1.227   6.882  14.792  0.1480  0.5084  3.3342
  120CHL1  H27B15139   1.412   6.874  14.782  1.8214 -2.6691 -0.8192
  120CHL1  H27C15140   1.320   6.773  14.677 -1.2833  1.5582 -0.7042
  121CHL1    C315141   5.087   4.167  13.222  0.0701  0.5439 -0.3348
  121CHL1    H315142   4.978   4.162  13.242  0.1741 -1.9675 -0.0197
  121CHL1    O315143   5.108   4.158  13.085 -0.2312  0.1218  0.2870
  121CHL1   H3'15144   5.048   4.221  13.043  1.0315 -0.0927 -1.9758
  121CHL1    C415145   5.148   4.293  13.277 -0.0455 -0.2271 -0.9098
  121CHL1   H4A15146   5.247   4.301  13.228  0.7691 -1.7375  0.4331
  121CHL1   H4B15147   5.081   4.377  13.248 -1.7484  0.4545  4.0999
  121CHL1    C515148   5.159   4.293  13.426  0.0197 -0.1714  0.2282
  121CHL1    C615149   5.112   4.399  13.499  0.8802 -0.1591  0.4870
  121CHL1    H615150   5.064   4.490  13.459  0.9324 -0.1762  0.3844
  121CHL1    C715151   5.117   4.409  13.650  0.0733 -0.2755  0.0172
  121CHL1   H7A15152   5.148   4.512  13.676  2.4342  0.5122 -4.7919
  121CHL1   H7B15153   5.016   4.388  13.690  0.4609 -0.0277  1.1409
  121CHL1    C815154   5.215   4.308  13.714 -0.4194  0.3701  0.4312
  121CHL1    H815155   5.319   4.343  13.696  0.2096 -1.6397 -0.1636
  121CHL1   C1415156   5.190   4.307  13.863 -0.1798  0.2218 -0.3943
  121CHL1   H1415157   5.090   4.260  13.875  0.7544 -3.5661 -4.6973
  121CHL1   C1515158   5.199   4.437  13.942 -0.0355 -0.3968  0.1832
  121CHL1  H15A15159   5.290   4.493  13.912 -0.1729 -0.8448 -1.1400
  121CHL1  H15B15160   5.101   4.485  13.921 -0.6056 -1.4261  0.4456
  121CHL1   C1615161   5.213   4.396  14.095 -0.0635  0.6434  0.4854
  121CHL1  H16A15162   5.308   4.441  14.131 -0.9963  2.6569  0.5290
  121CHL1  H16B15163   5.123   4.421  14.154 -0.1890  4.3579 -1.0046
  121CHL1   C1715164   5.222   4.236  14.088  0.2474 -0.0982 -0.0652
  121CHL1   H1715165   5.118   4.200  14.092  0.6183 -1.2925 -0.7669
  121CHL1   C1315166   5.270   4.206  13.944 -0.4244 -0.6424  0.1879
  121CHL1   C1815167   5.422   4.233  13.943 -0.6181 -0.4852 -0.4225
  121CHL1  H18A15168   5.462   4.212  13.842 -1.5965 -0.5792 -0.7976
  121CHL1  H18B15169   5.451   4.340  13.952  1.1039 -0.9762  0.2490
  121CHL1  H18C15170   5.475   4.167  14.014  0.4894 -0.5821 -1.3180
  121CHL1   C1215171   5.243   4.069  13.888  0.1272 -0.2493  1.0415
  121CHL1  H12A15172   5.323   4.005  13.930  0.6295 -0.8263 -0.6784
  121CHL1  H12B15173   5.147   4.028  13.924 -0.4139 -2.4302 -2.4264
  121CHL1   C1115174   5.261   4.062  13.736  0.7324  0.9024  0.0812
  121CHL1  H11A15175   5.370   4.059  13.717  0.4239 -0.1685 -1.7009
  121CHL1  H11B15176   5.218   3.968  13.696  0.2564  1.2758 -0.2996
  121CHL1    C915177   5.191   4.174  13.651  0.0629  0.0772 -0.5608
  121CHL1    H915178   5.082   4.164  13.670  0.5244 -0.0240  2.6046
  121CHL1   C1015179   5.216   4.165  13.496 -0.6001 -0.3407 -0.1607
  121CHL1   C1915180   5.372   4.159  13.472  1.0715 -0.6550  0.6921
  121CHL1  H19A15181   5.432   4.238  13.523  0.5696  1.9498 -2.4865
  121CHL1  H19B15182   5.413   4.058  13.494 -0.1778 -1.2313  0.4790
  121CHL1  H19C15183   5.397   4.182  13.367  0.6676  0.6082  0.8581
  121CHL1    C115184   5.155   4.046  13.431  0.3738 -0.1301 -0.7847
  121CHL1   H1A15185   5.210   3.955  13.463 -1.9904 -0.8340  1.6570
  121CHL1   H1B15186   5.053   4.036  13.474  0.1994 -1.3711 -1.4460
  121CHL1    C215187   5.153   4.041  13.276 -0.3239 -0.3021 -0.1776
  121CHL1   H2A15188   5.087   3.955  13.249  0.6462 -0.7611 -1.1226
  121CHL1   H2B15189   5.255   4.024  13.238  0.2743  1.6202  0.4473
  121CHL1   C2015190   5.290   4.170  14.222  0.0060 -0.8895  0.1396
  121CHL1   H2015191   5.396   4.200  14.209 -0.4596  0.8247  0.0388
  121CHL1   C2115192   5.270   4.018  14.225  0.5122 -0.5704 -0.2423
  121CHL1  H21A15193   5.322   3.985  14.317 -1.9456  1.9477  2.2330
  121CHL1  H21B15194   5.304   3.971  14.130 -1.9084 -1.1809 -0.8922
  121CHL1  H21C15195   5.166   4.000  14.260  0.3718  0.8643  0.1344
  121CHL1   C2215196   5.247   4.244  14.355 -0.3972  0.0587 -0.4350
  121CHL1  H22A15197   5.286   4.348  14.355  2.7574 -0.6586  5.4960
  121CHL1  H22B15198   5.136   4.238  14.356 -0.4338  0.4280 -1.5758
  121CHL1   C2315199   5.310   4.179  14.480  0.1332  0.6242 -0.1981
  121CHL1  H23A15200   5.292   4.070  14.490  1.8727  0.2400 -0.9746
  121CHL1  H23B15201   5.421   4.176  14.480  0.1506 -1.2007 -2.3747
  121CHL1   C2415202   5.257   4.248  14.606 -0.0888  0.6709  0.2986
  121CHL1  H24A15203   5.292   4.354  14.609  0.7228  0.4313 -0.2733
  121CHL1  H24B15204   5.147   4.255  14.596 -0.2614  0.0468  1.6114
  121CHL1   C2515205   5.265   4.168  14.745 -0.2446  0.7515  0.6801
  121CHL1   H2515206   5.229   4.067  14.718  1.5010  0.2308  0.1875
  121CHL1   C2615207   5.405   4.149  14.798  0.6142 -0.6549  0.6075
  121CHL1  H26A15208   5.446   4.247  14.831  2.3616 -0.7272 -1.1491
  121CHL1  H26B15209   5.413   4.083  14.887 -0.7101  0.7597  1.8277
  121CHL1  H26C15210   5.459   4.088  14.723 -0.6697 -0.3860 -0.5820
  121CHL1   C2715211   5.173   4.222  14.852 -0.0885 -0.1699  0.5158
  121CHL1  H27A15212   5.205   4.320  14.894 -2.1364  1.9419 -2.4834
  121CHL1  H27B15213   5.066   4.219  14.823 -0.1556 -0.4979  0.7862
  121CHL1  H27C15214   5.179   4.147  14.934  1.0631 -1.4334 -0.6718
  122CHL1    C315215   3.552   3.952  13.743  0.5037  0.5656 -0.1287
  122CHL1    H315216   3.534   3.850  13.785 -1.8436 -0.0206 -2.3193
  122CHL1    O315217   3.594   3.937  13.608 -0.0629 -0.1223 -0.1056
  122CHL1   H3'15218   3.593   4.028  13.577 -0.5779 -0.2456 -0.4734
  122CHL1    C415219   3.414   4.033  13.736  0.0947 -0.0073 -0.2338
  122CHL1   H4A15220   3.435   4.126  13.677 -0.7566 -0.2971 -1.0152
  122CHL1   H4B15221   3.346   3.965  13.681  0.9912 -0.9109 -0.2382
  122CHL1    C515222   3.364   4.066  13.876 -0.3365 -0.2266 -0.0004
  122CHL1    C615223   3.244   4.033  13.918  0.2221  0.0138 -0.0560
  122CHL1    H615224   3.185   3.986  13.837  1.9009 -2.2177 -0.0690
  122CHL1    C715225   3.173   4.075  14.046 -0.5978  0.0485  0.4350
  122CHL1   H7A15226   3.086   4.137  14.017  0.2778  0.9140 -0.3844
  122CHL1   H7B15227   3.149   3.988  14.112  1.1042 -0.4385  0.4655
  122CHL1    C815228   3.266   4.171  14.127  0.1864  0.1107 -1.0002
  122CHL1    H815229   3.259   4.277  14.096  1.0773  0.7835  0.9644
  122CHL1   C1415230   3.207   4.153  14.275 -0.4904 -0.4102  0.5460
  122CHL1   H1415231   3.223   4.047  14.304 -2.1574 -1.3491 -1.6673
  122CHL1   C1515232   3.061   4.182  14.296  0.5314  0.7939 -0.3820
  122CHL1  H15A15233   3.033   4.278  14.247 -0.7597  0.3977 -0.4598
  122CHL1  H15B15234   3.008   4.089  14.266  0.3080  0.4801  0.9342
  122CHL1   C1615235   3.051   4.201  14.449  0.3179 -0.5480  0.5040
  122CHL1  H16A15236   2.992   4.295  14.452  0.6238 -0.3309 -0.0721
  122CHL1  H16B15237   2.985   4.130  14.503 -1.6909  2.3003  2.0556
  122CHL1   C1715238   3.198   4.210  14.502 -0.9241 -0.5303 -0.5953
  122CHL1   H1715239   3.225   4.110  14.541  0.8372  0.2901  0.4237
  122CHL1   C1315240   3.277   4.245  14.376 -0.2983  0.0221 -0.0994
  122CHL1   C1815241   3.260   4.401  14.351 -0.0893  0.5663 -0.0375
  122CHL1  H18A15242   3.330   4.466  14.407 -0.3899  1.4934 -0.7077
  122CHL1  H18B15243   3.269   4.428  14.243  0.2299  0.7533  0.0340
  122CHL1  H18C15244   3.159   4.426  14.388 -0.0995 -1.7743  1.6831
  122CHL1   C1215245   3.434   4.200  14.364  0.4171 -0.5794 -0.0232
  122CHL1  H12A15246   3.493   4.272  14.425 -0.7513  0.6989 -0.3519
  122CHL1  H12B15247   3.441   4.094  14.395  1.5602 -1.0052 -1.6422
  122CHL1   C1115248   3.493   4.199  14.221  0.3936 -0.5344  0.2375
  122CHL1  H11A15249   3.505   4.308  14.205  0.0977 -0.3982  0.9290
  122CHL1  H11B15250   3.596   4.157  14.229  0.1218 -1.0154  1.5852
  122CHL1    C915251   3.416   4.126  14.113  0.2397  0.1713 -0.3731
  122CHL1    H915252   3.414   4.018  14.139  0.1883 -0.3779 -2.4601
  122CHL1   C1015253   3.469   4.127  13.974 -0.4893 -0.1025 -0.3120
  122CHL1   C1915254   3.491   4.270  13.926  0.9162 -0.1441  0.4176
  122CHL1  H19A15255   3.565   4.333  13.981  2.3432  0.2426 -1.8077
  122CHL1  H19B15256   3.510   4.271  13.817 -0.7182  2.4469  0.0605
  122CHL1  H19C15257   3.397   4.329  13.933  1.3047  0.3110  2.6931
  122CHL1    C115258   3.615   4.060  13.968  0.4008 -0.6177 -0.0871
  122CHL1   H1A15259   3.696   4.114  14.023 -0.5373 -0.6630  1.3866
  122CHL1   H1B15260   3.609   3.963  14.022 -2.9876  0.2968  1.4521
  122CHL1    C215261   3.660   4.024  13.825 -0.4263 -0.5242 -0.3380
  122CHL1   H2A15262   3.753   3.964  13.826 -0.6044 -0.8978  2.6464
  122CHL1   H2B15263   3.684   4.122  13.780 -1.6017 -0.6042 -1.2048
  122CHL1   C2015264   3.219   4.304  14.616  0.7707 -0.5874 -0.4428
  122CHL1   H2015265   3.185   4.404  14.583  0.7861 -0.2282  0.5899
  122CHL1   C2115266   3.363   4.312  14.673 -0.1763  0.5332  0.6653
  122CHL1  H21A15267   3.363   4.342  14.780 -2.6371 -0.6996  1.0813
  122CHL1  H21B15268   3.430   4.373  14.609  0.5062  0.3580  1.1966
  122CHL1  H21C15269   3.413   4.212  14.674  0.4064  0.8075  2.4048
  122CHL1   C2215270   3.123   4.263  14.733  0.4236  0.0273  0.1148
  122CHL1  H22A15271   3.132   4.337  14.816 -1.4475 -0.3412  0.7127
  122CHL1  H22B15272   3.016   4.268  14.703  0.8022  0.3670 -1.2182
  122CHL1   C2315273   3.142   4.124  14.794  0.4741  0.4916 -0.1336
  122CHL1  H23A15274   3.115   4.042  14.725  1.4081  0.2290 -0.1994
  122CHL1  H23B15275   3.248   4.102  14.820  1.0440 -0.3157 -2.8513
  122CHL1   C2415276   3.062   4.111  14.926 -0.3144 -0.2723 -0.3604
  122CHL1  H24A15277   3.082   4.202  14.986 -2.4656 -1.3396  2.1573
  122CHL1  H24B15278   2.953   4.117  14.904  0.0482  0.0541 -2.2773
  122CHL1   C2515279   3.096   3.995  15.015  0.1752 -0.7526  0.1163
  122CHL1   H2515280   3.205   3.977  15.019  0.0244 -2.0269 -0.7050
  122CHL1   C2615281   3.016   4.015  15.152 -0.2305 -0.1254  0.2490
  122CHL1  H26A15282   2.991   3.920  15.204  4.0448 -1.2404  0.6330
  122CHL1  H26B15283   3.073   4.081  15.221 -1.4141  0.5005  0.6485
  122CHL1  H26C15284   2.921   4.070  15.135  0.3564  1.5757  2.0659
  122CHL1   C2715285   3.042   3.863  14.943  0.1051 -0.3178 -0.9470
  122CHL1  H27A15286   2.931   3.867  14.933  0.0072  2.9460  0.1350
  122CHL1  H27B15287   3.089   3.843  14.844 -2.0506 -2.0992 -1.6814
  122CHL1  H27C15288   3.062   3.773  15.005  0.2029  0.8757  0.8360
  123CHL1    C315289   6.533   4.238  13.532 -0.3735  0.2470 -0.5441
  123CHL1    H315290   6.564   4.132  13.535  3.3892  1.2390  0.8912
  123CHL1    O315291   6.556   4.293  13.403 -0.1941 -0.3234  0.6041
  123CHL1   H3'15292   6.534   4.225  13.339 -1.6632  1.3060 -0.7422
  123CHL1    C415293   6.388   4.268  13.574  0.2286  0.0954 -0.3447
  123CHL1   H4A15294   6.361   4.373  13.549 -0.2636  0.1068  0.2081
  123CHL1   H4B15295   6.324   4.208  13.506 -0.0790 -1.0460  0.9027
  123CHL1    C515296   6.359   4.239  13.719  0.1206 -0.0068 -0.0631
  123CHL1    C615297   6.251   4.160  13.750 -0.0773  0.0082 -0.0904
  123CHL1    H615298   6.194   4.113  13.669  1.0402 -0.6626 -0.5173
  123CHL1    C715299   6.216   4.136  13.897  0.8826 -0.1569  0.5993
  123CHL1   H7A15300   6.107   4.146  13.911  0.4134 -1.0645 -1.9387
  123CHL1   H7B15301   6.235   4.031  13.929 -1.0000 -0.4980  0.6974
  123CHL1    C815302   6.290   4.228  13.995  1.1457 -0.5713 -0.3739
  123CHL1    H815303   6.231   4.322  14.004 -1.4995 -1.9304 -2.1611
  123CHL1   C1415304   6.288   4.164  14.136 -0.3298  0.5318  0.0979
  123CHL1   H1415305   6.355   4.077  14.125  0.6777  0.9922  2.1924
  123CHL1   C1515306   6.155   4.098  14.186 -0.6675 -0.1389 -0.2950
  123CHL1  H15A15307   6.072   4.170  14.167  0.8488  0.8629 -3.9215
  123CHL1  H15B15308   6.137   3.999  14.140  0.8208 -2.0335  2.8429
  123CHL1   C1615309   6.184   4.075  14.335  0.0235 -0.1378 -0.4828
  123CHL1  H16A15310   6.105   4.138  14.382 -1.2963 -1.0307 -1.4369
  123CHL1  H16B15311   6.177   3.975  14.385  1.6329  0.2885  0.6561
  123CHL1   C1715312   6.320   4.143  14.368 -0.1737 -0.3374 -0.1622
  123CHL1   H1715313   6.400   4.068  14.354  1.0454  0.6880  1.0110
  123CHL1   C1315314   6.350   4.247  14.252  0.0778 -0.6285  0.3812
  123CHL1   C1815315   6.276   4.376  14.274  0.1481 -0.1993 -0.2812
  123CHL1  H18A15316   6.307   4.419  14.372 -2.8119 -0.4134  0.8446
  123CHL1  H18B15317   6.294   4.447  14.190 -1.3698 -1.7006 -1.9550
  123CHL1  H18C15318   6.167   4.357  14.278  0.7071 -4.3154 -0.7520
  123CHL1   C1215319   6.492   4.280  14.218  0.0326 -0.4849 -0.5765
  123CHL1  H12A15320   6.530   4.364  14.281 -0.0001  0.1805 -1.4298
  123CHL1  H12B15321   6.541   4.181  14.224  0.2942 -0.2887  1.3036
  123CHL1   C1115322   6.504   4.340  14.075  0.5291 -0.4080 -0.2640
  123CHL1  H11A15323   6.461   4.442  14.068 -0.6487 -0.8804 -0.1639
  123CHL1  H11B15324   6.613   4.358  14.057  0.2661  0.6400 -0.9087
  123CHL1    C915325   6.438   4.263  13.959 -0.2763 -0.0649 -0.3128
  123CHL1    H915326   6.502   4.172  13.967  2.3887  1.7549  0.6627
  123CHL1   C1015327   6.455   4.310  13.814  0.1578 -0.2771  0.4542
  123CHL1   C1915328   6.428   4.463  13.811 -0.1357  0.3422  0.2578
  123CHL1  H19A15329   6.510   4.513  13.866  1.6339 -3.3115  1.2306
  123CHL1  H19B15330   6.429   4.502  13.707 -1.3575 -0.2501 -0.0001
  123CHL1  H19C15331   6.327   4.487  13.852 -0.9517 -2.0704 -0.1923
  123CHL1    C115332   6.604   4.287  13.775  0.3414 -0.0745 -0.0482
  123CHL1   H1A15333   6.671   4.350  13.838 -1.8578  2.0543  0.3292
  123CHL1   H1B15334   6.628   4.181  13.799  1.7320  0.2677  0.1857
  123CHL1    C215335   6.633   4.310  13.626  0.2927  0.0409 -0.0602
  123CHL1   H2A15336   6.732   4.273  13.591 -0.9853 -0.5159 -3.4987
  123CHL1   H2B15337   6.632   4.417  13.596 -1.3318 -0.0765 -0.5345
  123CHL1   C2015338   6.329   4.195  14.517  0.4677  0.2054  0.1465
  123CHL1   H2015339   6.259   4.280  14.530 -0.4907 -0.7724  1.6829
  123CHL1   C2115340   6.468   4.259  14.544 -0.1934  0.4331  0.1553
  123CHL1  H21A15341   6.546   4.181  14.534 -0.8238 -0.4629  1.8431
  123CHL1  H21B15342   6.478   4.294  14.649 -0.6763  1.1893 -0.0337
  123CHL1  H21C15343   6.482   4.356  14.491  2.4106  2.1286  3.5630
  123CHL1   C2215344   6.301   4.085  14.620 -0.3716  0.5219  0.2518
  123CHL1  H22A15345   6.205   4.045  14.583  0.9338 -0.6381 -2.1036
  123CHL1  H22B15346   6.373   4.002  14.600 -0.0885  0.5204  1.2111
  123CHL1   C2315347   6.300   4.119  14.775 -0.1958 -0.4835 -0.2512
  123CHL1  H23A15348   6.257   4.043  14.842  2.5740  0.1210  2.4221
  123CHL1  H23B15349   6.409   4.120  14.793  0.0214 -0.4939 -1.4541
  123CHL1   C2415350   6.229   4.254  14.793  0.0970 -0.2384  0.0246
  123CHL1  H24A15351   6.298   4.331  14.753  0.6345 -1.0719 -0.6842
  123CHL1  H24B15352   6.130   4.258  14.743 -0.3863 -2.7982  0.6389
  123CHL1   C2515353   6.204   4.292  14.941 -0.0629  0.4073 -1.0295
  123CHL1   H2515354   6.161   4.394  14.944  1.7796  1.2116 -0.0298
  123CHL1   C2615355   6.094   4.197  14.999 -0.1379  0.3592  0.1857
  123CHL1  H26A15356   6.066   4.234  15.100  0.7789  2.0974 -0.1567
  123CHL1  H26B15357   6.000   4.205  14.942 -0.8425  2.6758  1.5567
  123CHL1  H26C15358   6.138   4.096  15.018 -1.1561  0.0293  0.8714
  123CHL1   C2715359   6.335   4.280  15.021  0.0263 -0.1556 -0.3365
  123CHL1  H27A15360   6.374   4.177  15.032  2.1025  0.5615 -0.3972
  123CHL1  H27B15361   6.409   4.336  14.960  0.7621 -0.1828  0.5133
  123CHL1  H27C15362   6.330   4.331  15.120 -1.1649  0.5163 -0.7271
  124CHL1    C315363   5.316   5.063  13.170  0.0788 -0.0863 -0.0592
  124CHL1    H315364   5.333   4.953  13.169 -1.4768 -0.3720  0.8740
  124CHL1    O315365   5.291   5.101  13.039  0.3007  0.1794 -0.5455
  124CHL1   H3'15366   5.375   5.098  12.993  0.2289  0.4895 -0.7045
  124CHL1    C415367   5.195   5.096  13.260  0.6156  0.7225 -0.4668
  124CHL1   H4A15368   5.173   5.203  13.246 -0.8096  0.1655 -3.2644
  124CHL1   H4B15369   5.113   5.033  13.218  1.7823 -2.3081  1.4629
  124CHL1    C515370   5.225   5.057  13.404  0.5621  0.7546 -0.2755
  124CHL1    C615371   5.136   4.976  13.465  0.4104  0.1232  0.2685
  124CHL1    H615372   5.042   4.936  13.424 -0.0294 -0.2327  1.5788
  124CHL1    C715373   5.145   4.938  13.609 -0.4665  0.1646  1.0224
  124CHL1   H7A15374   5.047   4.945  13.661 -0.6987  0.7890  0.5179
  124CHL1   H7B15375   5.173   4.831  13.596 -1.2003  0.2725 -2.2695
  124CHL1    C815376   5.258   5.016  13.679  0.1114  0.3638  0.5175
  124CHL1    H815377   5.211   5.110  13.714 -2.4534 -1.6391  2.8392
  124CHL1   C1415378   5.307   4.933  13.793  0.3135 -0.4789 -0.1921
  124CHL1   H1415379   5.338   4.841  13.738  0.1552  0.0385 -1.1844
  124CHL1   C1515380   5.201   4.871  13.882  0.6747 -0.2881 -0.2585
  124CHL1  H15A15381   5.109   4.930  13.901  0.2982 -0.4348 -1.5464
  124CHL1  H15B15382   5.155   4.779  13.841 -1.2685  0.8168 -0.6914
  124CHL1   C1615383   5.285   4.820  14.002 -0.1303  0.3901  0.4525
  124CHL1  H16A15384   5.244   4.870  14.093 -2.4521 -2.0119  0.8598
  124CHL1  H16B15385   5.276   4.710  14.011  2.3458  0.1245  0.3341
  124CHL1   C1715386   5.427   4.868  13.977 -0.2027  0.5856 -0.2461
  124CHL1   H1715387   5.480   4.786  13.925  0.7365  2.5056 -2.4777
  124CHL1   C1315388   5.412   4.987  13.882 -0.7924  0.2241 -0.9111
  124CHL1   C1815389   5.357   5.112  13.956 -0.9122  0.0588 -0.2654
  124CHL1  H18A15390   5.260   5.095  14.008 -0.3715 -0.6059  0.5554
  124CHL1  H18B15391   5.428   5.139  14.037  0.1182 -1.9916 -0.4141
  124CHL1  H18C15392   5.346   5.192  13.880 -0.1117 -0.6341 -1.1420
  124CHL1   C1215393   5.539   5.019  13.794 -0.1562  0.0679  0.4044
  124CHL1  H12A15394   5.609   5.079  13.855  0.8656 -0.7856  0.1043
  124CHL1  H12B15395   5.581   4.924  13.755  0.2452  0.4281 -0.0579
  124CHL1   C1115396   5.505   5.104  13.671  0.1240  0.2395 -0.4284
  124CHL1  H11A15397   5.490   5.203  13.721  0.6195 -0.7512  1.8224
  124CHL1  H11B15398   5.596   5.107  13.608  0.9493 -1.1472  0.6397
  124CHL1    C915399   5.382   5.044  13.591 -0.4339 -0.9174 -0.1628
  124CHL1    H915400   5.417   4.947  13.550  0.0945 -0.7000 -0.2397
  124CHL1   C1015401   5.352   5.120  13.462  0.0817  0.6571  0.0001
  124CHL1   C1915402   5.332   5.271  13.489  1.2798 -0.0369  0.2958
  124CHL1  H19A15403   5.345   5.328  13.395  0.4864  1.2504  0.9392
  124CHL1  H19B15404   5.227   5.284  13.521  0.3750 -0.8074 -2.1683
  124CHL1  H19C15405   5.399   5.322  13.562  1.1762 -0.6073  0.8076
  124CHL1    C115406   5.473   5.104  13.357  0.1608  0.0587 -0.1591
  124CHL1   H1A15407   5.557   5.168  13.390  1.0102  0.4522 -2.8309
  124CHL1   H1B15408   5.501   4.996  13.363  0.7812  0.1427 -1.3645
  124CHL1    C215409   5.446   5.139  13.210  0.0254  0.2646 -0.1729
  124CHL1   H2A15410   5.537   5.117  13.150  0.7848  2.2112  0.1696
  124CHL1   H2B15411   5.425   5.248  13.198  1.2181  0.7407  1.6535
  124CHL1   C2015412   5.493   4.884  14.118  0.4480 -0.4053 -0.2987
  124CHL1   H2015413   5.436   4.953  14.184  2.0851  1.5860 -0.8715
  124CHL1   C2115414   5.635   4.943  14.094  0.0351 -0.2380  0.0321
  124CHL1  H21A15415   5.676   4.888  14.006  0.7945  0.8286 -0.3007
  124CHL1  H21B15416   5.700   4.925  14.182  0.0709 -0.5121 -0.0457
  124CHL1  H21C15417   5.641   5.051  14.067  2.1342 -0.5453 -0.9793
  124CHL1   C2215418   5.497   4.749  14.195 -0.0683 -0.2431 -0.5269
  124CHL1  H22A15419   5.393   4.712  14.204 -0.2146  0.4361  0.9440
  124CHL1  H22B15420   5.559   4.676  14.139  1.2863  0.3512  0.1355
  124CHL1   C2315421   5.548   4.766  14.344 -0.8472  0.3703 -0.7869
  124CHL1  H23A15422   5.653   4.798  14.361  0.0212 -2.2158 -0.8159
  124CHL1  H23B15423   5.488   4.842  14.398 -0.8866  0.1421 -0.5058
  124CHL1   C2415424   5.538   4.630  14.413 -0.2986 -0.0119 -0.2634
  124CHL1  H24A15425   5.434   4.596  14.395 -0.5324  1.1950 -1.2918
  124CHL1  H24B15426   5.595   4.557  14.351  0.8896  2.1341 -1.8594
  124CHL1   C2515427   5.600   4.627  14.557  0.1007 -0.0481 -0.2783
  124CHL1   H2515428   5.705   4.660  14.546  0.0432  0.4884  0.6261
  124CHL1   C2615429   5.530   4.732  14.646  0.3586  0.3762  0.3418
  124CHL1  H26A15430   5.546   4.835  14.607 -0.6575  0.0711 -0.9597
  124CHL1  H26B15431   5.421   4.713  14.636  0.6582 -1.4508  0.1959
  124CHL1  H26C15432   5.560   4.715  14.752  2.5334 -0.1748 -0.3129
  124CHL1   C2715433   5.582   4.482  14.615 -0.4075 -0.1593 -0.1295
  124CHL1  H27A15434   5.649   4.463  14.702  0.5922 -0.4491 -0.9468
  124CHL1  H27B15435   5.481   4.469  14.658 -0.3448  0.9137  0.3666
  124CHL1  H27C15436   5.603   4.407  14.536 -0.1723  0.2192 -0.4308
  125CHL1    C315437   5.933   4.939  13.176 -0.3137  0.2022  0.4243
  125CHL1    H315438   6.023   5.004  13.166  0.4696 -0.9541 -0.1845
  125CHL1    O315439   5.875   4.915  13.048  0.5148 -0.5185  0.1391
  125CHL1   H3'15440   5.789   4.876  13.068  1.1260 -1.9365  0.0879
  125CHL1    C415441   5.976   4.801  13.229  0.4425  0.6938  0.5336
  125CHL1   H4A15442   5.884   4.738  13.229  0.6145  0.4326 -0.4185
  125CHL1   H4B15443   6.045   4.747  13.161 -1.0607 -0.2765 -0.2711
  125CHL1    C515444   6.024   4.820  13.372  0.1052  0.1260 -0.3617
  125CHL1    C615445   6.155   4.795  13.403  0.7179  0.4389 -0.4091
  125CHL1    H615446   6.206   4.748  13.318 -0.3948 -0.2197 -0.7313
  125CHL1    C715447   6.204   4.799  13.541 -0.0867  0.4464 -0.1657
  125CHL1   H7A15448   6.250   4.701  13.565 -0.7859 -0.0922 -0.9717
  125CHL1   H7B15449   6.287   4.873  13.538  1.7587 -1.4727  0.6626
  125CHL1    C815450   6.089   4.821  13.640  0.2592  1.1053 -0.2815
  125CHL1    H815451   6.045   4.719  13.648 -1.0344  1.6549 -0.2444
  125CHL1   C1415452   6.140   4.864  13.778  0.1084  0.4899  0.3843
  125CHL1   H1415453   6.194   4.960  13.765  0.4434  0.5908  2.1977
  125CHL1   C1515454   6.241   4.767  13.844  0.5994 -0.0042 -0.6439
  125CHL1  H15A15455   6.195   4.668  13.865 -2.1294  1.4101  0.4950
  125CHL1  H15B15456   6.338   4.753  13.791  0.0840  4.5178 -3.3332
  125CHL1   C1615457   6.260   4.827  13.984 -0.2263  0.0683 -0.4887
  125CHL1  H16A15458   6.272   4.751  14.064 -0.8771  0.4831  0.0203
  125CHL1  H16B15459   6.356   4.883  13.985  0.1570 -0.5683  1.1579
  125CHL1   C1715460   6.144   4.928  14.006 -0.4761  0.3539  0.4355
  125CHL1   H1715461   6.191   5.024  13.974 -0.8434  0.1881 -0.6464
  125CHL1   C1315462   6.043   4.896  13.889 -0.0188 -0.2998  0.6338
  125CHL1   C1815463   5.961   4.769  13.924  0.7079 -0.3394  0.1171
  125CHL1  H18A15464   5.941   4.717  13.828  2.6320  0.5157 -0.7951
  125CHL1  H18B15465   6.022   4.707  13.993  0.6646  0.7230  1.1487
  125CHL1  H18C15466   5.871   4.792  13.986  0.3500  0.9948 -0.8492
  125CHL1   C1215467   5.966   5.018  13.850 -0.7418 -0.0494  0.3160
  125CHL1  H12A15468   5.887   5.043  13.923 -2.7027  0.2321 -1.7923
  125CHL1  H12B15469   6.040   5.100  13.847  0.8119 -1.3864 -2.9195
  125CHL1   C1115470   5.897   4.984  13.710  0.0197  0.4205 -0.2951
  125CHL1  H11A15471   5.823   4.904  13.733  2.9207 -2.2227  0.7063
  125CHL1  H11B15472   5.842   5.071  13.670 -0.5063 -0.0437 -0.5934
  125CHL1    C915473   6.001   4.935  13.601 -0.1512  0.4111 -0.0204
  125CHL1    H915474   6.065   5.022  13.578 -1.1462  1.5972  1.4861
  125CHL1   C1015475   5.925   4.896  13.474 -0.2708 -0.3732  0.6256
  125CHL1   C1915476   5.810   4.796  13.499  0.5438  0.4913  0.1138
  125CHL1  H19A15477   5.851   4.702  13.541 -1.8352 -0.5083  0.3342
  125CHL1  H19B15478   5.736   4.832  13.574  0.0047  1.6526 -0.9462
  125CHL1  H19C15479   5.750   4.785  13.407 -2.6527 -0.6240  2.1596
  125CHL1    C115480   5.885   5.026  13.400 -0.0801  0.8500 -0.2357
  125CHL1   H1A15481   5.810   5.083  13.458 -0.7306 -0.4506  0.2446
  125CHL1   H1B15482   5.965   5.103  13.400 -1.2253  2.0672 -0.8300
  125CHL1    C215483   5.825   4.998  13.263  0.1943  0.1494 -0.2756
  125CHL1   H2A15484   5.794   5.095  13.217 -0.8998  0.8875  1.8518
  125CHL1   H2B15485   5.730   4.940  13.264  1.6086 -2.3486 -1.6957
  125CHL1   C2015486   6.100   4.931  14.154 -0.1731  0.1085  0.7026
  125CHL1   H2015487   6.048   4.836  14.179 -0.9967  0.3760  0.0452
  125CHL1   C2115488   5.986   5.029  14.178  0.6439  0.0787 -0.1319
  125CHL1  H21A15489   6.032   5.130  14.169 -0.5864  0.5791 -0.9904
  125CHL1  H21B15490   5.965   5.005  14.285  0.7076 -1.0780 -0.3595
  125CHL1  H21C15491   5.895   5.008  14.119  0.3628 -3.2220  1.2587
  125CHL1   C2215492   6.212   4.948  14.261  0.1053  0.0097 -0.3862
  125CHL1  H22A15493   6.166   4.942  14.362  2.4531  1.5267  0.8582
  125CHL1  H22B15494   6.282   4.862  14.253 -0.9560 -0.9410  0.2458
  125CHL1   C2315495   6.282   5.082  14.251 -0.2012  0.8358 -0.4856
  125CHL1  H23A15496   6.296   5.110  14.145  0.0191  0.7954 -0.4673
  125CHL1  H23B15497   6.227   5.162  14.305 -1.3186  0.0990 -0.4933
  125CHL1   C2415498   6.418   5.072  14.322  0.2865 -0.0513  0.2805
  125CHL1  H24A15499   6.416   5.034  14.427  3.6479 -0.4905  0.3070
  125CHL1  H24B15500   6.497   5.028  14.258 -0.1183  0.8423 -0.8580
  125CHL1   C2515501   6.482   5.215  14.333 -0.6203 -0.2963 -0.2379
  125CHL1   H2515502   6.416   5.278  14.397  1.0529  1.5693 -0.2460
  125CHL1   C2615503   6.616   5.221  14.412  0.4154 -0.8028 -0.5977
  125CHL1  H26A15504   6.692   5.157  14.361  2.7205  1.2121  0.1057
  125CHL1  H26B15505   6.643   5.328  14.421 -0.8731 -0.4507 -0.6846
  125CHL1  H26C15506   6.608   5.189  14.518 -1.1557 -0.4686 -0.5917
  125CHL1   C2715507   6.494   5.285  14.200 -0.3054 -0.2499 -0.1228
  125CHL1  H27A15508   6.397   5.305  14.148  0.0454  2.5272  0.1603
  125CHL1  H27B15509   6.540   5.386  14.207 -1.5552  0.4328 -1.1727
  125CHL1  H27C15510   6.553   5.227  14.126  1.3464 -0.3409  1.2040
  126CHL1    C315511   3.576   4.801  13.340  0.0319  0.4661  0.6931
  126CHL1    H315512   3.663   4.733  13.340  0.2586  0.7490  0.8916
  126CHL1    O315513   3.539   4.821  13.205 -0.5376 -0.3572  0.1997
  126CHL1   H3'15514   3.473   4.891  13.211  2.0146  2.1683  1.3455
  126CHL1    C415515   3.456   4.732  13.414 -0.5111 -0.6349  0.1761
  126CHL1   H4A15516   3.362   4.787  13.391  0.6302  0.5800 -1.8124
  126CHL1   H4B15517   3.441   4.632  13.369 -0.0614  0.5337 -2.8029
  126CHL1    C515518   3.476   4.730  13.562  0.0986  0.4816  0.1060
  126CHL1    C615519   3.444   4.620  13.633  0.2088 -0.4495  0.0214
  126CHL1    H615520   3.399   4.534  13.581 -1.5580  0.0003  0.7584
  126CHL1    C715521   3.440   4.626  13.780  0.3711 -0.3497 -0.0382
  126CHL1   H7A15522   3.347   4.580  13.820 -0.4097 -0.9205 -2.3327
  126CHL1   H7B15523   3.519   4.551  13.804 -0.2608 -0.2534  2.6452
  126CHL1    C815524   3.455   4.765  13.851 -0.1750 -0.0906  0.2039
  126CHL1    H815525   3.357   4.816  13.841  0.2750  0.8161  0.3251
  126CHL1   C1415526   3.497   4.759  13.997 -0.2362 -0.0022 -0.4185
  126CHL1   H1415527   3.594   4.705  14.007 -0.0436  0.5626  0.8525
  126CHL1   C1515528   3.422   4.664  14.097 -0.1879  0.1097 -0.5015
  126CHL1  H15A15529   3.318   4.686  14.064  0.9796  2.3294 -3.0416
  126CHL1  H15B15530   3.439   4.554  14.089 -0.8709 -0.0053 -0.4755
  126CHL1   C1615531   3.456   4.717  14.232  0.5226  0.3494  0.3954
  126CHL1  H16A15532   3.364   4.750  14.285  1.7385  1.6329  1.8238
  126CHL1  H16B15533   3.486   4.635  14.301 -0.6234 -2.0589 -1.7825
  126CHL1   C1715534   3.551   4.838  14.215 -0.0058  0.5391 -0.2297
  126CHL1   H1715535   3.652   4.793  14.214  0.2131  0.8747  2.3383
  126CHL1   C1315536   3.519   4.891  14.072  0.0026  0.5303  0.5216
  126CHL1   C1815537   3.381   4.971  14.062  0.9200  0.1183  0.5901
  126CHL1  H18A15538   3.401   5.073  14.103  0.8523  0.4433 -0.1710
  126CHL1  H18B15539   3.345   4.982  13.957 -2.5357 -0.0169  1.6374
  126CHL1  H18C15540   3.308   4.922  14.129  1.2697  0.5469  1.3067
  126CHL1   C1215541   3.628   4.967  14.000  0.5475 -0.0100  0.8218
  126CHL1  H12A15542   3.655   5.069  14.034 -0.1706 -0.1460  1.8489
  126CHL1  H12B15543   3.713   4.896  14.003 -0.8619 -1.8944 -0.8356
  126CHL1   C1115544   3.592   4.970  13.849  0.0933  0.1519  0.9873
  126CHL1  H11A15545   3.514   5.048  13.836 -0.6689 -0.5111  1.5234
  126CHL1  H11B15546   3.683   5.009  13.798  0.0718 -1.0436 -0.0332
  126CHL1    C915547   3.556   4.840  13.779 -0.3076  0.2012  0.0906
  126CHL1    H915548   3.650   4.782  13.780  0.5987  1.6098 -0.7095
  126CHL1   C1015549   3.517   4.862  13.626 -0.7352 -0.5061  0.5229
  126CHL1   C1915550   3.394   4.956  13.614 -0.7402 -0.0428  1.1612
  126CHL1  H19A15551   3.377   4.972  13.505  0.0316  1.9286  1.2941
  126CHL1  H19B15552   3.306   4.908  13.662 -1.3685  0.8218  0.8960
  126CHL1  H19C15553   3.409   5.053  13.666 -2.4803  1.9338 -1.7261
  126CHL1    C115554   3.636   4.923  13.553 -0.2827 -0.4668  0.2819
  126CHL1   H1A15555   3.654   5.024  13.595  1.1525 -0.4328 -0.3604
  126CHL1   H1B15556   3.723   4.861  13.584  2.1571  2.5776  0.0072
  126CHL1    C215557   3.623   4.933  13.397  0.5242 -0.1798  0.1593
  126CHL1   H2A15558   3.722   4.966  13.360  0.6510  0.1270  0.7708
  126CHL1   H2B15559   3.548   5.012  13.377  0.4246  0.0527  1.3788
  126CHL1   C2015560   3.540   4.935  14.327 -0.1104  0.1233 -0.2463
  126CHL1   H2015561   3.445   4.989  14.311 -0.1098 -0.1647 -1.3217
  126CHL1   C2115562   3.666   5.026  14.329  0.5119  0.3751  0.6782
  126CHL1  H21A15563   3.761   4.969  14.340  0.1409 -0.8338 -1.6985
  126CHL1  H21B15564   3.648   5.094  14.414 -2.0590  0.6644 -0.0181
  126CHL1  H21C15565   3.675   5.085  14.236 -0.1310  0.7499  0.8486
  126CHL1   C2215566   3.535   4.871  14.465 -0.1966 -0.2104 -0.1788
  126CHL1  H22A15567   3.528   4.950  14.542  0.6691  0.4518 -0.7593
  126CHL1  H22B15568   3.445   4.805  14.463 -0.1061 -0.3408  0.0222
  126CHL1   C2315569   3.661   4.789  14.510  0.1112 -0.8313  0.0622
  126CHL1  H23A15570   3.686   4.712  14.434  0.0034  0.5200 -1.4093
  126CHL1  H23B15571   3.747   4.857  14.529  0.3790 -1.2537  0.3725
  126CHL1   C2415572   3.635   4.727  14.650  0.1753  0.5613 -0.1902
  126CHL1  H24A15573   3.647   4.802  14.731 -0.9241 -0.9058  1.4298
  126CHL1  H24B15574   3.530   4.691  14.653  0.9209 -1.7635  0.9658
  126CHL1   C2515575   3.731   4.606  14.676  0.5910 -0.1107 -0.1859
  126CHL1   H2515576   3.729   4.543  14.585  0.7986 -1.8294  0.9616
  126CHL1   C2615577   3.871   4.644  14.719  0.5890 -0.0156 -0.5173
  126CHL1  H26A15578   3.931   4.550  14.718 -1.1148 -1.1884  1.0613
  126CHL1  H26B15579   3.923   4.725  14.665 -0.0359  1.3421  0.8540
  126CHL1  H26C15580   3.854   4.684  14.821  3.7043 -2.5580  1.1924
  126CHL1   C2715581   3.681   4.518  14.788  0.7128  0.5006  0.6951
  126CHL1  H27A15582   3.733   4.421  14.779  0.7935  0.5641  0.4759
  126CHL1  H27B15583   3.715   4.554  14.888  0.5196  2.2051  0.1903
  126CHL1  H27C15584   3.572   4.495  14.785  0.8854 -0.2409 -0.5109
  127CHL1    C315585   4.768   5.611  13.119 -0.8568  1.0716  0.3596
  127CHL1    H315586   4.658   5.612  13.134 -0.8091  0.8650  0.7520
  127CHL1    O315587   4.799   5.662  12.993  0.4520  0.0450  0.2649
  127CHL1   H3'15588   4.891   5.639  12.980  0.1986 -1.2217  0.4947
  127CHL1    C415589   4.840   5.695  13.229  0.9278  0.3564  0.0429
  127CHL1   H4A15590   4.949   5.684  13.210  0.9580 -1.5604  1.0543
  127CHL1   H4B15591   4.817   5.803  13.222 -0.0471  0.1143 -0.7819
  127CHL1    C515592   4.823   5.641  13.368  0.1698 -0.2405  0.4232
  127CHL1    C615593   4.774   5.720  13.468  0.1532 -0.3186 -0.7441
  127CHL1    H615594   4.754   5.826  13.445  1.2130 -0.2616 -1.4456
  127CHL1    C715595   4.769   5.679  13.616 -0.6904 -0.1866  0.7891
  127CHL1   H7A15596   4.805   5.760  13.682  0.3950  2.1816 -2.4472
  127CHL1   H7B15597   4.667   5.655  13.652 -0.5015 -2.0110  0.2465
  127CHL1    C815598   4.861   5.547  13.630 -0.3024 -0.9024  0.2048
  127CHL1    H815599   4.968   5.577  13.622 -0.6214  0.1747 -0.1757
  127CHL1   C1415600   4.836   5.485  13.764  0.1356  1.2070 -0.1792
  127CHL1   H1415601   4.730   5.454  13.767 -0.0362  1.8565  0.7290
  127CHL1   C1515602   4.857   5.582  13.884  0.8938 -0.0216 -0.2291
  127CHL1  H15A15603   4.950   5.642  13.873  0.8070 -0.1861 -2.1955
  127CHL1  H15B15604   4.770   5.647  13.908 -0.8442 -3.2828  3.3106
  127CHL1   C1615605   4.875   5.488  14.003  0.0623 -0.2406 -0.1596
  127CHL1  H16A15606   4.971   5.524  14.046  0.7908 -1.3840 -0.7768
  127CHL1  H16B15607   4.798   5.496  14.082  1.2129  2.4123  0.8323
  127CHL1   C1715608   4.879   5.346  13.942  0.6076  0.7035  0.7003
  127CHL1   H1715609   4.773   5.312  13.936  0.6481  0.6360  0.3591
  127CHL1   C1315610   4.917   5.355  13.791 -0.2460 -0.1583 -0.9490
  127CHL1   C1815611   5.066   5.394  13.788  0.4195  0.8138 -0.3113
  127CHL1  H18A15612   5.116   5.296  13.803 -1.8318 -0.2953  0.2780
  127CHL1  H18B15613   5.089   5.426  13.684  0.2887 -0.2814 -0.6901
  127CHL1  H18C15614   5.098   5.465  13.867  1.0172  1.1156 -0.8171
  127CHL1   C1215615   4.883   5.248  13.697  0.5931  0.2632  0.0507
  127CHL1  H12A15616   4.944   5.155  13.699 -0.5312 -0.5071 -0.4810
  127CHL1  H12B15617   4.782   5.211  13.724  1.2427  0.0196  2.3021
  127CHL1   C1115618   4.899   5.300  13.549  0.1864 -0.3418 -0.3733
  127CHL1  H11A15619   5.006   5.286  13.526  0.0997  0.4477 -1.3183
  127CHL1  H11B15620   4.863   5.222  13.479 -1.2986  1.4075 -1.6608
  127CHL1    C915621   4.835   5.438  13.517  0.6474  0.5269 -0.3374
  127CHL1    H915622   4.726   5.420  13.526  0.9907 -0.8399  2.3773
  127CHL1   C1015623   4.866   5.498  13.375 -0.6453  0.4708 -0.4654
  127CHL1   C1915624   5.020   5.487  13.350  0.1871 -0.1652 -0.7883
  127CHL1  H19A15625   5.064   5.531  13.442 -1.9251  1.2442 -0.3761
  127CHL1  H19B15626   5.052   5.381  13.352  1.3508  0.1115  2.9135
  127CHL1  H19C15627   5.064   5.539  13.262 -0.1443  1.8101  0.1371
  127CHL1    C115628   4.803   5.413  13.268  0.1618 -0.4010 -0.0003
  127CHL1   H1A15629   4.836   5.307  13.270  0.3165 -0.3618 -0.5150
  127CHL1   H1B15630   4.692   5.420  13.266  0.2709  1.9306 -1.2516
  127CHL1    C215631   4.827   5.468  13.128  0.3420 -0.1465  0.4759
  127CHL1   H2A15632   4.780   5.398  13.055  0.8980 -0.1691  0.1274
  127CHL1   H2B15633   4.934   5.466  13.096 -0.3583  1.4080 -2.2586
  127CHL1   C2015634   4.944   5.228  14.027  0.5954  0.6924 -0.1919
  127CHL1   H2015635   5.049   5.219  13.995  0.7694  1.7400  0.0289
  127CHL1   C2115636   4.862   5.101  13.997  0.6461 -0.4845  0.8965
  127CHL1  H21A15637   4.887   5.018  14.067  1.3681 -0.1546  1.0374
  127CHL1  H21B15638   4.888   5.067  13.894  0.4684 -1.2270  1.0905
  127CHL1  H21C15639   4.752   5.117  14.002  0.8291  1.0447  0.3850
  127CHL1   C2215640   4.957   5.257  14.178  0.3364 -0.0463  0.0421
  127CHL1  H22A15641   5.013   5.352  14.187  1.5495 -0.6791 -0.5273
  127CHL1  H22B15642   4.857   5.254  14.226  0.2974 -0.5471 -0.0645
  127CHL1   C2315643   5.042   5.163  14.260  0.6683 -0.6552  0.0957
  127CHL1  H23A15644   5.014   5.056  14.249  0.0745 -0.5087  0.1640
  127CHL1  H23B15645   5.143   5.173  14.215  0.3127 -0.1897 -0.6186
  127CHL1   C2415646   5.037   5.189  14.416 -0.8853  0.0343 -0.5154
  127CHL1  H24A15647   5.093   5.282  14.439 -1.8280  0.5766 -0.3711
  127CHL1  H24B15648   4.932   5.209  14.446 -0.4411  2.5869 -0.4572
  127CHL1   C2515649   5.097   5.083  14.503  0.0559 -0.1285 -0.1965
  127CHL1   H2515650   5.059   4.992  14.451  0.2182 -0.3901  0.1377
  127CHL1   C2615651   5.254   5.074  14.505  0.0326  0.7416  0.5069
  127CHL1  H26A15652   5.298   4.974  14.525  3.0252  1.4939 -1.7103
  127CHL1  H26B15653   5.295   5.095  14.404 -0.3540 -2.3434 -0.3991
  127CHL1  H26C15654   5.301   5.140  14.582 -0.2531 -0.8368  2.1059
  127CHL1   C2715655   5.039   5.081  14.643  0.8111  0.0799 -1.0777
  127CHL1  H27A15656   5.099   5.014  14.708 -0.9235  0.9362  1.5634
  127CHL1  H27B15657   5.049   5.171  14.708  1.3996 -0.1884 -0.7906
  127CHL1  H27C15658   4.932   5.057  14.658  0.6684  1.7935  1.1660
  128CHL1    C315659   2.632   1.294  13.328 -0.3132  0.4417 -0.1140
  128CHL1    H315660   2.743   1.298  13.332 -0.2820  0.5283 -0.8614
  128CHL1    O315661   2.612   1.298  13.185 -0.0782 -0.1317  0.6775
  128CHL1   H3'15662   2.649   1.217  13.149  0.4181  0.7427 -0.8443
  128CHL1    C415663   2.579   1.165  13.388 -0.8821 -0.2824  0.0794
  128CHL1   H4A15664   2.473   1.151  13.358 -0.5353  1.2653 -2.0589
  128CHL1   H4B15665   2.628   1.078  13.340  1.3371 -0.0947  1.8253
  128CHL1    C515666   2.593   1.145  13.540 -0.3257 -0.0898 -0.4279
  128CHL1    C615667   2.642   1.037  13.596 -0.0692 -0.8627 -0.5941
  128CHL1    H615668   2.678   0.952  13.537  2.0795 -0.5436  0.1703
  128CHL1    C715669   2.647   1.020  13.749 -0.2874 -0.4530  0.1075
  128CHL1   H7A15670   2.609   0.921  13.783  1.8723 -0.4556  2.8295
  128CHL1   H7B15671   2.751   1.012  13.787  0.6791 -1.4680 -2.5164
  128CHL1    C815672   2.569   1.138  13.823 -0.2291  0.4246 -0.7411
  128CHL1    H815673   2.460   1.119  13.822 -0.6482  2.4922 -0.2768
  128CHL1   C1415674   2.610   1.155  13.971  0.5319 -0.7544 -0.2572
  128CHL1   H1415675   2.714   1.194  13.977 -0.0314  0.7934 -0.0869
  128CHL1   C1515676   2.611   1.027  14.058  0.2764  0.5465  0.3084
  128CHL1  H15A15677   2.521   0.968  14.032  0.8365 -1.8372  3.2699
  128CHL1  H15B15678   2.701   0.965  14.039 -0.3105 -0.0565 -0.5530
  128CHL1   C1615679   2.605   1.079  14.207  0.1780 -0.3048  0.3751
  128CHL1  H16A15680   2.517   1.038  14.261 -0.5430  1.2069  0.4062
  128CHL1  H16B15681   2.701   1.063  14.259 -0.0273  1.3200  1.3375
  128CHL1   C1715682   2.593   1.235  14.196  0.3594  0.4889  0.0714
  128CHL1   H1715683   2.701   1.263  14.191  0.6862 -0.6194  0.3649
  128CHL1   C1315684   2.536   1.264  14.053 -0.9285  0.4674 -0.0966
  128CHL1   C1815685   2.381   1.256  14.051  0.0795 -0.0866 -0.0099
  128CHL1  H18A15686   2.340   1.219  14.148 -0.7212 -0.0495 -0.3334
  128CHL1  H18B15687   2.331   1.354  14.040  0.0642 -0.0985 -0.0475
  128CHL1  H18C15688   2.335   1.201  13.966  1.2665  0.0186 -0.7458
  128CHL1   C1215689   2.582   1.405  13.990 -0.0331  0.3033 -0.2672
  128CHL1  H12A15690   2.531   1.490  14.040  3.5454  2.0837  0.6692
  128CHL1  H12B15691   2.693   1.415  13.995 -0.0461  1.0101 -1.2743
  128CHL1   C1115692   2.549   1.402  13.836  0.1095 -0.2040 -0.4034
  128CHL1  H11A15693   2.439   1.403  13.826 -0.0827  0.2627  1.3727
  128CHL1  H11B15694   2.580   1.493  13.780 -0.0129  0.3304  0.3700
  128CHL1    C915695   2.588   1.269  13.757  0.1047  0.1235 -0.0880
  128CHL1    H915696   2.698   1.279  13.756  0.1995 -0.3652  1.7588
  128CHL1   C1015697   2.541   1.269  13.615 -0.0795 -0.7159  0.7644
  128CHL1   C1915698   2.387   1.273  13.609  0.8318  0.1843  0.0532
  128CHL1  H19A15699   2.338   1.192  13.666  1.4444  0.0896  0.4566
  128CHL1  H19B15700   2.340   1.361  13.657  2.4892  0.3710  1.4533
  128CHL1  H19C15701   2.352   1.269  13.504  0.0039  0.0612  0.3271
  128CHL1    C115702   2.587   1.408  13.541  1.0543 -0.0623  0.2046
  128CHL1   H1A15703   2.524   1.486  13.589 -1.0693 -1.9389  0.6366
  128CHL1   H1B15704   2.693   1.429  13.566  1.4738 -0.5633 -1.0769
  128CHL1    C215705   2.562   1.417  13.384 -0.1646 -0.1404 -0.3085
  128CHL1   H2A15706   2.591   1.516  13.341 -1.2227 -0.1745 -1.1268
  128CHL1   H2B15707   2.453   1.407  13.367 -0.4911  3.2222 -0.9419
  128CHL1   C2015708   2.525   1.299  14.319  0.7337  0.2840 -0.5321
  128CHL1   H2015709   2.427   1.247  14.323  1.1755 -0.6981 -1.8273
  128CHL1   C2115710   2.496   1.449  14.303  0.0247 -0.0582 -0.7036
  128CHL1  H21A15711   2.478   1.497  14.401 -1.9054 -2.9320  0.4721
  128CHL1  H21B15712   2.410   1.462  14.234  0.7564  0.7597 -1.4960
  128CHL1  H21C15713   2.581   1.493  14.246 -0.4042 -0.0999 -1.3994
  128CHL1   C2215714   2.598   1.273  14.450  0.3257  1.2211  0.6219
  128CHL1  H22A15715   2.635   1.168  14.448  2.7873  2.0289  0.4971
  128CHL1  H22B15716   2.694   1.327  14.462  0.8849  0.6304 -0.9427
  128CHL1   C2315717   2.517   1.271  14.576 -0.5118 -0.8950  0.0862
  128CHL1  H23A15718   2.489   1.378  14.589 -2.0910 -0.9978 -2.0149
  128CHL1  H23B15719   2.425   1.210  14.568 -1.1537  0.0139  0.2791
  128CHL1   C2415720   2.591   1.225  14.706 -0.3773 -0.0262  0.8996
  128CHL1  H24A15721   2.606   1.116  14.696 -2.2849 -0.2129 -0.6444
  128CHL1  H24B15722   2.691   1.267  14.727 -0.1486 -1.0857  2.0025
  128CHL1   C2515723   2.512   1.239  14.840  0.1125  0.4499  0.0865
  128CHL1   H2515724   2.585   1.218  14.921  2.4940  1.5060 -1.6707
  128CHL1   C2615725   2.438   1.372  14.862  0.3311 -0.2186  0.3180
  128CHL1  H26A15726   2.384   1.373  14.959 -0.1487 -0.3662  0.0529
  128CHL1  H26B15727   2.508   1.458  14.853 -0.9535  0.8092 -0.1617
  128CHL1  H26C15728   2.356   1.389  14.789 -1.7797  0.6434  2.7336
  128CHL1   C2715729   2.401   1.128  14.849  0.3985 -0.3572  0.4880
  128CHL1  H27A15730   2.343   1.153  14.940  1.9463  1.7992  0.9858
  128CHL1  H27B15731   2.352   1.138  14.750  0.7966  0.7779  0.3908
  128CHL1  H27C15732   2.453   1.031  14.860  2.0037  0.4631  0.4159
  129CHL1    C315733   7.159   4.919  13.579 -0.0027 -0.3370  0.2892
  129CHL1    H315734   7.049   4.905  13.576  0.0727 -0.6989 -1.3187
  129CHL1    O315735   7.203   4.880  13.450 -0.2949 -0.6479  0.0073
  129CHL1   H3'15736   7.296   4.903  13.448  0.0017 -1.2213  2.9766
  129CHL1    C415737   7.188   5.063  13.604 -0.5643 -0.4724  0.4333
  129CHL1   H4A15738   7.297   5.081  13.594 -0.5980  0.1880  1.1451
  129CHL1   H4B15739   7.133   5.124  13.529  1.1605  0.0917 -0.4229
  129CHL1    C515740   7.141   5.104  13.742 -0.0715 -0.3034  0.4763
  129CHL1    C615741   7.069   5.214  13.762  0.4722  0.0465  0.6136
  129CHL1    H615742   7.039   5.268  13.672  1.2052 -0.7383 -0.1189
  129CHL1    C715743   7.045   5.282  13.893  0.4346  0.2651  0.4131
  129CHL1   H7A15744   7.057   5.392  13.887  0.3130  0.2663  0.1926
  129CHL1   H7B15745   6.941   5.257  13.923  1.1848 -3.3489  0.5143
  129CHL1    C815746   7.138   5.223  14.014  0.3315 -1.1027  0.1092
  129CHL1    H815747   7.238   5.266  13.995  0.4152 -1.7423 -0.9331
  129CHL1   C1415748   7.074   5.262  14.143 -0.0493 -0.1020 -0.1271
  129CHL1   H1415749   6.972   5.219  14.136 -0.3605  0.3381  1.4449
  129CHL1   C1515750   7.065   5.414  14.173  0.4939 -0.1365  0.2422
  129CHL1  H15A15751   7.161   5.468  14.164 -0.2989  1.7597  2.3209
  129CHL1  H15B15752   6.993   5.459  14.101 -0.4175  0.5455  1.5476
  129CHL1   C1615753   7.023   5.411  14.322 -0.1128 -0.1942 -0.3234
  129CHL1  H16A15754   7.076   5.493  14.375 -0.7092  0.3144 -0.5002
  129CHL1  H16B15755   6.913   5.426  14.310  0.2781  2.9086 -0.9509
  129CHL1   C1715756   7.056   5.272  14.382 -0.9087  0.2732  0.2216
  129CHL1   H1715757   6.962   5.213  14.391 -1.2159  0.4515 -1.4987
  129CHL1   C1315758   7.141   5.203  14.270  0.1515 -0.0444 -0.0015
  129CHL1   C1815759   7.284   5.250  14.282  0.0080 -0.3310  0.0259
  129CHL1  H18A15760   7.274   5.360  14.297  0.0236 -0.0812 -1.5847
  129CHL1  H18B15761   7.333   5.198  14.367  1.4991 -1.6802 -1.5817
  129CHL1  H18C15762   7.347   5.230  14.193  0.7619 -1.3563  0.7565
  129CHL1   C1215763   7.135   5.051  14.256 -0.3032  0.3372  0.3327
  129CHL1  H12A15764   7.195   5.000  14.335  2.1603  1.7932 -0.4847
  129CHL1  H12B15765   7.031   5.018  14.276 -0.5546  1.4720  0.9577
  129CHL1   C1115766   7.198   5.002  14.129  0.2680  0.2986  0.0337
  129CHL1  H11A15767   7.303   5.038  14.134 -0.0091  1.1233  0.1479
  129CHL1  H11B15768   7.194   4.891  14.130 -0.5541  0.3136  2.0149
  129CHL1    C915769   7.143   5.074  14.001  0.1683 -0.1399  0.8188
  129CHL1    H915770   7.037   5.043  14.001  0.5459 -1.5117  1.2024
  129CHL1   C1015771   7.200   5.030  13.862 -0.1400 -0.0546 -0.0936
  129CHL1   C1915772   7.350   5.040  13.871 -0.2896 -0.7516  1.0333
  129CHL1  H19A15773   7.394   4.981  13.954  0.8652  1.1141  1.8223
  129CHL1  H19B15774   7.397   5.001  13.778  1.4102 -1.2209  2.0593
  129CHL1  H19C15775   7.386   5.141  13.901 -0.9690 -0.7016  1.7317
  129CHL1    C115776   7.163   4.876  13.833 -0.2108 -0.4236 -1.4413
  129CHL1   H1A15777   7.218   4.817  13.910 -0.3538  1.5525  0.2581
  129CHL1   H1B15778   7.054   4.860  13.850  0.4073 -2.7184  1.3476
  129CHL1    C215779   7.211   4.828  13.695 -0.0772 -0.1914  0.0808
  129CHL1   H2A15780   7.173   4.727  13.667 -2.8419  0.4738  1.1068
  129CHL1   H2B15781   7.321   4.826  13.688 -0.1048  0.2855 -0.6156
  129CHL1   C2015782   7.129   5.284  14.524  0.3961 -0.1608  0.2015
  129CHL1   H2015783   7.221   5.345  14.509  0.1489 -0.1324 -1.3533
  129CHL1   C2115784   7.159   5.145  14.576  0.1699 -0.1207 -0.3744
  129CHL1  H21A15785   7.066   5.084  14.570 -0.1456  0.1291  1.5169
  129CHL1  H21B15786   7.192   5.156  14.681  0.4109 -1.2782 -0.3178
  129CHL1  H21C15787   7.247   5.092  14.532  0.5006  0.1062  0.0090
  129CHL1   C2215788   7.029   5.363  14.615  0.0458 -0.2948 -0.4815
  129CHL1  H22A15789   6.976   5.452  14.575  0.1690 -0.4212 -0.9320
  129CHL1  H22B15790   6.951   5.292  14.649  1.1722 -0.0260  3.1383
  129CHL1   C2315791   7.107   5.414  14.737  0.2228 -0.0543  0.2501
  129CHL1  H23A15792   7.150   5.329  14.794 -1.4798 -2.6906 -2.1787
  129CHL1  H23B15793   7.191   5.468  14.687  0.8367 -0.6426  0.6281
  129CHL1   C2415794   7.018   5.505  14.832  0.2217  0.6261  0.2749
  129CHL1  H24A15795   6.949   5.571  14.775 -0.3721 -0.2752 -0.0590
  129CHL1  H24B15796   6.955   5.434  14.890  1.2634  0.6342  1.4609
  129CHL1   C2515797   7.094   5.587  14.934 -0.8143 -0.3082  0.6366
  129CHL1   H2515798   7.170   5.524  14.985 -2.3884 -0.1125  3.4173
  129CHL1   C2615799   7.166   5.714  14.885  0.2175  0.2127  0.0833
  129CHL1  H26A15800   7.239   5.693  14.804 -0.1709  1.3590 -0.5950
  129CHL1  H26B15801   7.087   5.780  14.842  1.6927  2.2830  0.3890
  129CHL1  H26C15802   7.227   5.767  14.962  0.8953  0.4842 -0.6271
  129CHL1   C2715803   7.001   5.626  15.050 -0.1765  0.8390  0.0969
  129CHL1  H27A15804   7.049   5.689  15.128  1.3074 -2.2904  1.8994
  129CHL1  H27B15805   6.923   5.680  14.992  0.3171 -0.1685 -1.6026
  129CHL1  H27C15806   6.947   5.541  15.095 -0.0882  0.9571  0.4324
  130CHL1    C315807   4.513   6.176  13.749  0.0262 -0.4581 -0.3573
  130CHL1    H315808   4.402   6.177  13.749 -0.0515  0.6272 -3.4622
  130CHL1    O315809   4.552   6.202  13.616 -0.2592 -0.2229  0.2035
  130CHL1   H3'15810   4.635   6.248  13.629 -0.4965  0.2737  0.0176
  130CHL1    C415811   4.572   6.290  13.838 -0.5977 -1.3020  0.0242
  130CHL1   H4A15812   4.681   6.292  13.813 -0.9340  1.4064 -1.6119
  130CHL1   H4B15813   4.542   6.391  13.805  1.2064 -1.3828 -2.1312
  130CHL1    C515814   4.543   6.276  13.988 -0.0942  0.3043  0.5200
  130CHL1    C615815   4.485   6.366  14.054  0.1677 -0.5203 -0.5319
  130CHL1    H615816   4.459   6.459  14.002  2.3647  0.0680 -0.6650
  130CHL1    C715817   4.456   6.365  14.204  0.4691  0.9368  0.3438
  130CHL1   H7A15818   4.472   6.469  14.239  2.7702  1.3416 -1.6095
  130CHL1   H7B15819   4.349   6.344  14.223  0.5219 -0.0484 -0.3499
  130CHL1    C815820   4.533   6.257  14.278  0.2748  0.2138 -0.7343
  130CHL1    H815821   4.638   6.287  14.297 -0.0618  1.0914 -0.1750
  130CHL1   C1415822   4.469   6.228  14.410  0.1141  1.0394  0.3736
  130CHL1   H1415823   4.363   6.207  14.385  0.0532  2.3283 -0.5653
  130CHL1   C1515824   4.452   6.339  14.506 -0.2538 -1.2592 -0.2227
  130CHL1  H15A15825   4.542   6.404  14.514 -0.3735 -1.3045  2.5363
  130CHL1  H15B15826   4.365   6.399  14.472 -0.1517  0.3830  2.1273
  130CHL1   C1615827   4.424   6.279  14.641 -0.9141 -0.1753  0.3236
  130CHL1  H16A15828   4.499   6.319  14.713  0.1289  1.9028 -1.8043
  130CHL1  H16B15829   4.329   6.312  14.688 -0.6559  3.2273 -1.2498
  130CHL1   C1715830   4.439   6.123  14.618  0.7739 -0.6761  0.4326
  130CHL1   H1715831   4.342   6.077  14.587  1.4950 -1.3925 -0.8671
  130CHL1   C1315832   4.533   6.119  14.487 -0.1028  0.3148  0.0992
  130CHL1   C1815833   4.671   6.156  14.529  0.1222  0.1237 -0.8514
  130CHL1  H18A15834   4.713   6.069  14.585  0.4718  1.5423  1.1740
  130CHL1  H18B15835   4.739   6.183  14.445 -0.1336  1.4081 -0.6670
  130CHL1  H18C15836   4.675   6.240  14.601 -0.0825  0.3082 -1.0545
  130CHL1   C1215837   4.528   5.982  14.412 -0.0446  0.5688  0.4969
  130CHL1  H12A15838   4.583   5.894  14.452 -2.2450 -1.5713 -0.8664
  130CHL1  H12B15839   4.420   5.954  14.411 -0.0503  0.4725  1.7283
  130CHL1   C1115840   4.587   6.006  14.271  0.1611 -0.2987 -0.2708
  130CHL1  H11A15841   4.695   6.028  14.279  0.2696 -1.1704  0.9324
  130CHL1  H11B15842   4.577   5.916  14.207 -1.1390 -0.1357 -0.3305
  130CHL1    C915843   4.523   6.122  14.195  0.1387  0.0443 -0.1629
  130CHL1    H915844   4.417   6.089  14.182  0.5354 -2.0568  1.4110
  130CHL1   C1015845   4.579   6.142  14.049 -1.2931  0.2544  0.5452
  130CHL1   C1915846   4.740   6.137  14.056 -0.0143 -0.5874  0.1821
  130CHL1  H19A15847   4.788   6.175  13.964  0.3847  1.2068  1.0866
  130CHL1  H19B15848   4.778   6.200  14.139 -0.7292 -0.3999  0.3739
  130CHL1  H19C15849   4.774   6.031  14.067 -0.5804 -0.7873  0.0289
  130CHL1    C115850   4.527   6.032  13.955 -0.2583  0.2458  0.6441
  130CHL1   H1A15851   4.554   5.931  13.992  0.0648  0.4183  0.8880
  130CHL1   H1B15852   4.417   6.046  13.959 -0.4045  0.0918 -1.6249
  130CHL1    C215853   4.564   6.043  13.808 -0.1572 -0.1348  0.1746
  130CHL1   H2A15854   4.514   5.966  13.746 -2.5394  2.1288 -0.8999
  130CHL1   H2B15855   4.673   6.046  13.782 -0.4826  0.5685 -1.2228
  130CHL1   C2015856   4.478   6.041  14.743 -0.3810  0.0241  0.1297
  130CHL1   H2015857   4.567   6.096  14.783 -1.1266  1.5972 -0.3168
  130CHL1   C2115858   4.514   5.895  14.705  0.2797  0.5649 -0.0905
  130CHL1  H21A15859   4.607   5.895  14.646  0.1027  0.5319 -0.3707
  130CHL1  H21B15860   4.432   5.847  14.646  0.0361  0.6363  0.1848
  130CHL1  H21C15861   4.531   5.826  14.791 -1.4177 -1.6878 -1.4333
  130CHL1   C2215862   4.372   6.042  14.858  0.0089  0.1773  0.4211
  130CHL1  H22A15863   4.319   6.139  14.860  2.0589  1.3563  0.3917
  130CHL1  H22B15864   4.300   5.962  14.830  1.5082 -0.5843 -1.5664
  130CHL1   C2315865   4.425   6.009  15.001 -0.6489 -0.2083  0.1274
  130CHL1  H23A15866   4.345   5.995  15.077  0.2338 -1.6921  0.8281
  130CHL1  H23B15867   4.486   5.917  15.002 -1.5143 -0.8499 -1.4811
  130CHL1   C2415868   4.510   6.128  15.053  0.1908 -0.7841  0.9680
  130CHL1  H24A15869   4.610   6.122  15.004  0.7818 -3.4177  2.3283
  130CHL1  H24B15870   4.456   6.222  15.030  0.6958 -0.6592  0.2542
  130CHL1   C2515871   4.538   6.127  15.208 -0.3470  0.5608  0.9775
  130CHL1   H2515872   4.436   6.108  15.248 -0.4078  0.7209  0.8979
  130CHL1   C2615873   4.641   6.013  15.250  0.0483  0.0801  0.1152
  130CHL1  H26A15874   4.660   6.014  15.359  0.4254 -0.2956  0.0572
  130CHL1  H26B15875   4.610   5.912  15.216  1.2753 -0.5980  0.9236
  130CHL1  H26C15876   4.733   6.039  15.193 -0.1272 -0.8378 -0.6138
  130CHL1   C2715877   4.613   6.252  15.255 -0.5383 -0.4927  0.1443
  130CHL1  H27A15878   4.666   6.243  15.353 -0.6278 -1.3112  0.1261
  130CHL1  H27B15879   4.671   6.302  15.175 -2.5532 -0.3312 -1.3037
  130CHL1  H27C15880   4.543   6.337  15.274  1.0083  0.8939 -0.1476
  131CHL1    C315881   2.480   4.216  13.779  0.0053 -0.2924 -0.5581
  131CHL1    H315882   2.386   4.242  13.832  0.3023 -0.6137  0.1496
  131CHL1    O315883   2.463   4.287  13.659 -0.4696  0.0133 -0.3661
  131CHL1   H3'15884   2.544   4.274  13.609 -1.0694  2.6184 -2.2467
  131CHL1    C415885   2.592   4.272  13.869  0.3298  0.8724  0.1759
  131CHL1   H4A15886   2.685   4.257  13.810  0.6372  0.5551  0.7349
  131CHL1   H4B15887   2.580   4.383  13.871  0.9423  0.9625 -0.6483
  131CHL1    C515888   2.598   4.207  14.009 -0.3615 -0.3490 -1.0142
  131CHL1    C615889   2.590   4.276  14.124 -0.3175  0.0384 -0.0794
  131CHL1    H615890   2.583   4.385  14.112  0.0610  0.2022  1.0641
  131CHL1    C715891   2.589   4.222  14.262  0.1173  0.0751  0.1220
  131CHL1   H7A15892   2.633   4.291  14.337 -0.0232 -0.1622  0.4231
  131CHL1   H7B15893   2.482   4.210  14.286 -0.2052  0.3206 -1.1470
  131CHL1    C815894   2.644   4.073  14.267  0.1472 -0.9243 -0.2926
  131CHL1    H815895   2.755   4.084  14.273  0.3671 -2.8490 -0.2839
  131CHL1   C1415896   2.594   4.009  14.392  0.4327  0.4273  0.0887
  131CHL1   H1415897   2.484   3.995  14.384  0.5312  0.7891 -3.1779
  131CHL1   C1515898   2.621   4.082  14.534  0.0679  0.5273 -0.2637
  131CHL1  H15A15899   2.728   4.111  14.540  0.2871 -0.1349 -0.7712
  131CHL1  H15B15900   2.551   4.166  14.554 -0.7687 -0.8944  3.4328
  131CHL1   C1615901   2.597   3.971  14.636  0.1866  0.3883  0.3941
  131CHL1  H16A15902   2.690   3.959  14.695  0.8144 -1.4742 -0.8649
  131CHL1  H16B15903   2.510   3.990  14.702 -0.6828 -0.5707 -0.4328
  131CHL1   C1715904   2.573   3.843  14.556 -0.0402  0.4563 -0.2106
  131CHL1   H1715905   2.463   3.837  14.541 -0.0239 -0.9538  0.1433
  131CHL1   C1315906   2.640   3.863  14.412  0.0434  0.5427  0.3711
  131CHL1   C1815907   2.795   3.859  14.422 -0.3943 -0.2317  0.3436
  131CHL1  H18A15908   2.847   3.879  14.327 -0.4562  1.4735  0.6427
  131CHL1  H18B15909   2.842   3.920  14.502 -0.1292  0.3132 -0.2231
  131CHL1  H18C15910   2.825   3.752  14.432  1.5731  0.1140 -1.2598
  131CHL1   C1215911   2.592   3.782  14.291  0.3541 -0.0984 -0.0539
  131CHL1  H12A15912   2.615   3.673  14.294  1.2731 -0.0353 -2.5601
  131CHL1  H12B15913   2.483   3.800  14.286  0.2297 -1.2059 -2.7289
  131CHL1   C1115914   2.636   3.842  14.157  0.4035  0.0110 -0.5092
  131CHL1  H11A15915   2.746   3.828  14.155  0.3741 -0.5780  0.8733
  131CHL1  H11B15916   2.595   3.789  14.068  1.2060  1.5630 -1.8749
  131CHL1    C915917   2.599   3.992  14.140  0.4399 -0.6632 -0.3767
  131CHL1    H915918   2.488   4.000  14.140  0.4902  0.5992 -2.0607
  131CHL1   C1015919   2.617   4.051  14.004  0.7461 -0.1442 -0.5731
  131CHL1   C1915920   2.762   4.035  13.964  0.5546 -0.9795 -0.1997
  131CHL1  H19A15921   2.792   3.929  13.970 -2.6483 -2.0670 -1.3664
  131CHL1  H19B15922   2.781   4.068  13.859  0.8861 -0.3389  0.0509
  131CHL1  H19C15923   2.817   4.105  14.031  0.4802 -0.5181 -0.6164
  131CHL1    C115924   2.514   3.993  13.902  0.6410  0.1405 -0.5525
  131CHL1   H1A15925   2.549   3.890  13.876  2.1175  0.8040 -1.3256
  131CHL1   H1B15926   2.412   3.993  13.945  0.3715 -1.7888 -1.0965
  131CHL1    C215927   2.502   4.070  13.768 -0.0931  0.0947 -0.3962
  131CHL1   H2A15928   2.423   4.022  13.707 -0.2613 -0.0091 -0.0933
  131CHL1   H2B15929   2.599   4.059  13.715 -0.9419 -0.0900 -1.9747
  131CHL1   C2015930   2.617   3.717  14.633 -0.1561  0.0501  0.0761
  131CHL1   H2015931   2.728   3.712  14.624 -0.2540 -0.7557 -0.7684
  131CHL1   C2115932   2.535   3.603  14.578 -0.0551  0.6467  1.2304
  131CHL1  H21A15933   2.426   3.624  14.575 -0.2087 -0.2114 -0.1029
  131CHL1  H21B15934   2.557   3.511  14.635  0.2811  0.3643  0.6490
  131CHL1  H21C15935   2.572   3.580  14.476 -1.7846 -0.6032  0.8367
  131CHL1   C2215936   2.599   3.722  14.785  0.2648 -0.2318 -0.8466
  131CHL1  H22A15937   2.664   3.802  14.827 -1.9822  0.4750  1.5028
  131CHL1  H22B15938   2.496   3.756  14.807  0.3219 -1.2608  1.2889
  131CHL1   C2315939   2.637   3.599  14.864  0.3427  1.1332 -0.1329
  131CHL1  H23A15940   2.548   3.532  14.858  0.3128  1.2088 -0.5556
  131CHL1  H23B15941   2.721   3.540  14.821  0.2746  1.9281 -1.4113
  131CHL1   C2415942   2.657   3.623  15.016 -0.2967  0.1275 -0.2979
  131CHL1  H24A15943   2.737   3.700  15.028  0.4355 -0.3231 -2.0342
  131CHL1  H24B15944   2.565   3.668  15.059 -2.1273 -2.8145 -0.9223
  131CHL1   C2515945   2.685   3.496  15.113 -0.2458  0.5017 -0.1572
  131CHL1   H2515946   2.704   3.538  15.214 -0.2464 -0.8917  0.4405
  131CHL1   C2615947   2.561   3.402  15.119 -1.0244 -0.0979 -0.2418
  131CHL1  H26A15948   2.466   3.457  15.133 -1.4846 -1.0460  0.4651
  131CHL1  H26B15949   2.557   3.320  15.043 -0.3558 -0.9375  0.5939
  131CHL1  H26C15950   2.568   3.340  15.211 -0.3157 -0.6228 -0.6401
  131CHL1   C2715951   2.815   3.415  15.080 -0.2186  0.0096  0.3544
  131CHL1  H27A15952   2.900   3.485  15.057  0.6457 -0.7979  1.0188
  131CHL1  H27B15953   2.850   3.345  15.158  1.2752  2.1262  1.7013
  131CHL1  H27C15954   2.805   3.353  14.988  3.0795  0.4295 -0.4177
  132CHL1    C315955   4.831   6.757  13.523  0.5576 -0.3071 -0.0876
  132CHL1    H315956   4.732   6.809  13.523 -0.3829 -2.0240  1.1062
  132CHL1    O315957   4.860   6.705  13.394 -0.2983 -0.3752  0.0763
  132CHL1   H3'15958   4.905   6.782  13.358  1.5774 -0.5723  1.7693
  132CHL1    C415959   4.944   6.844  13.575 -0.6705 -0.3117 -0.0956
  132CHL1   H4A15960   5.041   6.789  13.577 -0.0102  0.8394  0.9188
  132CHL1   H4B15961   4.960   6.933  13.510 -1.3923 -0.0245  0.1081
  132CHL1    C515962   4.908   6.905  13.711  0.8381  0.1132 -0.1703
  132CHL1    C615963   4.886   7.036  13.732 -1.0673 -0.1258  0.5358
  132CHL1    H615964   4.895   7.108  13.649  2.0340 -0.2737  0.6383
  132CHL1    C715965   4.857   7.096  13.866  0.6424 -0.1452 -0.3148
  132CHL1   H7A15966   4.925   7.182  13.883  0.0069  0.1684  0.6877
  132CHL1   H7B15967   4.754   7.137  13.864  1.4928  2.2785  0.7900
  132CHL1    C815968   4.883   6.993  13.986  0.1055  0.3149  0.4696
  132CHL1    H815969   4.992   6.993  14.011  0.0940 -1.6504  0.6298
  132CHL1   C1415970   4.821   7.052  14.116 -0.2183  0.3144  0.2349
  132CHL1   H1415971   4.717   7.082  14.090  0.8967  3.1077 -1.4557
  132CHL1   C1515972   4.875   7.184  14.167  0.1960 -0.2095  0.7809
  132CHL1  H15A15973   4.984   7.173  14.181  0.0560  0.0527  2.3277
  132CHL1  H15B15974   4.859   7.265  14.093  4.5305 -0.5684 -0.7910
  132CHL1   C1615975   4.814   7.195  14.307 -0.0215  0.6592  0.0287
  132CHL1  H16A15976   4.891   7.250  14.365 -0.5135  2.7046 -1.1734
  132CHL1  H16B15977   4.721   7.254  14.305 -1.1132 -0.8338  2.3109
  132CHL1   C1715978   4.767   7.050  14.351 -0.7289 -0.2638  0.0746
  132CHL1   H1715979   4.659   7.040  14.327 -0.4082 -2.8720 -0.5735
  132CHL1   C1315980   4.823   6.957  14.238  0.0144  0.6494  0.1249
  132CHL1   C1815981   4.963   6.916  14.280 -0.5957 -0.6247  0.6777
  132CHL1  H18A15982   4.969   6.854  14.371 -0.6192 -1.3202  0.2101
  132CHL1  H18B15983   5.002   6.862  14.191  2.6188  1.2792  0.7613
  132CHL1  H18C15984   5.029   7.005  14.288  0.3476 -1.0628 -1.5456
  132CHL1   C1215985   4.743   6.830  14.198 -0.1146 -0.6053  0.6924
  132CHL1  H12A15986   4.729   6.777  14.295 -0.4419  1.8947  2.1127
  132CHL1  H12B15987   4.639   6.863  14.178  0.5449 -0.3137 -2.8611
  132CHL1   C1115988   4.801   6.764  14.072 -0.0357 -0.4913 -0.3049
  132CHL1  H11A15989   4.900   6.725  14.103  0.8482  1.7865 -0.0073
  132CHL1  H11B15990   4.730   6.684  14.044  1.0076 -1.7834  0.5980
  132CHL1    C915991   4.819   6.856  13.952 -0.7241  0.1107 -0.0328
  132CHL1    H915992   4.715   6.886  13.929 -0.5786  1.5877  1.0922
  132CHL1   C1015993   4.877   6.800  13.817  0.2719 -0.2732  0.4764
  132CHL1   C1915994   5.008   6.726  13.854 -1.1702  0.4119  0.3409
  132CHL1  H19A15995   5.088   6.794  13.890 -0.8211  0.1198  0.1198
  132CHL1  H19B15996   4.982   6.643  13.924 -2.2276 -0.5188 -1.1091
  132CHL1  H19C15997   5.034   6.660  13.769 -3.1216 -0.0825  0.0705
  132CHL1    C115998   4.772   6.696  13.765  0.3570 -0.2368 -0.8513
  132CHL1   H1A15999   4.758   6.612  13.835  1.1609  0.4937  0.2294
  132CHL1   H1B16000   4.676   6.753  13.760  1.7557  2.3861 -0.0157
  132CHL1    C216001   4.809   6.641  13.620  0.1972  0.2701  0.5330
  132CHL1   H2A16002   4.726   6.576  13.587  0.3589  1.0186 -1.4759
  132CHL1   H2B16003   4.893   6.569  13.633 -0.6410 -0.4269  2.6372
  132CHL1   C2016004   4.790   7.022  14.497  0.1352 -0.2086  0.4564
  132CHL1   H2016005   4.898   7.000  14.512 -0.2208 -1.7704  0.9870
  132CHL1   C2116006   4.710   6.900  14.532 -0.3074 -0.2755  0.3466
  132CHL1  H21A16007   4.610   6.905  14.484  0.2971  1.3013 -0.8244
  132CHL1  H21B16008   4.697   6.896  14.642 -1.2844 -0.8403  0.2262
  132CHL1  H21C16009   4.764   6.810  14.496 -0.9991 -0.4366 -0.3230
  132CHL1   C2216010   4.748   7.132  14.585  0.0530 -0.8109 -0.3070
  132CHL1  H22A16011   4.768   7.101  14.690  0.2139 -1.2720 -0.4731
  132CHL1  H22B16012   4.820   7.215  14.563  0.4330 -1.0082  0.1585
  132CHL1   C2316013   4.601   7.181  14.583 -0.5192  0.4620  0.1494
  132CHL1  H23A16014   4.575   7.189  14.475 -0.0289 -1.1820 -0.1183
  132CHL1  H23B16015   4.524   7.108  14.615 -0.9174 -0.0224 -1.7536
  132CHL1   C2416016   4.575   7.303  14.668 -0.0737 -0.7805 -0.3517
  132CHL1  H24A16017   4.467   7.314  14.692  0.3101 -0.0051  1.1363
  132CHL1  H24B16018   4.630   7.302  14.764 -0.4442  1.4856 -0.0630
  132CHL1   C2516019   4.620   7.437  14.608  0.3498  0.0248  0.4073
  132CHL1   H2516020   4.723   7.428  14.567 -0.0811  1.0079 -0.9479
  132CHL1   C2616021   4.534   7.465  14.485 -1.2687  0.0222 -0.6250
  132CHL1  H26A16022   4.427   7.493  14.499 -0.7892  1.9741 -0.5849
  132CHL1  H26B16023   4.584   7.554  14.441  0.9156  0.6418  2.7493
  132CHL1  H26C16024   4.524   7.390  14.403  1.3333 -0.1563 -0.8575
  132CHL1   C2716025   4.596   7.558  14.700  0.2182  0.2047 -0.5642
  132CHL1  H27A16026   4.658   7.560  14.793 -1.1283  1.4447  0.3518
  132CHL1  H27B16027   4.621   7.653  14.649  1.2800 -0.6033 -1.6045
  132CHL1  H27C16028   4.492   7.572  14.735 -0.1819  0.1619 -1.6956
  133CHL1    C316029   1.369   1.423  13.646  0.0694 -0.0468  0.9016
  133CHL1    H316030   1.434   1.513  13.648 -1.7167  1.3724 -0.6733
  133CHL1    O316031   1.383   1.371  13.516  0.0167  0.4477 -0.2703
  133CHL1   H3'16032   1.330   1.427  13.458  1.4804  0.6033 -1.5142
  133CHL1    C416033   1.414   1.321  13.750 -0.5784 -0.6341 -0.0813
  133CHL1   H4A16034   1.342   1.236  13.746  1.1560 -2.1959  0.1026
  133CHL1   H4B16035   1.519   1.286  13.737  0.0195  1.3898 -0.9792
  133CHL1    C516036   1.399   1.377  13.888 -0.1056  0.4558 -0.1810
  133CHL1    C616037   1.504   1.407  13.967 -0.4394  0.6932 -0.7010
  133CHL1    H616038   1.604   1.371  13.938  0.2476  0.5790  1.5978
  133CHL1    C716039   1.489   1.448  14.114 -1.1761 -0.1349  0.0102
  133CHL1   H7A16040   1.555   1.390  14.183 -0.9436  0.3562  0.2065
  133CHL1   H7B16041   1.505   1.558  14.118 -2.6210  0.1203 -0.6526
  133CHL1    C816042   1.342   1.427  14.166 -0.0153 -0.0189 -0.3192
  133CHL1    H816043   1.329   1.321  14.194  2.5105 -0.0227  1.1922
  133CHL1   C1416044   1.317   1.500  14.294 -0.3360  0.2373 -0.1271
  133CHL1   H1416045   1.332   1.603  14.255  3.8309 -0.2267 -0.2154
  133CHL1   C1516046   1.425   1.493  14.404  0.1450 -0.1273  0.1974
  133CHL1  H15A16047   1.451   1.385  14.408 -1.2611 -0.6039 -1.8081
  133CHL1  H15B16048   1.512   1.554  14.375 -0.6101  0.2743 -1.3529
  133CHL1   C1616049   1.352   1.546  14.521  0.2447 -0.4108 -0.1269
  133CHL1  H16A16050   1.356   1.478  14.609  0.9446  1.3498  1.2794
  133CHL1  H16B16051   1.392   1.645  14.551 -0.5414  0.2507 -1.2035
  133CHL1   C1716052   1.202   1.570  14.490  0.1961 -0.4792 -0.0226
  133CHL1   H1716053   1.177   1.676  14.468  0.3818  0.3414  3.2038
  133CHL1   C1316054   1.181   1.497  14.353 -0.0058  0.1547  0.2068
  133CHL1   C1816055   1.140   1.355  14.396 -0.6599 -0.3013  0.5146
  133CHL1  H18A16056   1.128   1.291  14.305 -0.6551 -0.6560  0.7617
  133CHL1  H18B16057   1.222   1.312  14.457  1.9030  0.7527 -1.9624
  133CHL1  H18C16058   1.041   1.353  14.447 -0.2027  0.9199  1.5023
  133CHL1   C1216059   1.082   1.563  14.259  0.1074  0.5851  0.0058
  133CHL1  H12A16060   0.985   1.553  14.312  0.9636  0.3200  1.5937
  133CHL1  H12B16061   1.116   1.668  14.248 -2.0820  1.3179 -0.2978
  133CHL1   C1116062   1.101   1.489  14.118 -0.2784 -0.7447  0.0750
  133CHL1  H11A16063   1.048   1.392  14.123  1.5556 -1.9376 -2.0612
  133CHL1  H11B16064   1.044   1.553  14.048  0.8866 -0.3466 -0.5312
  133CHL1    C916065   1.241   1.477  14.065 -0.4539  0.3609 -0.0394
  133CHL1    H916066   1.274   1.582  14.051 -1.2028  0.9203  2.0000
  133CHL1   C1016067   1.257   1.417  13.925 -0.7263  0.6395 -0.8710
  133CHL1   C1916068   1.168   1.294  13.925 -1.1664 -0.2999  0.0197
  133CHL1  H19A16069   1.193   1.226  14.008  1.0389 -1.5628 -1.5717
  133CHL1  H19B16070   1.062   1.328  13.928 -0.4406  2.3208 -0.7586
  133CHL1  H19C16071   1.166   1.242  13.826 -0.7423  3.3470 -2.1079
  133CHL1    C116072   1.209   1.513  13.818 -0.3802 -0.1299 -0.3869
  133CHL1   H1A16073   1.108   1.550  13.848 -0.2519 -1.4069  1.8265
  133CHL1   H1B16074   1.277   1.600  13.820  0.2162 -0.6063  0.4891
  133CHL1    C216075   1.223   1.462  13.675  0.2329 -0.2089 -0.1950
  133CHL1   H2A16076   1.168   1.535  13.611 -0.8337 -1.0710 -0.2922
  133CHL1   H2B16077   1.154   1.375  13.670 -1.2892  0.9179  0.3762
  133CHL1   C2016078   1.112   1.540  14.606 -0.5595  0.2756 -0.9172
  133CHL1   H2016079   1.112   1.437  14.646 -0.4809  1.1426  1.4923
  133CHL1   C2116080   0.967   1.589  14.578 -0.2077 -0.7218 -0.7327
  133CHL1  H21A16081   0.910   1.530  14.504 -2.6581  1.6464 -0.8523
  133CHL1  H21B16082   0.972   1.693  14.540  1.2811 -1.1141 -1.7236
  133CHL1  H21C16083   0.923   1.580  14.679  1.6422 -1.0238  0.0951
  133CHL1   C2216084   1.157   1.624  14.737 -0.5050 -0.1863 -0.0172
  133CHL1  H22A16085   1.087   1.615  14.822 -0.3106  0.9460  0.2740
  133CHL1  H22B16086   1.252   1.575  14.768 -0.0344  1.6739  1.6574
  133CHL1   C2316087   1.186   1.769  14.710 -0.0636 -0.4726 -0.0712
  133CHL1  H23A16088   1.284   1.778  14.658 -0.7283  0.3322 -1.2383
  133CHL1  H23B16089   1.111   1.811  14.639 -1.0376  0.2817  1.3591
  133CHL1   C2416090   1.164   1.853  14.839 -0.5636  0.3845 -0.7220
  133CHL1  H24A16091   1.162   1.958  14.804  2.6966  0.3570 -1.3936
  133CHL1  H24B16092   1.067   1.824  14.883  0.8616 -3.6608  0.2591
  133CHL1   C2516093   1.269   1.837  14.948 -0.0046 -0.1647 -0.1802
  133CHL1   H2516094   1.300   1.730  14.955 -0.2553 -0.1755  0.8094
  133CHL1   C2616095   1.397   1.918  14.914 -0.3865  0.4710 -0.1246
  133CHL1  H26A16096   1.427   1.900  14.809 -0.7107 -4.4416  0.3684
  133CHL1  H26B16097   1.381   2.024  14.941 -1.2690  0.8504 -1.9911
  133CHL1  H26C16098   1.487   1.893  14.974 -0.5737 -0.1659 -0.0987
  133CHL1   C2716099   1.208   1.883  15.088  0.2003  0.4722  0.2011
  133CHL1  H27A16100   1.159   1.982  15.078 -1.7987 -0.5875 -1.3201
  133CHL1  H27B16101   1.127   1.808  15.106  1.0069 -0.5276 -0.2286
  133CHL1  H27C16102   1.285   1.884  15.169  0.9824  0.1089 -0.5300
  134CHL1    C316103   7.509   3.011  13.350  0.7221  0.5960  0.0320
  134CHL1    H316104   7.612   3.001  13.391  1.5612  1.2083 -1.7955
  134CHL1    O316105   7.537   3.007  13.208 -0.2081  0.2878  0.3763
  134CHL1   H3'16106   7.628   3.034  13.196 -0.8891  2.2210 -0.8302
  134CHL1    C416107   7.414   2.890  13.384 -0.4146  0.0237 -0.0700
  134CHL1   H4A16108   7.322   2.892  13.322 -1.3520  0.4899  1.2832
  134CHL1   H4B16109   7.472   2.802  13.350  0.9269  0.4453  1.0453
  134CHL1    C516110   7.378   2.877  13.526 -0.6529 -0.1058  0.2988
  134CHL1    C616111   7.397   2.766  13.603 -0.5696 -0.1777  0.1147
  134CHL1    H616112   7.452   2.683  13.556  1.0082  1.8594 -1.8937
  134CHL1    C716113   7.357   2.744  13.744 -0.4135  0.6252  0.4885
  134CHL1   H7A16114   7.304   2.646  13.747  0.0011  0.3975  0.3999
  134CHL1   H7B16115   7.446   2.715  13.804 -0.8514 -1.6000  0.1634
  134CHL1    C816116   7.273   2.854  13.801 -0.2193 -0.3405 -0.3218
  134CHL1    H816117   7.167   2.832  13.777 -1.5469  1.2344  3.3069
  134CHL1   C1416118   7.290   2.872  13.950 -0.3742  0.5549 -0.5082
  134CHL1   H1416119   7.386   2.928  13.960  0.2167 -0.6500  0.9021
  134CHL1   C1516120   7.310   2.744  14.028 -0.6356 -0.4436 -0.0632
  134CHL1  H15A16121   7.241   2.669  13.983 -3.2367  1.3183  0.7710
  134CHL1  H15B16122   7.413   2.703  14.023 -0.6633 -0.4118 -0.9897
  134CHL1   C1616123   7.267   2.785  14.174  0.0723  0.6483  0.7643
  134CHL1  H16A16124   7.172   2.730  14.193  0.3291 -0.4015 -0.7628
  134CHL1  H16B16125   7.346   2.766  14.249  2.0186  1.1399 -1.0765
  134CHL1   C1716126   7.228   2.938  14.170  0.0023  0.3464 -0.9105
  134CHL1   H1716127   7.326   2.986  14.191  0.1842 -0.9160  1.3697
  134CHL1   C1316128   7.183   2.958  14.019 -0.3552  0.6192  0.6316
  134CHL1   C1816129   7.040   2.900  14.008  0.5196 -0.1104 -0.6635
  134CHL1  H18A16130   6.981   2.969  14.073  1.0769  0.4739 -0.7586
  134CHL1  H18B16131   7.000   2.909  13.905  0.8094 -3.5650 -1.1787
  134CHL1  H18C16132   7.028   2.794  14.038 -1.6132  0.4170  0.5825
  134CHL1   C1216133   7.196   3.098  13.960  0.8558 -0.1918  0.3200
  134CHL1  H12A16134   7.116   3.171  13.986 -0.8100 -1.3294 -1.3950
  134CHL1  H12B16135   7.297   3.133  13.990  1.1782 -0.9080  0.0814
  134CHL1   C1116136   7.192   3.097  13.801 -0.5482  0.3606 -0.0336
  134CHL1  H11A16137   7.088   3.065  13.776 -0.8567  1.8277 -0.7535
  134CHL1  H11B16138   7.209   3.200  13.763  0.8196  0.0912 -0.1946
  134CHL1    C916139   7.301   2.997  13.746  0.2231  0.4534  0.3213
  134CHL1    H916140   7.402   3.026  13.781  0.9692 -0.4442 -0.9805
  134CHL1   C1016141   7.315   3.002  13.587 -0.0035 -0.1915  0.7464
  134CHL1   C1916142   7.174   3.023  13.528  0.4662  0.3131  0.0177
  134CHL1  H19A16143   7.172   3.039  13.418  3.3758  1.0157  0.0021
  134CHL1  H19B16144   7.115   2.936  13.566  2.6380 -1.3255 -0.2025
  134CHL1  H19C16145   7.108   3.100  13.573 -2.0467 -2.3680  1.2604
  134CHL1    C116146   7.406   3.128  13.549  0.3690 -0.1154  0.0828
  134CHL1   H1A16147   7.359   3.226  13.574  2.5967  1.0837 -0.1765
  134CHL1   H1B16148   7.499   3.127  13.610  0.2516  1.4588  0.3503
  134CHL1    C216149   7.451   3.138  13.400 -0.4360 -0.4541  0.0922
  134CHL1   H2A16150   7.539   3.205  13.390  1.1453 -2.5412 -0.6551
  134CHL1   H2B16151   7.362   3.162  13.338  0.2661 -0.1941 -0.8358
  134CHL1   C2016152   7.134   2.966  14.289  0.2737  0.4023  0.3929
  134CHL1   H2016153   7.033   2.929  14.260  1.3541 -2.0982 -0.5465
  134CHL1   C2116154   7.127   3.115  14.299  0.2649 -0.2046  0.6563
  134CHL1  H21A16155   7.083   3.156  14.205  0.3864 -0.3540  0.5350
  134CHL1  H21B16156   7.227   3.160  14.318  0.3023  0.0422 -0.0990
  134CHL1  H21C16157   7.060   3.148  14.381 -2.0147  0.1256 -1.2308
  134CHL1   C2216158   7.175   2.903  14.427 -0.2725 -0.0357 -0.3314
  134CHL1  H22A16159   7.197   2.795  14.425 -0.4818 -0.0817 -0.1931
  134CHL1  H22B16160   7.268   2.952  14.463 -0.1796 -0.8309  0.5267
  134CHL1   C2316161   7.069   2.908  14.536  0.4076  0.2258 -0.1217
  134CHL1  H23A16162   7.006   2.998  14.523  1.3037  0.9251  0.2616
  134CHL1  H23B16163   7.001   2.820  14.534 -1.1069  1.3277  0.7483
  134CHL1   C2416164   7.144   2.910  14.666 -0.0421 -0.4925  0.1625
  134CHL1  H24A16165   7.217   2.829  14.649  1.8179  1.4542 -1.9209
  134CHL1  H24B16166   7.214   2.996  14.680  0.5601 -0.5604 -1.9869
  134CHL1   C2516167   7.056   2.892  14.794  0.4273 -0.4627  0.3231
  134CHL1   H2516168   6.988   2.805  14.780 -0.7533  0.3192  1.0120
  134CHL1   C2616169   7.145   2.858  14.912 -0.2809  0.3233 -0.2798
  134CHL1  H26A16170   7.223   2.936  14.924 -1.0792  1.3433 -1.4717
  134CHL1  H26B16171   7.079   2.837  14.999 -0.6282 -0.8399 -0.7961
  134CHL1  H26C16172   7.192   2.759  14.894  1.3309  0.8295  0.9437
  134CHL1   C2716173   6.973   3.016  14.822 -0.3989  0.1141 -0.2227
  134CHL1  H27A16174   6.891   3.022  14.747  0.9627 -1.5211 -1.9483
  134CHL1  H27B16175   6.937   2.986  14.922  1.2095 -2.9208 -0.4478
  134CHL1  H27C16176   7.030   3.111  14.826 -0.9955  0.6475 -2.8370
  135CHL1    C316177   0.165   2.757  13.614 -0.9700 -1.5235 -0.2915
  135CHL1    H316178   0.058   2.764  13.585 -1.7643 -1.3301  2.3782
  135CHL1    O316179   0.244   2.706  13.507 -0.2489 -0.1674  0.0628
  135CHL1   H3'16180   0.330   2.695  13.548 -1.0810  0.3626  2.0643
  135CHL1    C416181   0.224   2.897  13.655  0.2099 -0.1355  0.0493
  135CHL1   H4A16182   0.331   2.886  13.683 -0.3833 -0.9991  2.1720
  135CHL1   H4B16183   0.219   2.970  13.571  2.4269  0.3408  0.2772
  135CHL1    C516184   0.149   2.950  13.780 -0.4398 -0.3913 -0.0079
  135CHL1    C616185   0.085   3.068  13.773  0.9862 -0.3569  0.0005
  135CHL1    H616186   0.074   3.125  13.680 -3.4786 -0.6843  0.1280
  135CHL1    C716187   0.010   3.129  13.885 -0.3276 -0.2323 -0.2314
  135CHL1   H7A16188   0.020   3.240  13.894  1.5018 -0.4357  0.7804
  135CHL1   H7B16189  -0.098   3.120  13.863 -0.4159  2.1539 -1.0618
  135CHL1    C816190   0.049   3.060  14.021  1.0856  0.1039  0.3584
  135CHL1    H816191   0.149   3.100  14.047  2.2249 -1.8918 -0.7457
  135CHL1   C1416192  -0.045   3.104  14.129  0.7227 -0.3620  0.4027
  135CHL1   H1416193  -0.145   3.064  14.102  0.3131  0.3347  0.8602
  135CHL1   C1516194  -0.058   3.251  14.157 -0.3941  0.0135 -0.0163
  135CHL1  H15A16195   0.035   3.312  14.170 -1.2541  1.5608 -0.7975
  135CHL1  H15B16196  -0.121   3.291  14.076  1.0449 -0.4435 -1.4187
  135CHL1   C1616197  -0.128   3.264  14.296 -0.2297 -0.7656 -0.2818
  135CHL1  H16A16198  -0.072   3.335  14.360 -0.3078 -2.5917  1.9472
  135CHL1  H16B16199  -0.235   3.293  14.286 -0.0498 -0.4956 -1.5663
  135CHL1   C1716200  -0.115   3.119  14.358  0.0145 -0.2649  0.1636
  135CHL1   H1716201  -0.206   3.060  14.336  0.4532 -0.8208 -0.1857
  135CHL1   C1316202  -0.017   3.044  14.269 -0.2208  0.0638  0.5380
  135CHL1   C1816203   0.126   3.071  14.317  0.0960  0.0699 -0.3127
  135CHL1  H18A16204   0.136   3.172  14.362 -3.1994  1.2644 -1.9568
  135CHL1  H18B16205   0.145   3.005  14.404 -1.8718  0.8753  0.7932
  135CHL1  H18C16206   0.218   3.056  14.256  0.9317  0.3249  0.8374
  135CHL1   C1216207  -0.037   2.889  14.253  1.4003 -0.0258 -0.2148
  135CHL1  H12A16208  -0.016   2.855  14.357  1.3036  0.4467 -0.0378
  135CHL1  H12B16209  -0.145   2.877  14.231  1.0266  0.2655  1.3312
  135CHL1   C1116210   0.056   2.838  14.146  0.3501  0.0059 -0.0052
  135CHL1  H11A16211   0.161   2.854  14.180  0.5021  0.3054 -0.5977
  135CHL1  H11B16212   0.030   2.730  14.136 -2.2360  0.3325  1.9165
  135CHL1    C916213   0.048   2.907  14.007 -0.1395 -0.5203 -0.4882
  135CHL1    H916214  -0.053   2.874  13.974  0.3835 -1.6445 -1.0305
  135CHL1   C1016215   0.150   2.856  13.905  0.0322 -0.2637 -0.3676
  135CHL1   C1916216   0.289   2.868  13.959 -0.1857 -0.2953 -0.3236
  135CHL1  H19A16217   0.290   2.789  14.037 -0.4693  0.4534  0.4475
  135CHL1  H19B16218   0.366   2.849  13.881 -0.9520  2.0077 -1.7409
  135CHL1  H19C16219   0.315   2.956  14.021 -0.3559  0.4224 -1.2526
  135CHL1    C116220   0.116   2.707  13.855  0.1214 -0.5023 -0.5630
  135CHL1   H1A16221   0.124   2.632  13.937  0.7911  1.4829  1.2797
  135CHL1   H1B16222   0.007   2.715  13.834 -0.1379 -0.3694  0.7602
  135CHL1    C216223   0.179   2.661  13.730 -0.3650 -0.2628 -0.6947
  135CHL1   H2A16224   0.128   2.568  13.698  1.0493  0.1089 -4.5324
  135CHL1   H2B16225   0.279   2.630  13.765 -0.7905  1.0068  1.8596
  135CHL1   C2016226  -0.100   3.122  14.508  0.1604 -0.3438  0.3603
  135CHL1   H2016227   0.003   3.155  14.534 -0.3102  1.9124 -0.4124
  135CHL1   C2116228  -0.128   2.983  14.570 -0.2648  0.3761  0.2250
  135CHL1  H21A16229  -0.030   2.936  14.595 -0.3145  0.2924  0.2600
  135CHL1  H21B16230  -0.195   2.921  14.507 -1.9731  0.4735  1.8852
  135CHL1  H21C16231  -0.188   2.992  14.663 -0.2794 -1.3731  0.4219
  135CHL1   C2216232  -0.200   3.220  14.579  0.1742 -0.4342 -0.3131
  135CHL1  H22A16233  -0.219   3.317  14.530 -0.4407  0.4472  1.5844
  135CHL1  H22B16234  -0.300   3.176  14.601 -1.0160  1.3206 -1.9428
  135CHL1   C2316235  -0.143   3.252  14.719  0.7291  0.1828  0.3392
  135CHL1  H23A16236  -0.122   3.159  14.776  0.4509  0.3050  0.6484
  135CHL1  H23B16237  -0.049   3.311  14.711 -0.0598  1.2901 -1.5317
  135CHL1   C2416238  -0.250   3.334  14.803  0.2550 -0.2884  0.5608
  135CHL1  H24A16239  -0.260   3.439  14.768  0.6543  0.7438  3.3249
  135CHL1  H24B16240  -0.342   3.272  14.797  0.2473 -0.1867 -0.7651
  135CHL1   C2516241  -0.199   3.354  14.950  0.4234 -0.8559 -0.1819
  135CHL1   H2516242  -0.173   3.249  14.977 -1.2287 -1.8889 -2.2669
  135CHL1   C2616243  -0.086   3.453  14.960  0.3649 -0.1630 -0.1478
  135CHL1  H26A16244  -0.117   3.554  14.928  1.0288 -0.1280 -0.7079
  135CHL1  H26B16245  -0.068   3.468  15.069 -0.5092 -0.0371 -0.0173
  135CHL1  H26C16246   0.010   3.410  14.924  0.2570  0.8417 -1.6954
  135CHL1   C2716247  -0.321   3.393  15.037  0.3297  0.1758 -0.0114
  135CHL1  H27A16248  -0.403   3.320  15.024  0.8017 -0.8610  2.2510
  135CHL1  H27B16249  -0.302   3.383  15.146  0.1760 -0.1392 -0.0123
  135CHL1  H27C16250  -0.354   3.495  15.009  0.4549  0.2057 -0.0523
  136CHL1    C316251   6.625   7.407  13.199 -0.1672  1.0839  0.5898
  136CHL1    H316252   6.707   7.345  13.241  0.1424  1.9129  1.2404
  136CHL1    O316253   6.581   7.345  13.078  0.0890 -0.2576  0.1999
  136CHL1   H3'16254   6.662   7.339  13.027  1.2689  2.3130  1.6006
  136CHL1    C416255   6.509   7.420  13.293 -0.0434  0.2000 -0.2718
  136CHL1   H4A16256   6.425   7.461  13.233 -0.4860 -2.2968 -1.4887
  136CHL1   H4B16257   6.474   7.317  13.315 -0.4155 -0.2292 -2.5526
  136CHL1    C516258   6.547   7.486  13.421  0.1421  0.5915 -0.0047
  136CHL1    C616259   6.542   7.421  13.537  0.2024  0.3130  0.7884
  136CHL1    H616260   6.514   7.315  13.541 -0.6026  0.5458  1.5587
  136CHL1    C716261   6.583   7.487  13.667  0.1427  1.3332 -0.3869
  136CHL1   H7A16262   6.516   7.449  13.747  2.0733  1.5658  1.4014
  136CHL1   H7B16263   6.688   7.465  13.695 -0.3995 -0.2691  0.5430
  136CHL1    C816264   6.581   7.638  13.661  0.4801  0.6748 -0.4112
  136CHL1    H816265   6.477   7.676  13.654  0.4229  0.4252 -0.9566
  136CHL1   C1416266   6.651   7.692  13.789  0.6654 -1.0790  0.0446
  136CHL1   H1416267   6.760   7.677  13.778  0.7441 -0.5393  0.0474
  136CHL1   C1516268   6.607   7.648  13.928 -0.3780 -0.5149 -0.1926
  136CHL1  H15A16269   6.497   7.643  13.938 -0.3707 -2.0901 -0.5975
  136CHL1  H15B16270   6.652   7.554  13.965  0.3266 -0.3598 -0.6277
  136CHL1   C1616271   6.659   7.764  14.018 -0.2094 -0.6076 -0.2884
  136CHL1  H16A16272   6.579   7.801  14.085 -0.9831 -2.1932 -0.2988
  136CHL1  H16B16273   6.739   7.743  14.092  0.5050  1.9316 -0.2477
  136CHL1   C1716274   6.719   7.877  13.931 -0.5369  0.1963  0.7590
  136CHL1   H1716275   6.827   7.855  13.917 -0.6550 -0.6132  1.1020
  136CHL1   C1316276   6.648   7.844  13.794 -0.7544 -0.6439 -0.2072
  136CHL1   C1816277   6.507   7.899  13.788 -0.4745  0.6778  0.4669
  136CHL1  H18A16278   6.449   7.881  13.695  0.5208 -0.0797 -0.0236
  136CHL1  H18B16279   6.445   7.846  13.864  0.0662 -1.9360 -0.8096
  136CHL1  H18C16280   6.511   8.009  13.800 -0.8002  0.8891 -1.1811
  136CHL1   C1216281   6.733   7.893  13.676 -0.0885  0.7047 -0.6907
  136CHL1  H12A16282   6.728   8.004  13.676 -1.0418  0.6718  0.1155
  136CHL1  H12B16283   6.839   7.860  13.686 -0.3114  0.1093 -0.1840
  136CHL1   C1116284   6.690   7.840  13.542  0.3674  0.6245  0.7011
  136CHL1  H11A16285   6.602   7.902  13.518 -0.1205  0.7461  2.6167
  136CHL1  H11B16286   6.770   7.872  13.472 -2.0239 -0.5690 -2.8462
  136CHL1    C916287   6.657   7.691  13.534 -0.3801 -0.2623  0.1822
  136CHL1    H916288   6.751   7.633  13.550 -0.9178 -0.9628  0.8706
  136CHL1   C1016289   6.608   7.627  13.404  0.1521  0.6632  0.3048
  136CHL1   C1916290   6.489   7.702  13.349 -0.3698  0.1047  0.3780
  136CHL1  H19A16291   6.456   7.679  13.246 -1.2808 -1.1481  0.9146
  136CHL1  H19B16292   6.400   7.682  13.413 -1.3117 -2.3899 -1.5513
  136CHL1  H19C16293   6.518   7.809  13.358  2.9819 -0.6742  0.0075
  136CHL1    C116294   6.726   7.616  13.303  0.9491  0.2061 -0.9940
  136CHL1   H1A16295   6.772   7.714  13.277  0.7066  0.6591  0.1921
  136CHL1   H1B16296   6.808   7.568  13.359 -0.7138 -1.3183  0.2474
  136CHL1    C216297   6.697   7.541  13.169 -0.2371 -0.0386 -0.0106
  136CHL1   H2A16298   6.794   7.527  13.116 -0.1636  1.5317 -0.3308
  136CHL1   H2B16299   6.620   7.594  13.109  0.1434 -0.0886 -0.5502
  136CHL1   C2016300   6.712   8.021  13.986  0.8560  0.8095 -0.2350
  136CHL1   H2016301   6.705   8.094  13.903  0.4266  2.9557  1.5942
  136CHL1   C2116302   6.839   8.044  14.066  0.0904  0.1153  0.5083
  136CHL1  H21A16303   6.925   8.062  13.998 -0.5541  0.6043 -0.2016
  136CHL1  H21B16304   6.863   7.959  14.134 -0.6307  0.4387  1.1855
  136CHL1  H21C16305   6.828   8.140  14.120 -2.4398  0.7433 -0.9783
  136CHL1   C2216306   6.586   8.049  14.073  0.5242 -0.1333  0.2484
  136CHL1  H22A16307   6.495   8.007  14.024  0.2119  1.3567 -0.5267
  136CHL1  H22B16308   6.600   8.005  14.173 -1.3142 -0.9576  0.1894
  136CHL1   C2316309   6.560   8.200  14.093  0.3752  0.5106 -0.8622
  136CHL1  H23A16310   6.466   8.200  14.151 -0.0942  0.9770 -1.6120
  136CHL1  H23B16311   6.644   8.238  14.154 -0.9625  1.4199  0.4748
  136CHL1   C2416312   6.533   8.265  13.964 -0.6553 -0.0470  0.0554
  136CHL1  H24A16313   6.628   8.279  13.907 -0.2882 -1.0530  0.3989
  136CHL1  H24B16314   6.455   8.203  13.915 -3.0190  3.0587 -0.4570
  136CHL1   C2516315   6.484   8.413  13.985  1.0311 -0.6121 -0.3982
  136CHL1   H2516316   6.420   8.414  14.076  1.1766  0.4038 -0.2993
  136CHL1   C2616317   6.603   8.503  14.016  0.0447  0.0288  0.5908
  136CHL1  H26A16318   6.571   8.607  14.039  0.0802  0.1799 -0.0207
  136CHL1  H26B16319   6.634   8.477  14.119 -1.3639  0.9513  1.2845
  136CHL1  H26C16320   6.687   8.494  13.945 -1.6555 -1.2295 -1.3732
  136CHL1   C2716321   6.410   8.458  13.862 -0.0829  0.4343  0.0551
  136CHL1  H27A16322   6.363   8.369  13.815 -1.2908 -0.0747  2.0777
  136CHL1  H27B16323   6.336   8.538  13.886  2.5566  3.4523 -1.1440
  136CHL1  H27C16324   6.479   8.489  13.780 -0.3499  0.8784 -0.0056
  137CHL1    C316325   1.669   0.593  13.718  0.1402  0.5760 -0.2928
  137CHL1    H316326   1.581   0.655  13.688 -0.5866 -0.1983  0.1898
  137CHL1    O316327   1.716   0.533  13.600  0.5507 -0.0958 -0.3179
  137CHL1   H3'16328   1.698   0.597  13.531  0.2712  0.1810  0.0175
  137CHL1    C416329   1.769   0.697  13.777  0.6296 -0.1377 -0.2962
  137CHL1   H4A16330   1.867   0.650  13.800  1.6098  1.8239 -0.2672
  137CHL1   H4B16331   1.785   0.777  13.702 -0.1966  0.0226 -0.3040
  137CHL1    C516332   1.724   0.753  13.912  0.2226  0.1659 -0.5719
  137CHL1    C616333   1.718   0.883  13.934 -0.3333 -0.9041  0.5261
  137CHL1    H616334   1.743   0.954  13.853  1.2357  0.1462  1.8585
  137CHL1    C716335   1.680   0.948  14.065 -0.7134 -0.7244 -0.4122
  137CHL1   H7A16336   1.754   1.027  14.090 -1.0444 -0.6748  0.4319
  137CHL1   H7B16337   1.582   0.998  14.053 -0.9360 -0.9781  0.2941
  137CHL1    C816338   1.676   0.844  14.178 -0.0891 -0.2687  0.4000
  137CHL1    H816339   1.780   0.816  14.204  0.8710  0.7232 -2.1385
  137CHL1   C1416340   1.608   0.897  14.305  0.5291 -0.1097  0.6235
  137CHL1   H1416341   1.500   0.900  14.279  0.9921  0.5091 -1.3538
  137CHL1   C1516342   1.647   1.036  14.357 -0.4762 -0.0228  0.3746
  137CHL1  H15A16343   1.757   1.054  14.357 -0.8019  2.6250  2.1589
  137CHL1  H15B16344   1.600   1.112  14.291  0.3598 -1.4574 -1.9973
  137CHL1   C1616345   1.598   1.035  14.504 -0.3418 -0.8134  1.0245
  137CHL1  H16A16346   1.687   1.074  14.557  0.8978 -1.3161 -0.6328
  137CHL1  H16B16347   1.528   1.118  14.528  0.3191  0.4005 -1.0029
  137CHL1   C1716348   1.554   0.891  14.538  0.5724  0.2646 -0.0352
  137CHL1   H1716349   1.443   0.891  14.530  0.5455  1.2667  0.1919
  137CHL1   C1316350   1.613   0.800  14.422 -0.0250  0.1030  0.0416
  137CHL1   C1816351   1.755   0.751  14.461 -0.2954 -0.3879  0.0028
  137CHL1  H18A16352   1.814   0.715  14.374  2.3185  1.4053  0.9145
  137CHL1  H18B16353   1.819   0.835  14.497 -0.7560 -0.6767  1.5380
  137CHL1  H18C16354   1.759   0.678  14.544 -0.5054 -1.6664 -1.0860
  137CHL1   C1216355   1.524   0.674  14.380 -0.4322 -0.6237  0.0666
  137CHL1  H12A16356   1.525   0.595  14.458  0.0395 -1.3471 -0.6511
  137CHL1  H12B16357   1.423   0.714  14.359 -0.2820  1.3989  2.7419
  137CHL1   C1116358   1.582   0.615  14.248  0.7368  0.4433  0.3343
  137CHL1  H11A16359   1.682   0.570  14.267  0.9725 -0.2187 -2.0615
  137CHL1  H11B16360   1.517   0.530  14.216  1.2585  0.2784 -0.3109
  137CHL1    C916361   1.603   0.717  14.132 -0.0677  0.8066  0.0421
  137CHL1    H916362   1.501   0.745  14.098 -0.3042 -1.0268 -0.8384
  137CHL1   C1016363   1.670   0.644  14.010 -0.1594 -0.0018  0.2699
  137CHL1   C1916364   1.796   0.568  14.063 -0.0038 -0.2578  0.8067
  137CHL1  H19A16365   1.852   0.627  14.139 -0.9803  0.3512  1.0695
  137CHL1  H19B16366   1.772   0.470  14.110 -0.3997 -0.3438  0.4268
  137CHL1  H19C16367   1.860   0.544  13.976  0.9453  0.4111  1.3052
  137CHL1    C116368   1.572   0.547  13.941  0.8437 -0.2979  0.1067
  137CHL1   H1A16369   1.546   0.465  14.012  1.3763  0.2177  0.9118
  137CHL1   H1B16370   1.477   0.604  13.931  0.6998  0.2382  3.4492
  137CHL1    C216371   1.619   0.489  13.815 -0.3466  0.4685 -0.4652
  137CHL1   H2A16372   1.532   0.428  13.782  0.4456 -0.4514 -0.9137
  137CHL1   H2B16373   1.703   0.422  13.846  1.1577  2.2121 -0.6101
  137CHL1   C2016374   1.583   0.850  14.689  0.2251 -0.3208 -0.3012
  137CHL1   H2016375   1.692   0.843  14.708  0.5611  1.0282 -1.5285
  137CHL1   C2116376   1.523   0.718  14.726 -0.0197  0.6097  0.1059
  137CHL1  H21A16377   1.459   0.718  14.816  0.8086 -0.2812  0.7144
  137CHL1  H21B16378   1.607   0.646  14.734 -0.3277  0.2494  0.1310
  137CHL1  H21C16379   1.462   0.677  14.642 -0.1138 -2.0176  1.3575
  137CHL1   C2216380   1.519   0.957  14.786  0.1170  0.1717  0.1683
  137CHL1  H22A16381   1.539   0.921  14.890  2.1366 -0.1993 -0.2983
  137CHL1  H22B16382   1.585   1.047  14.787  0.4067 -0.0234 -0.9095
  137CHL1   C2316383   1.372   1.002  14.764 -1.2280  0.2220 -0.0642
  137CHL1  H23A16384   1.356   1.044  14.662  0.5957 -0.1261 -0.5228
  137CHL1  H23B16385   1.299   0.919  14.780  0.7204 -1.1581  2.4895
  137CHL1   C2416386   1.330   1.100  14.874 -0.2601  0.1783 -0.1987
  137CHL1  H24A16387   1.290   1.044  14.961  0.8301  0.1077  0.2794
  137CHL1  H24B16388   1.422   1.157  14.897 -0.9147  0.4384  1.9061
  137CHL1   C2516389   1.225   1.202  14.823  0.0736 -0.5805 -0.2987
  137CHL1   H2516390   1.271   1.246  14.732 -1.0058 -0.2816 -0.7219
  137CHL1   C2616391   1.086   1.139  14.786 -0.6078 -1.0098  0.3905
  137CHL1  H26A16392   1.026   1.215  14.730  0.7852  1.3250  1.9282
  137CHL1  H26B16393   1.097   1.048  14.723 -0.4088 -0.2049 -0.7913
  137CHL1  H26C16394   1.029   1.106  14.875 -1.6991 -1.7345 -0.5449
  137CHL1   C2716395   1.195   1.308  14.931 -0.6178 -0.2026  0.6195
  137CHL1  H27A16396   1.119   1.375  14.885  0.8688  2.7078  2.0992
  137CHL1  H27B16397   1.151   1.263  15.023 -2.7575 -1.9101 -1.1253
  137CHL1  H27C16398   1.286   1.370  14.945  0.1676 -1.2716  0.3370
  138CHL1    C316399   7.184   7.382  13.417  1.1465 -0.6513  0.2786
  138CHL1    H316400   7.189   7.493  13.410 -0.8996 -0.4618  1.1892
  138CHL1    O316401   7.198   7.325  13.288 -0.2339  1.0608 -0.5001
  138CHL1   H3'16402   7.138   7.380  13.238 -1.2544  1.2943  0.9223
  138CHL1    C416403   7.287   7.321  13.513  0.3000  0.2442 -0.3840
  138CHL1   H4A16404   7.264   7.212  13.511 -1.4088  0.5769 -0.1962
  138CHL1   H4B16405   7.389   7.343  13.475  0.1309 -0.2151 -1.1192
  138CHL1    C516406   7.266   7.365  13.654 -0.3101 -0.4964  0.1844
  138CHL1    C616407   7.365   7.423  13.726 -1.1914  0.2403 -0.2068
  138CHL1    H616408   7.464   7.443  13.681  0.0720 -1.3886  1.7029
  138CHL1    C716409   7.360   7.466  13.870 -0.0138  0.4182  0.0835
  138CHL1   H7A16410   7.457   7.443  13.919  0.1856 -0.0076 -0.4925
  138CHL1   H7B16411   7.368   7.577  13.870  3.0011  0.3232 -1.3959
  138CHL1    C816412   7.226   7.420  13.942  0.1059  0.2933 -0.5807
  138CHL1    H816413   7.241   7.313  13.967 -1.4008  0.4399  1.2042
  138CHL1   C1416414   7.206   7.507  14.067  0.3087  0.2937  0.4439
  138CHL1   H1416415   7.193   7.610  14.029  1.4114  0.1179 -0.4693
  138CHL1   C1516416   7.321   7.518  14.177 -0.2856 -0.3404  0.2560
  138CHL1  H15A16417   7.374   7.420  14.181  1.4817  0.5777  0.9492
  138CHL1  H15B16418   7.379   7.603  14.136 -3.1324  1.9999  0.7548
  138CHL1   C1616419   7.248   7.548  14.306  0.6495 -0.2035 -0.3425
  138CHL1  H16A16420   7.265   7.468  14.382 -0.6467  0.7415  1.0028
  138CHL1  H16B16421   7.284   7.638  14.360  4.2856 -0.6735 -1.7311
  138CHL1   C1716422   7.095   7.559  14.266 -0.6760 -0.2942  0.9960
  138CHL1   H1716423   7.085   7.666  14.238 -0.7870 -0.6566 -0.3974
  138CHL1   C1316424   7.078   7.464  14.138  0.9323 -0.5101  0.1379
  138CHL1   C1816425   7.080   7.314  14.184  0.4229  0.2985  0.1135
  138CHL1  H18A16426   6.976   7.284  14.209  0.2807  0.4451 -0.3044
  138CHL1  H18B16427   7.097   7.244  14.099 -2.0735  1.1029 -1.1472
  138CHL1  H18C16428   7.153   7.287  14.264 -1.3361  0.8010  1.9704
  138CHL1   C1216429   6.963   7.495  14.042 -0.2278 -0.1230 -0.0224
  138CHL1  H12A16430   6.868   7.466  14.092  0.2134  1.2643  1.7037
  138CHL1  H12B16431   6.965   7.604  14.023  0.6854  0.0106  0.8025
  138CHL1   C1116432   6.971   7.420  13.909 -0.0315  0.0452  0.5088
  138CHL1  H11A16433   6.940   7.316  13.932 -3.1787  1.2208  2.0999
  138CHL1  H11B16434   6.903   7.461  13.832  0.6968 -0.2462 -0.3107
  138CHL1    C916435   7.110   7.434  13.842  0.1280 -0.0233 -0.2813
  138CHL1    H916436   7.120   7.542  13.816  1.8904  0.2066  1.0920
  138CHL1   C1016437   7.126   7.348  13.711  0.1775  0.8326  0.0298
  138CHL1   C1916438   7.113   7.200  13.753  0.5148 -0.2655  0.1688
  138CHL1  H19A16439   7.194   7.158  13.816  1.2667  0.2690 -0.4188
  138CHL1  H19B16440   7.016   7.177  13.802  1.2946 -4.8852  0.0023
  138CHL1  H19C16441   7.117   7.136  13.662 -0.3679 -1.5970  1.0445
  138CHL1    C116442   7.019   7.395  13.604  0.3589 -0.0288 -0.4976
  138CHL1   H1A16443   6.920   7.360  13.640 -0.0334  2.5783  1.2585
  138CHL1   H1B16444   7.016   7.506  13.606 -0.1206 -0.0387  1.7326
  138CHL1    C216445   7.040   7.348  13.458 -0.3019  0.1774 -0.7608
  138CHL1   H2A16446   6.964   7.400  13.397 -1.0143 -0.5579 -0.5179
  138CHL1   H2B16447   7.026   7.238  13.465  3.0510 -0.3323 -0.1264
  138CHL1   C2016448   7.005   7.537  14.388 -0.1913 -0.9678 -0.6143
  138CHL1   H2016449   6.998   7.430  14.416 -1.6340 -0.2063  2.2941
  138CHL1   C2116450   6.867   7.593  14.341  0.3502 -0.0330  0.6030
  138CHL1  H21A16451   6.826   7.528  14.261  0.7764 -0.3795  0.6650
  138CHL1  H21B16452   6.888   7.693  14.297  1.2363  1.3414  3.7988
  138CHL1  H21C16453   6.786   7.590  14.418 -0.1869  2.5789  0.2415
  138CHL1   C2216454   7.047   7.615  14.519 -0.2429  0.6440  0.2866
  138CHL1  H22A16455   6.985   7.573  14.600 -4.0817  1.6232 -1.9099
  138CHL1  H22B16456   7.155   7.598  14.542 -0.4311  0.9479  1.4806
  138CHL1   C2316457   7.031   7.772  14.529 -0.3531  0.2871  0.2100
  138CHL1  H23A16458   7.109   7.814  14.463  1.5198 -0.4358  1.8661
  138CHL1  H23B16459   6.925   7.791  14.500 -0.4117 -1.6327 -1.0589
  138CHL1   C2416460   7.051   7.834  14.669 -0.0091  0.6523 -0.1253
  138CHL1  H24A16461   7.063   7.942  14.647  2.3559  0.4209 -0.1822
  138CHL1  H24B16462   6.964   7.813  14.735 -1.7220  2.8730 -1.5458
  138CHL1   C2516463   7.186   7.793  14.741 -0.6874  0.1890 -1.1658
  138CHL1   H2516464   7.169   7.684  14.746 -0.7591  0.2327 -0.2594
  138CHL1   C2616465   7.318   7.821  14.662  0.4085  0.6171  0.4697
  138CHL1  H26A16466   7.329   7.932  14.657  0.3392  0.6723  1.3685
  138CHL1  H26B16467   7.404   7.766  14.705 -0.6656  1.1025  3.4351
  138CHL1  H26C16468   7.308   7.778  14.560 -1.2028  0.3646  0.7113
  138CHL1   C2716469   7.190   7.859  14.879 -0.1705  0.2778  0.0671
  138CHL1  H27A16470   7.092   7.852  14.930 -0.2586  0.0624 -0.1340
  138CHL1  H27B16471   7.274   7.819  14.940 -0.9128 -3.4165 -1.0821
  138CHL1  H27C16472   7.225   7.964  14.877  2.1896 -0.4473 -1.5604
  139CHL1    C316473   1.620   6.970  13.426 -0.2382 -0.2518 -0.6489
  139CHL1    H316474   1.698   7.015  13.361  0.7137 -0.8071  0.0761
  139CHL1    O316475   1.496   6.997  13.360  0.0345 -0.0527  0.0590
  139CHL1   H3'16476   1.438   6.936  13.405 -1.9190  0.7615 -1.1867
  139CHL1    C416477   1.666   6.824  13.439  0.2666 -0.2294 -0.4531
  139CHL1   H4A16478   1.580   6.766  13.479  0.2635  0.5036  0.6556
  139CHL1   H4B16479   1.681   6.792  13.334  0.6807  0.8240 -0.7200
  139CHL1    C516480   1.785   6.806  13.525  0.0439  0.7613 -0.3797
  139CHL1    C616481   1.886   6.733  13.486 -0.6845 -0.1163 -0.1531
  139CHL1    H616482   1.886   6.682  13.389 -0.7795  1.7362 -1.1559
  139CHL1    C716483   2.013   6.703  13.569  0.5822 -0.3854  0.2859
  139CHL1   H7A16484   2.045   6.598  13.554  2.1407  0.2617 -1.1914
  139CHL1   H7B16485   2.100   6.759  13.530  0.8289  0.4380  1.9029
  139CHL1    C816486   1.985   6.728  13.718  0.7156 -0.0295 -0.1502
  139CHL1    H816487   1.912   6.650  13.749  0.9883 -0.6838 -1.1183
  139CHL1   C1416488   2.114   6.726  13.797  0.0299  0.1429 -0.0324
  139CHL1   H1416489   2.169   6.812  13.751  1.1147 -1.5103 -1.9709
  139CHL1   C1516490   2.213   6.618  13.778 -0.2681  0.2066 -0.5657
  139CHL1  H15A16491   2.164   6.521  13.800 -0.0788  0.1788 -0.2525
  139CHL1  H15B16492   2.260   6.612  13.677  1.7650  3.5222  0.0225
  139CHL1   C1616493   2.307   6.640  13.897 -0.6063 -0.3252  0.1522
  139CHL1  H16A16494   2.318   6.544  13.952 -0.0738  0.0023  0.6276
  139CHL1  H16B16495   2.412   6.666  13.870  0.1609 -1.2591  2.0653
  139CHL1   C1716496   2.244   6.748  13.996 -0.5664  0.4103  0.5667
  139CHL1   H1716497   2.295   6.844  13.977 -0.1679  0.3032  1.0648
  139CHL1   C1316498   2.103   6.755  13.951  0.1080 -0.2902 -0.1228
  139CHL1   C1816499   2.019   6.641  14.014 -0.6764  0.6704  0.0640
  139CHL1  H18A16500   2.060   6.544  13.980 -0.6774  0.1497  1.5229
  139CHL1  H18B16501   2.013   6.626  14.123  0.3798 -0.5081 -0.0294
  139CHL1  H18C16502   1.920   6.644  13.963  0.2639 -1.7720 -2.1040
  139CHL1   C1216503   2.040   6.897  13.961  0.0179 -0.3545  0.1958
  139CHL1  H12A16504   2.024   6.931  14.065  1.4507 -1.1377  0.7082
  139CHL1  H12B16505   2.116   6.967  13.921  0.9988 -0.8568  1.1255
  139CHL1   C1116506   1.904   6.903  13.889 -0.2575 -0.0736 -0.1681
  139CHL1  H11A16507   1.829   6.849  13.951 -0.5779 -0.3846 -0.8089
  139CHL1  H11B16508   1.872   7.009  13.898 -2.3896 -0.7059  0.2343
  139CHL1    C916509   1.912   6.866  13.739  0.3250 -0.3269  0.5205
  139CHL1    H916510   1.973   6.941  13.685  0.4811 -0.0656  1.0521
  139CHL1   C1016511   1.777   6.874  13.666  0.5407  0.4623  0.8682
  139CHL1   C1916512   1.678   6.788  13.744 -0.1031  0.1702 -0.1875
  139CHL1  H19A16513   1.713   6.686  13.769  1.4286  1.1351  1.9027
  139CHL1  H19B16514   1.641   6.834  13.838 -2.7502 -1.5004 -0.3166
  139CHL1  H19C16515   1.585   6.771  13.685  0.2727  0.9543 -1.0402
  139CHL1    C116516   1.733   7.022  13.648  0.3370 -0.3896 -0.4924
  139CHL1   H1A16517   1.696   7.049  13.750  0.8619 -1.6988  0.0617
  139CHL1   H1B16518   1.804   7.099  13.613 -3.1179  2.5724 -1.6389
  139CHL1    C216519   1.604   7.041  13.564 -0.6572  0.4030 -0.1203
  139CHL1   H2A16520   1.608   7.148  13.535  1.8792  0.9382  1.8420
  139CHL1   H2B16521   1.508   7.023  13.618 -1.3969  2.0504 -0.8147
  139CHL1   C2016522   2.264   6.706  14.144 -0.6938  0.1815 -0.0985
  139CHL1   H2016523   2.231   6.600  14.145  0.1545 -0.1535 -2.3223
  139CHL1   C2116524   2.205   6.810  14.239 -0.7011  0.6360 -0.8114
  139CHL1  H21A16525   2.248   6.910  14.218  1.2213  0.1701  0.6642
  139CHL1  H21B16526   2.236   6.782  14.342 -0.4707  0.3597 -0.9551
  139CHL1  H21C16527   2.095   6.811  14.221 -1.1230 -1.8533  1.1211
  139CHL1   C2216528   2.417   6.708  14.170 -0.1028  0.0869  0.5695
  139CHL1  H22A16529   2.474   6.655  14.091  0.1156 -0.3508  1.0162
  139CHL1  H22B16530   2.456   6.812  14.169  0.2303  0.0172  2.4801
  139CHL1   C2316531   2.464   6.659  14.308  0.0104 -0.0729  0.0612
  139CHL1  H23A16532   2.432   6.733  14.384  0.6259  0.4974 -0.2237
  139CHL1  H23B16533   2.427   6.561  14.343 -0.1463 -0.8189 -2.0378
  139CHL1   C2416534   2.616   6.660  14.322 -0.2496  0.3215 -0.5843
  139CHL1  H24A16535   2.664   6.604  14.239  0.2887 -1.3668  0.8027
  139CHL1  H24B16536   2.646   6.767  14.323 -2.9353  1.1471 -1.5919
  139CHL1   C2516537   2.679   6.601  14.454 -0.7634  0.0748  0.4586
  139CHL1   H2516538   2.643   6.496  14.455 -2.3715  0.5875  1.4854
  139CHL1   C2616539   2.827   6.608  14.448  0.2050  0.2187  0.5580
  139CHL1  H26A16540   2.876   6.551  14.530  2.9896  0.8336 -0.5689
  139CHL1  H26B16541   2.860   6.558  14.355 -0.2492  1.2716 -0.1837
  139CHL1  H26C16542   2.863   6.712  14.440 -2.0814  1.0981  1.0773
  139CHL1   C2716543   2.623   6.667  14.580  0.9364 -0.4896  0.2854
  139CHL1  H27A16544   2.513   6.657  14.579  0.9876 -1.3965 -2.1181
  139CHL1  H27B16545   2.665   6.636  14.678 -1.3220  0.5970  1.6774
  139CHL1  H27C16546   2.640   6.777  14.580 -1.3417 -0.0709 -1.0020
  140CHL1    C316547   0.402   7.344  13.732  0.3425  0.3669  0.0885
  140CHL1    H316548   0.394   7.236  13.756  1.8666  0.7259  2.5265
  140CHL1    O316549   0.441   7.359  13.594  0.5469 -0.7580 -0.3214
  140CHL1   H3'16550   0.447   7.454  13.581 -0.1765 -0.8254 -1.2057
  140CHL1    C416551   0.274   7.418  13.750  0.2191 -0.5928  0.5760
  140CHL1   H4A16552   0.297   7.526  13.744  2.2935 -0.8475  2.7147
  140CHL1   H4B16553   0.207   7.392  13.665 -0.5216  0.3809  0.8340
  140CHL1    C516554   0.220   7.405  13.894  1.5270 -0.2666  0.3027
  140CHL1    C616555   0.093   7.361  13.926  0.5746 -0.6826 -0.4087
  140CHL1    H616556   0.029   7.338  13.839 -0.9456  0.1530  0.4552
  140CHL1    C716557   0.038   7.351  14.070  0.1403  0.5606 -0.6347
  140CHL1   H7A16558  -0.069   7.378  14.068  0.3004  1.1868 -0.8646
  140CHL1   H7B16559   0.043   7.242  14.092  0.0011  0.2604 -1.9890
  140CHL1    C816560   0.122   7.416  14.170  0.3989  0.9856  0.6294
  140CHL1    H816561   0.101   7.525  14.168  0.0498  0.9317 -1.1655
  140CHL1   C1416562   0.081   7.363  14.311 -0.5999 -0.2577  0.4859
  140CHL1   H1416563   0.112   7.257  14.304  1.0247  0.2405 -0.5419
  140CHL1   C1516564  -0.067   7.364  14.354  0.2165 -0.3420  1.0224
  140CHL1  H15A16565  -0.109   7.464  14.330 -0.7677 -1.4781 -2.6075
  140CHL1  H15B16566  -0.124   7.290  14.295  0.1646  0.1751  0.4190
  140CHL1   C1616567  -0.067   7.347  14.502  0.5481 -1.1743 -0.0223
  140CHL1  H16A16568  -0.130   7.426  14.549  0.9608  0.6473 -2.3469
  140CHL1  H16B16569  -0.112   7.250  14.531 -0.6080 -0.5900  0.1896
  140CHL1   C1716570   0.090   7.346  14.545 -0.2020  0.5560  0.0495
  140CHL1   H1716571   0.128   7.244  14.526  0.0213  0.7128 -0.3581
  140CHL1   C1316572   0.159   7.422  14.425  0.4194 -0.7248  0.6173
  140CHL1   C1816573   0.143   7.576  14.460  0.4295  0.2268  0.5420
  140CHL1  H18A16574   0.195   7.640  14.386  1.3822 -0.9199  0.1846
  140CHL1  H18B16575   0.036   7.603  14.464  0.9652  2.4725  0.6830
  140CHL1  H18C16576   0.198   7.603  14.553 -0.7172 -1.0601  1.6394
  140CHL1   C1216577   0.308   7.386  14.399  0.1356  0.2500 -1.0538
  140CHL1  H12A16578   0.382   7.417  14.475  0.8390 -0.7335 -1.3268
  140CHL1  H12B16579   0.325   7.277  14.385  1.0249  0.4797 -1.8377
  140CHL1   C1116580   0.357   7.437  14.270  0.5863 -0.8093 -0.3974
  140CHL1  H11A16581   0.354   7.548  14.272 -0.2068 -0.8264  1.5018
  140CHL1  H11B16582   0.463   7.409  14.254  1.4293  1.2915  1.0389
  140CHL1    C916583   0.272   7.387  14.148 -0.3629 -0.6821 -0.7948
  140CHL1    H916584   0.294   7.278  14.142 -0.1521 -0.5756 -2.5054
  140CHL1   C1016585   0.324   7.441  14.006  0.3504  0.3727 -0.0438
  140CHL1   C1916586   0.327   7.592  14.014  0.2172 -0.4223  0.5607
  140CHL1  H19A16587   0.347   7.639  13.915 -0.8839  0.4944  0.7432
  140CHL1  H19B16588   0.228   7.634  14.042  1.1609 -0.2179  4.0178
  140CHL1  H19C16589   0.396   7.622  14.096  2.3956 -0.9900 -0.9789
  140CHL1    C116590   0.467   7.382  13.970 -0.4848 -0.2394 -0.2980
  140CHL1   H1A16591   0.548   7.417  14.037 -1.1015  1.4307 -0.3893
  140CHL1   H1B16592   0.470   7.276  14.003 -0.9144 -0.2285 -0.2198
  140CHL1    C216593   0.512   7.404  13.827 -0.5311 -0.3710 -0.0109
  140CHL1   H2A16594   0.612   7.366  13.794 -0.5731  0.4503 -1.1560
  140CHL1   H2B16595   0.501   7.507  13.787 -2.7775 -0.5253  0.1117
  140CHL1   C2016596   0.122   7.367  14.697  0.5367  0.3756 -0.0179
  140CHL1   H2016597   0.075   7.461  14.733  0.1614  0.4349 -0.6444
  140CHL1   C2116598   0.274   7.386  14.722 -0.5780 -0.3027  0.2818
  140CHL1  H21A16599   0.303   7.476  14.663 -0.8493 -0.5188 -0.1814
  140CHL1  H21B16600   0.330   7.298  14.684  2.4065  1.1329  1.0547
  140CHL1  H21C16601   0.303   7.402  14.828  0.9774  0.2847 -0.1970
  140CHL1   C2216602   0.074   7.246  14.792 -0.4085 -0.3621  1.1938
  140CHL1  H22A16603   0.096   7.153  14.734 -0.3001  1.5920 -2.1658
  140CHL1  H22B16604   0.147   7.259  14.875  1.2124 -1.5815  0.0251
  140CHL1   C2316605  -0.068   7.254  14.843  0.0894 -0.4514 -0.2715
  140CHL1  H23A16606  -0.083   7.355  14.887  0.3662 -0.1680 -0.8189
  140CHL1  H23B16607  -0.138   7.249  14.756  1.5326 -0.2581 -1.4761
  140CHL1   C2416608  -0.107   7.130  14.928 -0.0551 -0.6319  0.0208
  140CHL1  H24A16609  -0.099   7.041  14.863  1.6365 -1.1731  0.8990
  140CHL1  H24B16610  -0.025   7.124  15.003 -0.3730  0.2856  0.4624
  140CHL1   C2516611  -0.241   7.140  15.006 -0.0814  0.0372  0.2030
  140CHL1   H2516612  -0.304   7.169  14.919  2.2078  1.4055 -1.0702
  140CHL1   C2616613  -0.240   7.244  15.123 -0.4140  0.0009  1.2512
  140CHL1  H26A16614  -0.160   7.218  15.195  0.9519 -1.1916 -0.6349
  140CHL1  H26B16615  -0.225   7.342  15.072  0.2039 -1.1289 -0.8062
  140CHL1  H26C16616  -0.339   7.260  15.172 -0.2962  0.5290  1.3318
  140CHL1   C2716617  -0.280   6.995  15.050  0.3231  0.1793 -0.0612
  140CHL1  H27A16618  -0.277   6.921  14.967  1.0162 -3.1273  2.6897
  140CHL1  H27B16619  -0.228   6.952  15.138 -0.2998  0.0686  0.2632
  140CHL1  H27C16620  -0.385   7.001  15.085  0.4688 -0.2256  0.4438
  141DOPC     N16621   4.650   2.235  17.155 -0.4677 -0.2776 -0.3545
  141DOPC   C1216622   4.666   2.320  17.037 -0.4552  0.5008  0.3390
  141DOPC  H12A16623   4.679   2.264  16.946  1.1760 -2.0334  2.0163
  141DOPC  H12B16624   4.761   2.369  17.045  1.2305 -2.2486 -1.2402
  141DOPC   C1316625   4.765   2.130  17.156 -0.2057  0.3728  0.0840
  141DOPC  H13A16626   4.762   2.066  17.069 -0.1884 -1.2052  1.2006
  141DOPC  H13B16627   4.859   2.183  17.151  0.8536 -1.3386  0.6955
  141DOPC  H13C16628   4.765   2.064  17.241 -0.5012  0.5033  0.1872
  141DOPC   C1416629   4.518   2.158  17.171  0.0274 -0.2764 -0.1210
  141DOPC  H14A16630   4.491   2.099  17.085 -0.0883  1.6142 -1.4391
  141DOPC  H14B16631   4.522   2.098  17.261 -1.3463 -0.9733 -0.4977
  141DOPC  H14C16632   4.430   2.217  17.191 -0.2410 -0.9232  0.6624
  141DOPC   C1516633   4.662   2.328  17.274 -0.0694  0.0375 -0.0142
  141DOPC  H15A16634   4.622   2.287  17.365  3.3647 -1.1578  1.1144
  141DOPC  H15B16635   4.613   2.423  17.256 -2.5121 -1.2627 -0.6071
  141DOPC  H15C16636   4.763   2.354  17.302 -1.0904  2.7617  1.5712
  141DOPC   C1116637   4.556   2.430  17.015 -0.3114  0.1490  0.6257
  141DOPC  H11A16638   4.571   2.461  16.909 -0.7192 -1.9141 -0.0678
  141DOPC  H11B16639   4.455   2.385  17.016 -0.2633  0.0125 -0.3030
  141DOPC     P16640   4.600   2.683  17.073 -0.0293  0.1864  0.3615
  141DOPC   O1316641   4.680   2.727  17.188 -0.4407 -0.5686 -0.4988
  141DOPC   O1416642   4.476   2.756  17.037 -0.1299 -0.3731 -0.0567
  141DOPC   O1216643   4.570   2.534  17.112  0.4785 -0.5991 -0.1842
  141DOPC   O1116644   4.689   2.668  16.942 -0.4151 -0.3286  0.0177
  141DOPC    C116645   4.764   2.783  16.886 -0.0823  1.2757  0.1047
  141DOPC    HA16646   4.841   2.735  16.821 -1.3270 -0.1673 -0.3518
  141DOPC    HB16647   4.803   2.856  16.960 -1.6727  2.0743  0.1988
  141DOPC    C216648   4.671   2.870  16.797 -0.1941  0.1324 -0.3486
  141DOPC    HS16649   4.589   2.920  16.852  0.8344  0.9395  0.5132
  141DOPC   O2116650   4.635   2.791  16.677 -0.4900 -0.0782 -0.4353
  141DOPC   C2116651   4.504   2.778  16.648 -0.9982  0.3147  0.1047
  141DOPC   O2216652   4.415   2.834  16.707 -0.2316 -0.3819  0.1369
  141DOPC   C2216653   4.490   2.684  16.535  0.0838  0.2439 -0.1268
  141DOPC   H2R16654   4.408   2.614  16.563 -1.1810  1.0531 -1.6170
  141DOPC   H2S16655   4.585   2.628  16.525  0.6528  1.3716 -1.2991
  141DOPC    C316656   4.752   3.001  16.755 -0.1677  0.1906 -0.5255
  141DOPC    HX16657   4.854   2.981  16.714  1.1059  0.5188  2.1906
  141DOPC    HY16658   4.762   3.053  16.853 -2.7491  1.0693 -0.6608
  141DOPC   O3116659   4.677   3.080  16.666  0.1690 -0.0032  0.4793
  141DOPC   C3116660   4.572   3.146  16.712 -0.3089  0.0476 -0.4624
  141DOPC   O3216661   4.531   3.143  16.825 -0.0396  0.2054  0.5738
  141DOPC   C3216662   4.512   3.228  16.596 -0.3822 -0.3057  0.2046
  141DOPC   H2X16663   4.515   3.335  16.626 -0.4800 -0.0779 -0.5866
  141DOPC   H2Y16664   4.585   3.212  16.514  2.0273  2.8519  1.5254
  141DOPC   C2316665   4.447   2.744  16.394 -0.0498 -0.3295 -0.1987
  141DOPC   H3R16666   4.355   2.803  16.409  0.7508  0.6317  1.1682
  141DOPC   H3S16667   4.422   2.649  16.342 -0.5266 -0.9142  1.0464
  141DOPC   C2416668   4.561   2.823  16.323  0.3395  0.5812 -0.0329
  141DOPC   H4R16669   4.646   2.752  16.316 -0.7806 -0.9382  1.1835
  141DOPC   H4S16670   4.595   2.901  16.395 -2.2890  0.7045  1.2099
  141DOPC   C2516671   4.517   2.879  16.192  0.6263  0.2608 -0.4163
  141DOPC   H5R16672   4.430   2.948  16.206  0.6729  0.1580  0.4055
  141DOPC   H5S16673   4.477   2.799  16.127 -2.3273 -0.0040  1.5182
  141DOPC   C2616674   4.623   2.948  16.103 -0.5544  0.3394  0.2161
  141DOPC   H6R16675   4.598   2.914  16.000  0.4220  0.2131  0.0092
  141DOPC   H6S16676   4.721   2.910  16.141 -0.2299 -1.5560 -2.2292
  141DOPC   C2716677   4.618   3.097  16.120  0.1742 -0.2987  0.2326
  141DOPC   H7R16678   4.628   3.120  16.228  0.7437  1.0828 -0.0859
  141DOPC   H7S16679   4.529   3.147  16.076  0.7262  0.1244 -0.4398
  141DOPC   C2816680   4.740   3.179  16.073  0.3966  0.8196 -0.5751
  141DOPC   H8R16681   4.820   3.138  16.138 -3.1010  0.2953  3.8877
  141DOPC   H8S16682   4.716   3.284  16.100  1.2642  0.9899 -0.4280
  141DOPC   C2916683   4.771   3.161  15.926 -0.1608 -0.4009  0.0288
  141DOPC   H9R16684   4.840   3.078  15.902  0.5662  0.9137 -2.9364
  141DOPC  C21016685   4.725   3.230  15.822 -0.8657 -0.0161  0.6587
  141DOPC  H10R16686   4.761   3.211  15.720  0.5533  0.0714  1.1091
  141DOPC  C21116687   4.638   3.345  15.823 -0.3231 -0.6896  0.0590
  141DOPC  H11R16688   4.682   3.424  15.759 -1.5877 -0.1660 -0.1972
  141DOPC  H11S16689   4.627   3.387  15.925  0.0397 -0.2771 -0.0676
  141DOPC  C21216690   4.501   3.310  15.761 -0.5910 -0.3337  0.6263
  141DOPC  H12R16691   4.453   3.218  15.801  0.4277 -0.7688  0.8746
  141DOPC  H12S16692   4.511   3.283  15.653  0.4914 -0.2672  0.7034
  141DOPC  C21316693   4.416   3.437  15.756  0.3136 -0.3178 -0.4854
  141DOPC  H13R16694   4.476   3.525  15.725  0.5149 -0.0772  0.5547
  141DOPC  H13S16695   4.366   3.466  15.851 -0.1666  0.2835 -0.9210
  141DOPC  C21416696   4.284   3.419  15.674 -0.0803  0.3514  0.0211
  141DOPC  H14R16697   4.316   3.384  15.573 -0.5417  0.8418 -0.3020
  141DOPC  H14S16698   4.228   3.515  15.664 -0.0869  0.1261 -4.0471
  141DOPC  C21516699   4.195   3.314  15.738 -0.1980 -0.2800  0.5659
  141DOPC  H15R16700   4.166   3.338  15.842 -0.3106 -0.4797  0.5818
  141DOPC  H15S16701   4.257   3.222  15.751 -0.4922 -0.5069  0.3922
  141DOPC  C21616702   4.071   3.262  15.668 -0.3640 -0.7779  0.5850
  141DOPC  H16R16703   4.078   3.153  15.687  3.7913 -1.5545 -3.6690
  141DOPC  H16S16704   4.090   3.255  15.559  1.3299 -1.2831  0.8857
  141DOPC  C21716705   3.935   3.326  15.708 -0.4759 -0.1928 -0.4255
  141DOPC  H17R16706   3.969   3.432  15.701  1.7742 -0.7528  0.9742
  141DOPC  H17S16707   3.895   3.298  15.807  0.4335 -1.1811 -0.3216
  141DOPC  C21816708   3.839   3.284  15.595 -0.2054 -0.1954 -0.2140
  141DOPC  H18R16709   3.881   3.317  15.498  2.2415 -0.6111  0.6247
  141DOPC  H18S16710   3.738   3.323  15.616  0.1874  2.0239 -2.1030
  141DOPC  H18T16711   3.842   3.173  15.589  1.1574 -0.1131 -1.7267
  141DOPC   C3316712   4.377   3.180  16.531  0.4207  0.0913 -0.6692
  141DOPC   H3X16713   4.378   3.073  16.501 -1.0820 -0.1256 -0.0476
  141DOPC   H3Y16714   4.356   3.241  16.441 -1.7165  1.2920  0.5707
  141DOPC   C3416715   4.266   3.210  16.628 -0.0317 -0.1712  0.2684
  141DOPC   H4X16716   4.253   3.320  16.644 -0.1619 -0.3512  1.5484
  141DOPC   H4Y16717   4.293   3.162  16.725  2.3312  1.3720  0.4590
  141DOPC   C3516718   4.131   3.165  16.582 -0.0784  0.6780  0.1400
  141DOPC   H5X16719   4.120   3.187  16.474  1.9422 -0.0219 -0.2551
  141DOPC   H5Y16720   4.060   3.206  16.657  0.4535 -2.1369  2.3626
  141DOPC   C3616721   4.117   3.011  16.605  0.3479 -0.4779  0.4349
  141DOPC   H6X16722   4.217   2.969  16.580  0.0280 -1.1429  0.2575
  141DOPC   H6Y16723   4.096   2.981  16.710  2.6532 -1.2558  0.7448
  141DOPC   C3716724   3.999   2.960  16.520  0.1299  1.3967 -0.6877
  141DOPC   H7X16725   3.910   3.022  16.543  0.5562  1.5163  0.7060
  141DOPC   H7Y16726   4.025   2.965  16.412 -1.1494 -2.4970 -1.3435
  141DOPC   C3816727   3.970   2.811  16.542  0.3464  0.2260  0.2000
  141DOPC   H8X16728   3.870   2.790  16.497  0.9103  0.7286 -1.3393
  141DOPC   H8Y16729   3.960   2.805  16.652 -2.3738 -0.4124 -0.0086
  141DOPC   C3916730   4.076   2.716  16.493 -0.3453  0.7880  0.2823
  141DOPC   H9X16731   4.177   2.747  16.523  0.9082 -2.0429 -0.6607
  141DOPC  C31016732   4.062   2.617  16.408  0.7048 -0.1977  0.3282
  141DOPC  H10X16733   4.147   2.550  16.389  1.0015 -0.4438  2.3440
  141DOPC  C31116734   3.940   2.566  16.332 -0.0620  0.1572 -0.1549
  141DOPC  H11X16735   3.843   2.610  16.363 -1.1845 -1.9400 -0.5212
  141DOPC  H11Y16736   3.934   2.455  16.332  0.8260  0.0970 -0.8710
  141DOPC  C31216737   3.950   2.601  16.181  0.5763  0.2554  0.5633
  141DOPC  H12X16738   3.976   2.707  16.163 -2.2351  0.7104 -1.3856
  141DOPC  H12Y16739   3.855   2.575  16.130  0.8748  1.3172 -0.5679
  141DOPC  C31316740   4.060   2.522  16.098  0.3503  0.3157  0.1062
  141DOPC  H13X16741   4.161   2.545  16.139 -0.4001  0.6252  1.8817
  141DOPC  H13Y16742   4.048   2.413  16.116 -1.9971  0.8096  2.1583
  141DOPC  C31416743   4.063   2.554  15.954  0.7274  0.3442 -0.0013
  141DOPC  H14X16744   3.976   2.505  15.904  1.7977 -1.0080 -0.6105
  141DOPC  H14Y16745   4.074   2.663  15.938 -1.8976  0.4086 -2.2629
  141DOPC  C31516746   4.180   2.481  15.874 -0.2246  0.1359  0.5056
  141DOPC  H15X16747   4.152   2.374  15.861 -0.6177  0.1614  1.1363
  141DOPC  H15Y16748   4.265   2.488  15.945 -1.6477 -0.8668  2.3935
  141DOPC  C31616749   4.212   2.551  15.743  0.2848 -0.0176 -0.0535
  141DOPC  H16X16750   4.216   2.661  15.759 -1.9117 -0.1008  1.6229
  141DOPC  H16Y16751   4.308   2.516  15.700 -0.0041 -1.3782  0.3593
  141DOPC  C31716752   4.095   2.526  15.638 -0.0758 -0.3387  0.0969
  141DOPC  H17X16753   3.992   2.520  15.681 -0.3512 -0.4815 -0.5837
  141DOPC  H17Y16754   4.098   2.606  15.561 -1.6719 -2.1120 -1.9218
  141DOPC  C31816755   4.113   2.391  15.556 -0.5801  0.2353 -0.2439
  141DOPC  H18X16756   4.093   2.300  15.617  1.4925  0.2014  0.4610
  141DOPC  H18Y16757   4.045   2.412  15.471 -1.0572  0.7373  0.2500
  141DOPC  H18Z16758   4.218   2.380  15.520  0.3614  0.2275  2.3182
  142DOPC     N16759   5.365   3.319  17.312  0.5020  0.2744  0.3908
  142DOPC   C1216760   5.270   3.213  17.256 -0.0164 -0.5593  0.4754
  142DOPC  H12A16761   5.174   3.206  17.306  0.2394 -0.0875  1.0559
  142DOPC  H12B16762   5.320   3.120  17.278 -1.1995 -1.8115 -1.8296
  142DOPC   C1316763   5.336   3.346  17.462 -0.1488 -0.6927 -0.5572
  142DOPC  H13A16764   5.357   3.256  17.518 -1.3369  0.2908  1.5648
  142DOPC  H13B16765   5.404   3.422  17.496 -0.7604 -1.1522  1.8379
  142DOPC  H13C16766   5.236   3.380  17.483  0.1221  0.2090 -0.6658
  142DOPC   C1416767   5.343   3.444  17.232  0.3194 -0.2197  0.0397
  142DOPC  H14A16768   5.360   3.438  17.126 -0.7484  1.7785 -0.2742
  142DOPC  H14B16769   5.247   3.483  17.261 -0.1900 -0.7224 -0.9507
  142DOPC  H14C16770   5.414   3.516  17.270 -2.3070  2.7250 -0.3215
  142DOPC   C1516771   5.509   3.281  17.300 -0.5731  0.7623 -0.6139
  142DOPC  H15A16772   5.547   3.288  17.198 -1.1094 -2.9233 -1.1881
  142DOPC  H15B16773   5.529   3.179  17.327 -0.9296  0.5915 -0.9769
  142DOPC  H15C16774   5.573   3.339  17.364 -0.3097 -0.6608  0.4505
  142DOPC   C1116775   5.253   3.208  17.106 -0.1585  0.4998 -0.2846
  142DOPC  H11A16776   5.187   3.295  17.085  0.0542  1.0218  1.1069
  142DOPC  H11B16777   5.354   3.214  17.060 -0.5313  1.2219 -1.0270
  142DOPC     P16778   5.117   3.074  16.918  0.3282 -0.1907 -0.1056
  142DOPC   O1316779   5.012   3.179  16.906 -0.3155  0.2138 -0.5576
  142DOPC   O1416780   5.069   2.933  16.896 -0.0088  0.3007 -0.9165
  142DOPC   O1216781   5.185   3.083  17.061  0.5597  0.3313  0.5625
  142DOPC   O1116782   5.236   3.127  16.818  0.3304 -0.5525  0.4202
  142DOPC    C116783   5.318   3.019  16.769 -0.0318 -0.6240 -0.1560
  142DOPC    HA16784   5.271   2.921  16.789 -1.1504  0.1227  1.0801
  142DOPC    HB16785   5.419   3.025  16.814 -0.2277 -0.6539  0.2992
  142DOPC    C216786   5.339   3.021  16.618 -0.7616 -0.4124 -0.1469
  142DOPC    HS16787   5.404   3.110  16.599 -0.6395 -0.3258  0.6114
  142DOPC   O2116788   5.217   3.037  16.543 -0.0257  0.0762  0.3507
  142DOPC   C2116789   5.145   2.924  16.530 -0.5336  0.2297 -0.0777
  142DOPC   O2216790   5.154   2.827  16.601 -0.1096 -0.0524 -0.0553
  142DOPC   C2216791   5.038   2.937  16.424 -0.2482  0.2572 -0.1685
  142DOPC   H2R16792   5.083   2.939  16.322 -1.2292 -1.1021 -0.6578
  142DOPC   H2S16793   4.986   3.035  16.423 -0.5923  0.0764 -0.1286
  142DOPC    C316794   5.444   2.908  16.569 -0.1104 -0.0572  0.6933
  142DOPC    HX16795   5.411   2.817  16.623  1.2209 -1.3795 -0.6212
  142DOPC    HY16796   5.547   2.928  16.606  0.1883 -2.3743  1.2828
  142DOPC   O3116797   5.444   2.857  16.435 -0.0035 -0.0146 -0.1216
  142DOPC   C3116798   5.521   2.934  16.355  0.0454 -0.4132 -0.1234
  142DOPC   O3216799   5.598   3.017  16.394 -0.3961  0.1507  0.2827
  142DOPC   C3216800   5.487   2.910  16.205 -0.4411 -0.5566 -0.5856
  142DOPC   H2X16801   5.555   2.977  16.148 -0.8846  0.1146 -0.3233
  142DOPC   H2Y16802   5.513   2.808  16.169 -0.6295 -0.1232 -2.0274
  142DOPC   C2316803   4.923   2.836  16.432  0.2575  1.0359  0.1931
  142DOPC   H3R16804   4.832   2.889  16.398 -0.9418  0.0330  1.6738
  142DOPC   H3S16805   4.898   2.820  16.539  2.0229  1.9654  0.7810
  142DOPC   C2416806   4.935   2.705  16.353 -0.2033  0.3479 -0.7710
  142DOPC   H4R16807   4.840   2.649  16.363  0.6457 -0.9775  0.3019
  142DOPC   H4S16808   5.017   2.636  16.383 -0.6989 -0.7891 -1.9238
  142DOPC   C2516809   4.963   2.739  16.205  0.6258 -0.1523  0.1024
  142DOPC   H5R16810   5.071   2.763  16.191  0.4843  0.0819 -0.6050
  142DOPC   H5S16811   4.897   2.826  16.186  0.6246 -0.1497  0.1200
  142DOPC   C2616812   4.897   2.636  16.111  0.3951  0.1270 -0.0681
  142DOPC   H6R16813   4.789   2.647  16.134  0.7895  0.2744  1.8835
  142DOPC   H6S16814   4.934   2.534  16.136  0.6398  0.5118  1.2245
  142DOPC   C2716815   4.928   2.651  15.955 -0.1237  0.7595 -0.6006
  142DOPC   H7R16816   5.038   2.660  15.945  0.3018 -1.8897  0.9410
  142DOPC   H7S16817   4.882   2.746  15.918 -1.1655 -0.3390 -2.2483
  142DOPC   C2816818   4.882   2.524  15.881  0.0423  0.2525  0.2779
  142DOPC   H8R16819   4.775   2.504  15.902 -1.0153  2.4997 -2.4041
  142DOPC   H8S16820   4.945   2.439  15.917  1.0155  0.6510 -0.4254
  142DOPC   C2916821   4.910   2.527  15.733 -0.1543  0.7509 -0.1136
  142DOPC   H9R16822   5.016   2.506  15.709  0.2911  2.7320 -0.0304
  142DOPC  C21016823   4.831   2.584  15.637 -0.6122 -0.4216 -0.3496
  142DOPC  H10R16824   4.843   2.576  15.528 -1.1397  0.3973 -0.4785
  142DOPC  C21116825   4.706   2.658  15.670  0.3039  1.0594  0.1262
  142DOPC  H11R16826   4.672   2.632  15.772 -0.9393  0.1484 -0.4913
  142DOPC  H11S16827   4.623   2.618  15.608 -0.2481  0.9680  0.9133
  142DOPC  C21216828   4.708   2.810  15.653 -0.1565  0.6679 -0.1401
  142DOPC  H12R16829   4.731   2.830  15.546  0.1460  2.8010  0.2787
  142DOPC  H12S16830   4.795   2.854  15.706  0.4369 -0.8156  0.1828
  142DOPC  C21316831   4.581   2.879  15.694 -0.8543 -0.1522  0.0477
  142DOPC  H13R16832   4.608   2.986  15.691  0.2364 -0.4371 -0.9848
  142DOPC  H13S16833   4.542   2.852  15.794 -1.2714 -1.3939 -0.4279
  142DOPC  C21416834   4.477   2.852  15.587  0.3387 -0.3223 -0.4085
  142DOPC  H14R16835   4.447   2.745  15.582  0.0230 -0.3479  1.3824
  142DOPC  H14S16836   4.529   2.880  15.493 -1.1437 -1.9680 -1.7896
  142DOPC  C21516837   4.351   2.938  15.586 -0.6144  0.0660  0.2857
  142DOPC  H15R16838   4.380   3.044  15.573  0.5507 -0.3149 -0.3234
  142DOPC  H15S16839   4.300   2.926  15.684 -1.9592 -0.6748 -0.4766
  142DOPC  C21616840   4.261   2.911  15.467 -0.2083  0.3065 -0.3811
  142DOPC  H16R16841   4.240   2.802  15.459 -1.0906  0.3947  0.5571
  142DOPC  H16S16842   4.328   2.930  15.381  0.9066  2.5342  0.8931
  142DOPC  C21716843   4.126   2.975  15.472  0.0976 -0.0963  0.4455
  142DOPC  H17R16844   4.145   3.083  15.453 -0.9046  0.1722  0.9180
  142DOPC  H17S16845   4.099   2.961  15.579  1.6157  1.6424  1.1126
  142DOPC  C21816846   4.014   2.932  15.379 -0.4944  1.0374  0.7599
  142DOPC  H18R16847   3.914   2.976  15.400 -1.0819  0.3260 -0.4373
  142DOPC  H18S16848   4.009   2.821  15.380  0.6116  0.9635 -0.3557
  142DOPC  H18T16849   4.038   2.958  15.274  1.1165 -0.0022  0.8223
  142DOPC   C3316850   5.347   2.939  16.175 -0.5539 -0.1513  0.0355
  142DOPC   H3X16851   5.317   3.037  16.217  1.1599  0.4635 -0.1005
  142DOPC   H3Y16852   5.291   2.861  16.231  1.3415 -0.3735  1.7556
  142DOPC   C3416853   5.319   2.941  16.025  0.0358 -0.7616  0.2214
  142DOPC   H4X16854   5.337   2.840  15.984 -2.0857 -1.7476  1.5686
  142DOPC   H4Y16855   5.403   3.001  15.983 -1.7305  1.4149 -0.3716
  142DOPC   C3516856   5.181   3.005  15.983 -0.8441 -0.3449 -0.0002
  142DOPC   H5X16857   5.170   3.098  16.042 -1.7004 -1.1333  1.1125
  142DOPC   H5Y16858   5.102   2.938  16.022 -0.8795  1.0382  2.4590
  142DOPC   C3616859   5.170   3.029  15.826 -0.9315  0.3823  0.0292
  142DOPC   H6X16860   5.064   3.032  15.792 -1.2397 -0.3318  0.8642
  142DOPC   H6Y16861   5.221   3.125  15.806  1.5288 -1.0223 -0.8305
  142DOPC   C3716862   5.250   2.931  15.732  0.6158 -0.1044  0.1308
  142DOPC   H7X16863   5.356   2.914  15.760  0.6990 -1.8955 -1.1236
  142DOPC   H7Y16864   5.189   2.838  15.725 -0.4062  0.4747  0.9769
  142DOPC   C3816865   5.249   3.004  15.590  0.1737  0.1451  0.0436
  142DOPC   H8X16866   5.319   3.090  15.599  1.2242 -0.3342 -2.7606
  142DOPC   H8Y16867   5.152   3.056  15.576  0.2869  0.1072 -0.9258
  142DOPC   C3916868   5.287   2.910  15.486 -0.4249  0.9435  0.4976
  142DOPC   H9X16869   5.230   2.816  15.493 -0.9255  1.2078 -0.0025
  142DOPC  C31016870   5.380   2.917  15.387 -0.2019  0.2486 -0.2853
  142DOPC  H10X16871   5.410   2.832  15.324  1.3107  1.4541 -1.2778
  142DOPC  C31116872   5.467   3.036  15.349 -0.0208 -0.5104  0.2076
  142DOPC  H11X16873   5.423   3.133  15.380 -0.2323 -0.9008  1.1425
  142DOPC  H11Y16874   5.498   3.036  15.242 -0.2967  2.1852  0.0654
  142DOPC  C31216875   5.588   3.021  15.438  0.6771  0.8339  0.0468
  142DOPC  H12X16876   5.628   2.918  15.430  0.5874  0.8549 -0.6909
  142DOPC  H12Y16877   5.552   3.037  15.542  1.8370  3.6940  0.0928
  142DOPC  C31316878   5.700   3.118  15.414  0.0657 -0.7319  0.4545
  142DOPC  H13X16879   5.747   3.114  15.313  1.8898 -0.4689  1.2503
  142DOPC  H13Y16880   5.661   3.221  15.426  1.9483  0.1612 -0.6143
  142DOPC  C31416881   5.816   3.108  15.509 -0.4118  0.4790 -0.2851
  142DOPC  H14X16882   5.783   3.132  15.612  0.7701  1.0501 -0.0250
  142DOPC  H14Y16883   5.848   3.002  15.500  0.2173  0.7478 -1.5526
  142DOPC  C31516884   5.933   3.195  15.466 -0.5908 -0.1185  0.9670
  142DOPC  H15X16885   5.892   3.296  15.446  0.4040 -0.1751 -1.7641
  142DOPC  H15Y16886   5.985   3.173  15.370 -0.5757  0.6648  0.7921
  142DOPC  C31616887   6.052   3.203  15.574  0.3325  0.4719  0.4699
  142DOPC  H16X16888   6.087   3.098  15.578 -2.7991 -0.6484  1.6685
  142DOPC  H16Y16889   6.130   3.272  15.536  2.0446 -0.7293  1.6457
  142DOPC  C31716890   6.014   3.252  15.714 -0.1370 -0.7570  0.0301
  142DOPC  H17X16891   5.940   3.335  15.705  0.4556 -0.1380  0.6801
  142DOPC  H17Y16892   5.968   3.170  15.774  4.1216 -2.7144  0.9293
  142DOPC  C31816893   6.131   3.302  15.807  0.2221 -0.8385  0.0364
  142DOPC  H18X16894   6.162   3.399  15.763 -1.7766 -1.2046 -2.3733
  142DOPC  H18Y16895   6.087   3.317  15.907  1.9726  0.6434  0.6332
  142DOPC  H18Z16896   6.214   3.228  15.822 -0.1802 -0.8000  3.0029
  143DOPC     N16897   3.385   3.393  17.458 -0.1705  0.3479  1.0720
  143DOPC   C1216898   3.340   3.469  17.333 -0.5292  0.0801 -0.3860
  143DOPC  H12A16899   3.286   3.560  17.353 -0.8033 -0.2281  0.3001
  143DOPC  H12B16900   3.273   3.405  17.277 -0.2435  0.6305 -1.3822
  143DOPC   C1316901   3.496   3.289  17.424 -0.3107 -0.3447  0.6887
  143DOPC  H13A16902   3.460   3.237  17.336 -0.4880 -0.6685  0.9506
  143DOPC  H13B16903   3.588   3.341  17.401 -0.6554  0.0431  0.1521
  143DOPC  H13C16904   3.526   3.222  17.503 -1.6380 -1.7641  0.0472
  143DOPC   C1416905   3.268   3.319  17.526 -0.1671 -0.0958 -0.3838
  143DOPC  H14A16906   3.244   3.226  17.477  0.2248 -0.1911 -0.4031
  143DOPC  H14B16907   3.294   3.304  17.630 -0.2188  1.2527 -0.1579
  143DOPC  H14C16908   3.185   3.387  17.539 -0.9101 -1.1777  0.7019
  143DOPC   C1516909   3.444   3.488  17.559  0.0534 -0.5158  0.3416
  143DOPC  H15A16910   3.484   3.426  17.637 -0.4385 -2.2303 -0.7183
  143DOPC  H15B16911   3.378   3.567  17.590 -0.5890 -1.0157  0.2547
  143DOPC  H15C16912   3.537   3.524  17.517 -0.0457 -3.0482 -2.3832
  143DOPC   C1116913   3.455   3.523  17.239 -1.0992 -0.4376  0.5749
  143DOPC  H11A16914   3.502   3.438  17.186  1.2436  0.2873  1.3628
  143DOPC  H11B16915   3.414   3.582  17.154 -0.6109 -1.1522 -0.1685
  143DOPC     P16916   3.712   3.610  17.256 -0.2165  0.0545  0.1224
  143DOPC   O1316917   3.791   3.484  17.275  0.2156 -0.1039 -0.0585
  143DOPC   O1416918   3.773   3.729  17.321 -0.5247 -0.2678  0.2819
  143DOPC   O1216919   3.559   3.594  17.299 -0.4734 -0.1167 -0.9047
  143DOPC   O1116920   3.700   3.617  17.101 -0.2284  0.4470  0.0146
  143DOPC    C116921   3.636   3.732  17.036 -0.1086  0.1110 -0.0338
  143DOPC    HA16922   3.691   3.826  17.057  1.5099 -0.8580  0.2673
  143DOPC    HB16923   3.526   3.738  17.051 -0.4565  0.4101 -2.3299
  143DOPC    C216924   3.653   3.722  16.883  0.6408  0.0984  0.3326
  143DOPC    HS16925   3.619   3.813  16.829  2.5268 -0.3782 -1.8112
  143DOPC   O2116926   3.579   3.602  16.834  0.2652  0.3024  0.1623
  143DOPC   C2116927   3.453   3.629  16.816  0.0975 -0.0750 -0.4269
  143DOPC   O2216928   3.402   3.738  16.806 -0.3962  0.3705  0.0565
  143DOPC   C2216929   3.376   3.495  16.808  0.6861  0.3180 -0.7119
  143DOPC   H2R16930   3.346   3.476  16.913 -1.5587  2.4762 -0.8629
  143DOPC   H2S16931   3.439   3.414  16.766 -0.3940 -1.3166  0.6986
  143DOPC    C316932   3.801   3.712  16.849  0.1784  0.1937  0.1904
  143DOPC    HX16933   3.851   3.622  16.892 -1.2154  0.0284  1.5924
  143DOPC    HY16934   3.840   3.801  16.902 -0.5525  0.5600  0.1290
  143DOPC   O3116935   3.822   3.736  16.704  0.6616 -0.3684  0.2061
  143DOPC   C3116936   3.903   3.649  16.649  0.3367  0.6980  0.6400
  143DOPC   O3216937   3.930   3.540  16.703  0.3299  0.7499  0.1898
  143DOPC   C3216938   3.949   3.704  16.512  0.1899  0.2459 -0.3051
  143DOPC   H2X16939   3.999   3.800  16.534 -0.0284 -0.1578  2.3092
  143DOPC   H2Y16940   4.023   3.628  16.479 -0.9158  0.1081 -2.6904
  143DOPC   C2316941   3.240   3.512  16.732 -0.6017 -0.3407 -0.2704
  143DOPC   H3R16942   3.204   3.617  16.739 -1.0258 -0.6224  3.6035
  143DOPC   H3S16943   3.168   3.451  16.790 -0.6239 -0.1067 -0.0491
  143DOPC   C2416944   3.235   3.478  16.582  0.3265 -0.2182  0.2349
  143DOPC   H4R16945   3.134   3.504  16.545  0.1515  0.7327  1.3142
  143DOPC   H4S16946   3.261   3.372  16.561  0.3007  0.0019 -0.9942
  143DOPC   C2516947   3.327   3.581  16.505  0.5186 -0.9320 -0.1351
  143DOPC   H5R16948   3.430   3.579  16.545  0.5651 -2.1159 -0.2845
  143DOPC   H5S16949   3.295   3.687  16.520  2.1866 -0.6047  1.4523
  143DOPC   C2616950   3.328   3.547  16.353  0.0694  0.1583  0.4725
  143DOPC   H6R16951   3.304   3.439  16.344 -1.1228  0.3963  0.6295
  143DOPC   H6S16952   3.432   3.564  16.318  0.0811  0.4175  0.6278
  143DOPC   C2716953   3.216   3.626  16.280 -0.1546 -0.3873 -0.5159
  143DOPC   H7R16954   3.234   3.735  16.270  1.0349 -0.3244  1.6659
  143DOPC   H7S16955   3.125   3.610  16.341  1.2738  0.6473  2.0426
  143DOPC   C2816956   3.200   3.572  16.133  0.3579  0.1262 -0.8904
  143DOPC   H8R16957   3.114   3.625  16.088 -0.2743 -0.7829 -0.7726
  143DOPC   H8S16958   3.193   3.461  16.134 -1.6293  0.1512  2.3923
  143DOPC   C2916959   3.320   3.616  16.047 -0.2932 -0.3422 -0.1161
  143DOPC   H9R16960   3.419   3.582  16.081 -0.6757 -0.3172  1.0565
  143DOPC  C21016961   3.319   3.707  15.952 -0.7899 -0.3691 -0.0537
  143DOPC  H10R16962   3.401   3.706  15.879 -1.5744  1.6821 -1.0403
  143DOPC  C21116963   3.194   3.775  15.915 -0.8065  0.7284  0.0990
  143DOPC  H11R16964   3.221   3.873  15.869 -0.4828 -0.3199 -2.0980
  143DOPC  H11S16965   3.130   3.800  16.002  1.4380  1.1288  1.6903
  143DOPC  C21216966   3.120   3.703  15.800 -0.5815 -0.2285  0.0680
  143DOPC  H12R16967   3.020   3.752  15.794  0.1926  1.4951  0.6823
  143DOPC  H12S16968   3.090   3.598  15.820  0.6799 -0.4577  0.8027
  143DOPC  C21316969   3.196   3.704  15.662  0.0112 -0.2171  0.1317
  143DOPC  H13R16970   3.298   3.660  15.665 -0.5596 -1.8463 -2.1667
  143DOPC  H13S16971   3.208   3.814  15.648 -1.7615  0.1915  1.4854
  143DOPC  C21416972   3.117   3.626  15.555 -0.7720  0.4374  0.2742
  143DOPC  H14R16973   3.008   3.632  15.571 -0.5274  0.2199  2.2332
  143DOPC  H14S16974   3.147   3.520  15.570 -0.0798  0.1991 -2.2602
  143DOPC  C21516975   3.161   3.664  15.406 -0.3093  0.3307 -0.3107
  143DOPC  H15R16976   3.130   3.769  15.383  1.3178  0.6360 -1.3170
  143DOPC  H15S16977   3.104   3.594  15.341  0.8784 -0.6142 -0.3663
  143DOPC  C21616978   3.313   3.645  15.368 -0.1853 -0.0742  0.6683
  143DOPC  H16R16979   3.338   3.541  15.395  1.9449 -0.1435 -1.3154
  143DOPC  H16S16980   3.374   3.709  15.436  0.4818 -0.7757  0.7423
  143DOPC  C21716981   3.346   3.685  15.227 -0.2196 -0.5542 -0.9354
  143DOPC  H17R16982   3.331   3.795  15.225  3.0300  0.1663  2.4970
  143DOPC  H17S16983   3.283   3.637  15.148 -1.5075 -2.0762  0.9007
  143DOPC  C21816984   3.490   3.668  15.186  0.0971 -0.1166 -0.3680
  143DOPC  H18R16985   3.559   3.718  15.257 -2.4212 -0.0081  2.1939
  143DOPC  H18S16986   3.517   3.719  15.091  0.1939 -0.1066 -0.3349
  143DOPC  H18T16987   3.525   3.563  15.194  0.7962  0.1304 -0.1108
  143DOPC   C3316988   3.830   3.705  16.410 -0.6753  0.8763 -0.3824
  143DOPC   H3X16989   3.773   3.798  16.430 -0.8974  1.1083 -1.9641
  143DOPC   H3Y16990   3.753   3.628  16.429 -1.0649  1.7475  1.8008
  143DOPC   C3416991   3.893   3.692  16.264 -0.3083 -0.0848 -0.4975
  143DOPC   H4X16992   3.965   3.607  16.268  1.1345  1.0431 -1.3435
  143DOPC   H4Y16993   3.947   3.785  16.237  3.4402 -1.8755  0.1282
  143DOPC   C3516994   3.789   3.651  16.163 -0.0034 -0.9003 -0.0521
  143DOPC   H5X16995   3.703   3.721  16.154  2.0536  1.9425  1.0347
  143DOPC   H5Y16996   3.745   3.551  16.182 -2.6251 -0.5074 -3.0644
  143DOPC   C3616997   3.845   3.648  16.021 -0.2581  0.0362  0.2743
  143DOPC   H6X16998   3.901   3.741  15.996 -2.0129  0.3833 -2.9573
  143DOPC   H6Y16999   3.917   3.567  15.995  0.0154  0.1008  0.8315
  143DOPC   C3717000   3.721   3.625  15.929  0.2340 -0.0583  0.3280
  143DOPC   H7X17001   3.696   3.516  15.926  1.5350 -0.4576  2.2949
  143DOPC   H7Y17002   3.631   3.682  15.958 -0.6706 -0.0138 -2.2530
  143DOPC   C3817003   3.755   3.661  15.785 -1.1796 -0.5250  0.0875
  143DOPC   H8X17004   3.824   3.587  15.739  0.8819  2.0559 -1.1936
  143DOPC   H8Y17005   3.812   3.756  15.792  1.7130 -2.1355  0.2089
  143DOPC   C3917006   3.636   3.661  15.694  0.0782 -0.7379  0.4868
  143DOPC   H9X17007   3.593   3.565  15.663  0.4933 -0.9683  0.6219
  143DOPC  C31017008   3.577   3.782  15.658 -0.7298  0.1115  0.3209
  143DOPC  H10X17009   3.483   3.778  15.600 -0.3345 -0.7841 -0.2961
  143DOPC  C31117010   3.630   3.918  15.692 -0.1849  0.0250  0.2132
  143DOPC  H11X17011   3.703   3.940  15.612 -0.1029  0.0164  0.2859
  143DOPC  H11Y17012   3.669   3.920  15.796 -0.4679  0.6103  0.3121
  143DOPC  C31217013   3.523   4.021  15.692 -0.1848  0.3954  0.4439
  143DOPC  H12X17014   3.576   4.116  15.713  0.6977  0.3482 -1.3481
  143DOPC  H12Y17015   3.438   4.004  15.762  0.2295 -0.7630  0.6964
  143DOPC  C31317016   3.473   4.039  15.550 -0.1620 -0.0962  0.1849
  143DOPC  H13X17017   3.565   4.066  15.494 -1.3052  0.7382 -1.3702
  143DOPC  H13Y17018   3.441   3.943  15.506 -1.7582  1.1696 -1.5909
  143DOPC  C31417019   3.371   4.143  15.523  1.1619 -0.0290  0.5129
  143DOPC  H14X17020   3.417   4.244  15.524 -0.8717  0.9761 -1.2713
  143DOPC  H14Y17021   3.326   4.130  15.423 -0.7693  3.1909  0.7991
  143DOPC  C31517022   3.251   4.138  15.622 -0.3609 -0.6967 -0.5359
  143DOPC  H15X17023   3.289   4.144  15.726 -1.8036 -0.4870  0.0017
  143DOPC  H15Y17024   3.212   4.034  15.619 -1.9731 -0.2009  1.1513
  143DOPC  C31617025   3.140   4.241  15.606 -0.5780 -0.0590  0.0468
  143DOPC  H16X17026   3.113   4.272  15.709  0.9553  0.4986  0.3103
  143DOPC  H16Y17027   3.172   4.332  15.551 -1.4984 -0.1274 -0.6199
  143DOPC  C31717028   3.014   4.197  15.535  0.1826  0.8037 -0.2802
  143DOPC  H17X17029   2.948   4.285  15.517 -0.2364  0.2611 -1.5503
  143DOPC  H17Y17030   3.054   4.175  15.434 -0.8331  1.1321 -0.7631
  143DOPC  C31817031   2.954   4.076  15.596  0.3211  0.4646  0.4325
  143DOPC  H18X17032   2.979   4.082  15.704 -0.8597  2.1053  0.6624
  143DOPC  H18Y17033   2.843   4.074  15.592  0.2685 -0.0887  1.6902
  143DOPC  H18Z17034   3.006   3.987  15.556  1.4092  1.6276 -0.8766
  144DOPC     N17035   4.277   2.636  17.336  0.4784  0.0838  0.5687
  144DOPC   C1217036   4.275   2.539  17.217  0.3406  0.3279  0.3699
  144DOPC  H12A17037   4.359   2.560  17.153  0.1931  0.1544  0.1182
  144DOPC  H12B17038   4.194   2.557  17.148 -1.7904 -0.7282  2.4476
  144DOPC   C1317039   4.404   2.629  17.418  0.0141  0.1101  0.5022
  144DOPC  H13A17040   4.493   2.659  17.364  1.7275  0.6008  3.3790
  144DOPC  H13B17041   4.396   2.689  17.508 -1.7506 -0.1620  0.5657
  144DOPC  H13C17042   4.417   2.527  17.451 -0.6836  0.4600  1.9340
  144DOPC   C1417043   4.156   2.614  17.421 -0.3764 -0.2727  0.0042
  144DOPC  H14A17044   4.146   2.514  17.460  3.8360 -0.8452 -0.0029
  144DOPC  H14B17045   4.149   2.692  17.495  2.7776  1.0336 -0.9360
  144DOPC  H14C17046   4.062   2.633  17.371  0.1034 -0.4145 -0.9562
  144DOPC   C1517047   4.270   2.771  17.276  0.1227  0.9730 -0.5746
  144DOPC  H15A17048   4.165   2.798  17.270  0.3882  2.1109 -0.4149
  144DOPC  H15B17049   4.317   2.780  17.179 -1.0436 -1.2051 -1.4221
  144DOPC  H15C17050   4.317   2.844  17.341 -0.2819  0.1594  0.6731
  144DOPC   C1117051   4.261   2.386  17.242 -0.7071  0.0919  0.0157
  144DOPC  H11A17052   4.273   2.338  17.142 -0.8084 -1.8797  0.9072
  144DOPC  H11B17053   4.351   2.356  17.301 -1.1205 -0.5314  0.3424
  144DOPC     P17054   4.010   2.329  17.228  0.5600  0.1844  0.2694
  144DOPC   O1317055   3.907   2.380  17.313  1.0099 -0.6876 -0.8089
  144DOPC   O1417056   3.989   2.189  17.187 -0.4668  0.0764  1.1755
  144DOPC   O1217057   4.142   2.348  17.313 -0.2038  0.2082  0.0352
  144DOPC   O1117058   4.024   2.423  17.106 -0.2490  0.0290  0.2066
  144DOPC    C117059   3.928   2.413  16.991  0.4007  0.0121  0.2415
  144DOPC    HA17060   3.916   2.501  16.925 -3.3512  0.1512  0.8773
  144DOPC    HB17061   3.826   2.392  17.030 -0.2425  2.8727  0.3046
  144DOPC    C217062   3.953   2.299  16.885 -0.2052  0.2332 -0.0117
  144DOPC    HS17063   3.977   2.205  16.938 -0.9632 -0.2229 -0.4616
  144DOPC   O2117064   4.058   2.340  16.796  0.4279  0.6526  0.5340
  144DOPC   C2117065   4.184   2.307  16.827  0.0830 -0.2731 -0.3404
  144DOPC   O2217066   4.210   2.219  16.902  0.0005  0.4446 -0.0145
  144DOPC   C2217067   4.287   2.397  16.773  0.5947 -0.4582 -0.0889
  144DOPC   H2R17068   4.336   2.457  16.852  1.0778 -0.9590 -0.0030
  144DOPC   H2S17069   4.237   2.471  16.707 -1.3526 -0.9450  0.7647
  144DOPC    C317070   3.822   2.274  16.793  0.2403 -0.8937  0.3738
  144DOPC    HX17071   3.793   2.364  16.734 -1.5095 -0.6865  1.4718
  144DOPC    HY17072   3.734   2.250  16.857 -1.0073  2.2371  0.0002
  144DOPC   O3117073   3.837   2.165  16.698 -0.0287 -0.7879 -0.5679
  144DOPC   C3117074   3.833   2.049  16.760 -0.1662 -0.2824  0.4476
  144DOPC   O3217075   3.819   2.029  16.878 -0.7723 -0.0283 -0.1481
  144DOPC   C3217076   3.841   1.937  16.659  0.1855  0.3878  0.4817
  144DOPC   H2X17077   3.936   1.946  16.602  0.7928 -0.9912  1.2239
  144DOPC   H2Y17078   3.846   1.832  16.695 -2.4154 -0.1639 -0.5704
  144DOPC   C2317079   4.393   2.326  16.691 -0.2215 -0.7392  0.5185
  144DOPC   H3R17080   4.463   2.267  16.754 -1.2817 -0.6753  1.8013
  144DOPC   H3S17081   4.464   2.400  16.648 -2.9707  2.4939  1.0934
  144DOPC   C2417082   4.337   2.222  16.589 -0.2505  1.1085  0.1527
  144DOPC   H4R17083   4.291   2.146  16.655  0.1008  1.5682  0.9402
  144DOPC   H4S17084   4.419   2.164  16.540  0.1491  0.0798  1.9618
  144DOPC   C2517085   4.238   2.258  16.472  0.0816  0.1883 -0.1739
  144DOPC   H5R17086   4.294   2.309  16.391 -0.9765  2.5417  0.4954
  144DOPC   H5S17087   4.167   2.333  16.512  0.0258 -0.4166  0.8918
  144DOPC   C2617088   4.167   2.135  16.420 -0.0394  0.5492  0.1486
  144DOPC   H6R17089   4.124   2.089  16.512  1.0909  2.7367  1.8364
  144DOPC   H6S17090   4.241   2.059  16.387 -0.7122  0.1071 -0.3875
  144DOPC   C2717091   4.065   2.161  16.316  0.2056  0.2197 -0.3503
  144DOPC   H7R17092   4.116   2.185  16.221 -1.5166  0.2982 -1.2984
  144DOPC   H7S17093   3.999   2.247  16.342  0.9355  0.0038  2.5346
  144DOPC   C2817094   3.975   2.037  16.286 -0.1227  0.4192  0.7904
  144DOPC   H8R17095   3.899   2.007  16.361 -1.6356  0.5693 -0.6270
  144DOPC   H8S17096   4.044   1.949  16.288 -1.3518 -0.5673  1.0884
  144DOPC   C2917097   3.905   2.043  16.149  0.3229  0.0160 -0.7783
  144DOPC   H9R17098   3.797   2.065  16.154  0.5889  1.9983 -2.4013
  144DOPC  C21017099   3.961   2.022  16.027  0.2003 -0.0256  0.1753
  144DOPC  H10R17100   3.897   1.989  15.944  0.0168  0.9808 -0.0908
  144DOPC  C21117101   4.106   1.990  16.006  0.5130 -0.7003  0.1375
  144DOPC  H11R17102   4.172   2.018  16.091 -0.4406  0.7097  0.4546
  144DOPC  H11S17103   4.157   2.062  15.938  1.9264 -2.3459 -0.6189
  144DOPC  C21217104   4.120   1.837  15.965 -0.3989 -0.7427  0.0340
  144DOPC  H12R17105   4.047   1.810  15.886 -0.6603 -1.9540  0.6546
  144DOPC  H12S17106   4.101   1.775  16.056 -2.9123 -0.1168  0.0062
  144DOPC  C21317107   4.261   1.806  15.905 -0.7638  0.6309  0.6515
  144DOPC  H13R17108   4.299   1.887  15.840 -2.1201  0.7199 -0.0704
  144DOPC  H13S17109   4.232   1.714  15.849  0.2055  0.8451 -0.2274
  144DOPC  C21417110   4.358   1.772  16.018  0.7326  0.6493  1.1931
  144DOPC  H14R17111   4.316   1.687  16.076  1.9544 -0.7007  0.1443
  144DOPC  H14S17112   4.369   1.848  16.099 -1.9967  0.5967  1.7165
  144DOPC  C21517113   4.502   1.733  15.978  0.5430 -0.1256 -0.3924
  144DOPC  H15R17114   4.537   1.804  15.901  0.4772  1.2063  0.7598
  144DOPC  H15S17115   4.497   1.627  15.944 -1.2682 -0.7692  1.6164
  144DOPC  C21617116   4.600   1.722  16.104  0.2570  0.6513 -0.0830
  144DOPC  H16R17117   4.551   1.655  16.179  1.7350 -0.4288 -0.0277
  144DOPC  H16S17118   4.615   1.821  16.151  1.7623  0.4599 -0.1230
  144DOPC  C21717119   4.730   1.654  16.057  0.6031  0.2627  0.1600
  144DOPC  H17R17120   4.711   1.556  16.010  0.5225 -0.3699  1.4678
  144DOPC  H17S17121   4.801   1.626  16.138 -0.4085 -3.6835 -0.1303
  144DOPC  C21817122   4.810   1.733  15.950 -0.3098 -0.3280 -0.8788
  144DOPC  H18R17123   4.822   1.838  15.986  1.5082 -1.3642  1.8608
  144DOPC  H18S17124   4.757   1.743  15.853 -0.9677 -1.1903 -0.6098
  144DOPC  H18T17125   4.906   1.681  15.929 -0.5968 -1.1102 -0.2951
  144DOPC   C3317126   3.720   1.951  16.555 -0.4705 -0.3299  0.1300
  144DOPC   H3X17127   3.732   1.895  16.460  0.9141 -2.8977  1.7192
  144DOPC   H3Y17128   3.704   2.056  16.522  2.5092  0.6622  1.5163
  144DOPC   C3417129   3.584   1.905  16.605 -0.5215  0.1102 -0.1177
  144DOPC   H4X17130   3.605   1.804  16.646 -1.0681  0.2728  0.5760
  144DOPC   H4Y17131   3.517   1.881  16.520 -0.2771 -1.9112  0.2140
  144DOPC   C3517132   3.513   1.995  16.710  0.1116 -0.8680 -0.2782
  144DOPC   H5X17133   3.582   2.017  16.795  1.3272 -1.4145 -1.0898
  144DOPC   H5Y17134   3.435   1.937  16.764  0.6798 -0.1333  1.4074
  144DOPC   C3617135   3.456   2.134  16.661  0.1890 -1.1055 -0.4940
  144DOPC   H6X17136   3.538   2.175  16.599  0.6849 -1.9427 -0.4087
  144DOPC   H6Y17137   3.356   2.121  16.615 -0.6840 -0.6587  1.1845
  144DOPC   C3717138   3.430   2.227  16.781  0.5481 -0.3057 -0.9472
  144DOPC   H7X17139   3.338   2.210  16.841  0.3301 -1.2558 -1.5329
  144DOPC   H7Y17140   3.517   2.212  16.848  0.5631  1.6758 -0.4643
  144DOPC   C3817141   3.410   2.373  16.748  0.7197 -0.3816 -0.5638
  144DOPC   H8X17142   3.391   2.434  16.839 -0.9829  0.9420 -1.7427
  144DOPC   H8Y17143   3.309   2.382  16.702  0.2678  1.8919  0.7244
  144DOPC   C3917144   3.503   2.438  16.659 -0.1934 -0.3717  0.1360
  144DOPC   H9X17145   3.597   2.454  16.713 -0.6905  1.4061  0.5322
  144DOPC  C31017146   3.490   2.489  16.536  0.0545 -0.2445  0.1537
  144DOPC  H10X17147   3.581   2.529  16.490 -0.5542  1.7739  0.6015
  144DOPC  C31117148   3.365   2.496  16.447 -0.2244 -0.0065  0.3769
  144DOPC  H11X17149   3.343   2.605  16.455  0.6448  0.3739 -1.7173
  144DOPC  H11Y17150   3.282   2.429  16.480 -0.3684  0.0318  0.0946
  144DOPC  C31217151   3.389   2.469  16.296 -0.0993  0.5789 -0.8934
  144DOPC  H12X17152   3.390   2.358  16.287 -1.2341  0.4509  0.3603
  144DOPC  H12Y17153   3.487   2.508  16.261 -0.0379  0.7663 -0.5083
  144DOPC  C31317154   3.279   2.526  16.217  0.3508  0.2496 -0.2352
  144DOPC  H13X17155   3.181   2.492  16.257  0.3419  1.4605  0.8256
  144DOPC  H13Y17156   3.281   2.636  16.233 -0.3351  0.4792 -1.6026
  144DOPC  C31417157   3.296   2.512  16.062  0.0079  0.2297  0.2826
  144DOPC  H14X17158   3.398   2.548  16.034  0.5726 -0.1946  1.7098
  144DOPC  H14Y17159   3.282   2.408  16.027 -1.3683  0.4613  0.1012
  144DOPC  C31517160   3.201   2.600  15.983 -0.2054 -0.8407 -0.0366
  144DOPC  H15X17161   3.228   2.705  16.010  0.0360 -1.1488  0.9535
  144DOPC  H15Y17162   3.095   2.595  16.019 -0.6297  1.8056 -0.6667
  144DOPC  C31617163   3.193   2.583  15.830  0.1544  0.6171 -0.3579
  144DOPC  H16X17164   3.294   2.581  15.782 -0.7091  1.1789 -2.2814
  144DOPC  H16Y17165   3.146   2.484  15.812 -0.9698  1.2234 -0.8399
  144DOPC  C31717166   3.111   2.690  15.760  0.6511 -0.4553  0.0598
  144DOPC  H17X17167   3.010   2.681  15.807  0.3760 -0.1528 -0.4682
  144DOPC  H17Y17168   3.149   2.786  15.801 -0.2090  0.6126 -1.5252
  144DOPC  C31817169   3.114   2.687  15.608 -0.7217 -0.3187 -0.1081
  144DOPC  H18X17170   3.035   2.744  15.555 -0.5714  0.1197  0.1398
  144DOPC  H18Y17171   3.211   2.733  15.579 -1.2540  1.3751  0.7038
  144DOPC  H18Z17172   3.089   2.584  15.575 -0.2681 -1.5472  3.0372
  145DOPC     N17173   5.060   5.759  17.548  0.1837  0.5092 -0.1791
  145DOPC   C1217174   5.075   5.730  17.397  0.1860 -0.1416 -0.0637
  145DOPC  H12A17175   5.177   5.747  17.367  0.2146 -1.5434 -0.8149
  145DOPC  H12B17176   5.015   5.807  17.350  1.3655  0.9695  0.1794
  145DOPC   C1317177   5.134   5.664  17.637 -0.0981  0.0134 -0.2191
  145DOPC  H13A17178   5.238   5.665  17.607 -0.2449 -4.1709 -1.5484
  145DOPC  H13B17179   5.121   5.690  17.741 -0.2964 -0.8437 -0.0231
  145DOPC  H13C17180   5.105   5.561  17.626  1.8509 -0.8677  2.1394
  145DOPC   C1417181   4.917   5.764  17.586 -0.1776 -0.0531 -0.1989
  145DOPC  H14A17182   4.858   5.814  17.510 -1.4697  0.3843  1.0489
  145DOPC  H14B17183   4.872   5.666  17.595  1.4478 -0.7426  0.9653
  145DOPC  H14C17184   4.900   5.816  17.679  1.2204  3.4823 -1.7366
  145DOPC   C1517185   5.126   5.893  17.564  0.2106 -0.4906 -0.4435
  145DOPC  H15A17186   5.075   5.973  17.513  1.0998 -0.2054 -0.9053
  145DOPC  H15B17187   5.227   5.890  17.524  0.2054 -0.9073 -0.4335
  145DOPC  H15C17188   5.131   5.914  17.670 -0.1929  0.9440 -0.6962
  145DOPC   C1117189   5.026   5.592  17.351 -0.5991 -0.3664  0.0443
  145DOPC  H11A17190   4.996   5.520  17.430  1.3171 -0.1162  1.0563
  145DOPC  H11B17191   4.933   5.596  17.291 -1.1580  1.3767  0.9267
  145DOPC     P17192   5.196   5.595  17.134  0.5572  0.0307 -0.4031
  145DOPC   O1317193   5.280   5.485  17.078  0.4022  0.2476 -0.6696
  145DOPC   O1417194   5.269   5.720  17.179 -0.4936  0.0009 -0.7533
  145DOPC   O1217195   5.123   5.539  17.264  0.2938 -0.7924  0.5504
  145DOPC   O1117196   5.082   5.631  17.033  0.4883  0.0219  0.1997
  145DOPC    C117197   4.977   5.553  16.990 -0.4521 -0.0051 -0.3491
  145DOPC    HA17198   4.891   5.555  17.061  0.1979  1.6028  0.4165
  145DOPC    HB17199   5.006   5.446  16.985  0.1482  0.1591 -0.3779
  145DOPC    C217200   4.933   5.592  16.842 -0.0834  0.2904  0.1472
  145DOPC    HS17201   4.850   5.526  16.806  0.8931  0.0873 -1.8945
  145DOPC   O2117202   5.048   5.590  16.753 -0.1188 -0.3571  0.0246
  145DOPC   C2117203   5.125   5.490  16.741 -0.3956  0.1212  0.0450
  145DOPC   O2217204   5.119   5.381  16.796 -0.0291 -0.1783  0.2265
  145DOPC   C2217205   5.229   5.521  16.632  0.9813 -0.5198 -0.5764
  145DOPC   H2R17206   5.332   5.514  16.674  0.9155  0.0427 -0.3091
  145DOPC   H2S17207   5.212   5.623  16.592 -2.5208 -0.8749 -0.3214
  145DOPC    C317208   4.879   5.734  16.841  0.5426 -0.3296  0.5830
  145DOPC    HX17209   4.953   5.802  16.886 -0.0371  0.8024 -0.1441
  145DOPC    HY17210   4.793   5.743  16.911  1.7726  3.5217  1.8332
  145DOPC   O3117211   4.840   5.770  16.708  0.3661 -0.6019 -0.6442
  145DOPC   C3117212   4.920   5.855  16.649  0.4442 -0.1275 -0.1572
  145DOPC   O3217213   5.013   5.920  16.701  0.0800  0.0263  0.0402
  145DOPC   C3217214   4.872   5.872  16.498  0.0250 -0.2251 -0.2797
  145DOPC   H2X17215   4.763   5.856  16.488  0.3509 -1.7040 -1.7281
  145DOPC   H2Y17216   4.879   5.982  16.479 -1.5300  0.2958  1.7937
  145DOPC   C2317217   5.217   5.418  16.520  0.1448  0.3057  0.7700
  145DOPC   H3R17218   5.108   5.407  16.499  0.1404  1.4779  0.0892
  145DOPC   H3S17219   5.258   5.317  16.544  0.0702 -0.0137 -0.3942
  145DOPC   C2417220   5.294   5.461  16.390  0.2255 -0.1460  0.6560
  145DOPC   H4R17221   5.403   5.480  16.405  1.0137 -2.3721 -1.6272
  145DOPC   H4S17222   5.253   5.560  16.359  1.2803 -0.3928 -1.7918
  145DOPC   C2517223   5.263   5.358  16.273  0.0118 -0.1362 -0.4342
  145DOPC   H5R17224   5.152   5.344  16.270  0.2604 -2.5734 -0.0704
  145DOPC   H5S17225   5.295   5.256  16.304 -0.4335  0.5483  2.6133
  145DOPC   C2617226   5.321   5.391  16.138  0.2291 -0.0761  1.2574
  145DOPC   H6R17227   5.290   5.317  16.061  0.4197  1.1929 -0.1006
  145DOPC   H6S17228   5.432   5.388  16.134  0.2409 -0.1231 -2.7334
  145DOPC   C2717229   5.261   5.521  16.086  0.0270  0.6874 -1.3176
  145DOPC   H7R17230   5.290   5.605  16.153 -2.0756 -0.4642  1.2164
  145DOPC   H7S17231   5.151   5.513  16.101  0.3076  1.1299  1.5065
  145DOPC   C2817232   5.289   5.553  15.944  0.1788  0.1015  0.1081
  145DOPC   H8R17233   5.263   5.466  15.880 -1.2936  0.1872  0.5559
  145DOPC   H8S17234   5.400   5.558  15.940  0.1089  1.1697 -1.6348
  145DOPC   C2917235   5.232   5.680  15.887  0.3332  0.0298  0.2135
  145DOPC   H9R17236   5.290   5.762  15.932  1.6231 -0.9211  0.3407
  145DOPC  C21017237   5.145   5.707  15.789 -0.4266 -0.2187 -0.6914
  145DOPC  H10R17238   5.128   5.814  15.771 -1.8207  0.1809  2.3022
  145DOPC  C21117239   5.074   5.602  15.713  0.0906 -0.1165 -0.5314
  145DOPC  H11R17240   4.968   5.634  15.716  0.4928  1.2439 -0.1651
  145DOPC  H11S17241   5.083   5.507  15.770 -1.2488  0.1591  0.1772
  145DOPC  C21217242   5.134   5.595  15.572 -1.0497  0.1419 -0.0741
  145DOPC  H12R17243   5.245   5.597  15.569 -1.0605  0.6636 -0.2950
  145DOPC  H12S17244   5.118   5.695  15.525  0.3036 -0.1386 -1.1866
  145DOPC  C21317245   5.080   5.482  15.479  0.1317  0.0977  0.2398
  145DOPC  H13R17246   5.109   5.380  15.512 -0.4991 -0.7962 -1.8188
  145DOPC  H13S17247   5.106   5.505  15.373  0.7297 -0.9072  0.1571
  145DOPC  C21417248   4.925   5.469  15.472  0.4603 -0.0617 -0.6118
  145DOPC  H14R17249   4.882   5.478  15.573  1.5261 -0.0537 -0.1460
  145DOPC  H14S17250   4.902   5.369  15.427  0.9141 -0.3369 -0.2356
  145DOPC  C21517251   4.849   5.570  15.390 -0.1526 -0.1307  0.4425
  145DOPC  H15R17252   4.911   5.593  15.301  1.1776 -0.4987  1.2531
  145DOPC  H15S17253   4.861   5.662  15.450  0.0184 -0.4162  0.8480
  145DOPC  C21617254   4.711   5.520  15.353 -0.8483  0.4906 -0.2908
  145DOPC  H16R17255   4.669   5.469  15.442 -0.7148 -0.4018 -0.7328
  145DOPC  H16S17256   4.733   5.451  15.269 -0.9089  0.3715 -0.2100
  145DOPC  C21717257   4.629   5.639  15.314  0.1184 -0.0214 -0.4094
  145DOPC  H17R17258   4.675   5.675  15.220  1.2198  0.2919  0.2373
  145DOPC  H17S17259   4.628   5.720  15.390  0.0005 -0.7806  0.4141
  145DOPC  C21817260   4.489   5.589  15.283  0.3110 -0.1273  0.5765
  145DOPC  H18R17261   4.437   5.547  15.371 -1.2238  1.6152  0.5756
  145DOPC  H18S17262   4.488   5.508  15.207 -3.4737  2.2686 -2.3337
  145DOPC  H18T17263   4.421   5.669  15.246  0.6012  0.2843  0.9238
  145DOPC   C3317264   4.959   5.796  16.392 -1.1239  0.1959 -0.7145
  145DOPC   H3X17265   4.956   5.696  16.439  1.7659 -0.1396 -1.0494
  145DOPC   H3Y17266   5.060   5.842  16.398 -1.0675  0.1460 -1.2327
  145DOPC   C3417267   4.921   5.789  16.245  0.2212 -0.0221  0.0427
  145DOPC   H4X17268   4.827   5.730  16.244  0.2375 -0.0468 -0.1931
  145DOPC   H4Y17269   5.002   5.726  16.200 -0.6427 -1.1158 -0.0280
  145DOPC   C3517270   4.901   5.924  16.183  0.1210  0.2798 -0.2868
  145DOPC   H5X17271   4.981   5.994  16.216 -0.8225  1.0372  0.4648
  145DOPC   H5Y17272   4.809   5.970  16.227  1.6666  0.4920  3.0302
  145DOPC   C3617273   4.890   5.926  16.030 -0.6494 -0.0628  0.0602
  145DOPC   H6X17274   4.868   6.032  16.007  0.3880  0.4524  1.2779
  145DOPC   H6Y17275   4.989   5.907  15.982 -0.7262  1.8845 -0.9375
  145DOPC   C3717276   4.765   5.852  15.976  0.5769  0.4466 -0.4545
  145DOPC   H7X17277   4.791   5.749  16.010  2.7585  1.7199  2.1475
  145DOPC   H7Y17278   4.672   5.889  16.024  1.1883  3.4593 -1.4317
  145DOPC   C3817279   4.729   5.853  15.829  0.5974  0.7651 -0.4951
  145DOPC   H8X17280   4.645   5.785  15.805  0.0939  1.9591 -2.3406
  145DOPC   H8Y17281   4.812   5.803  15.775  0.2778  0.8982 -1.1156
  145DOPC   C3917282   4.698   5.995  15.780  0.3644 -0.6614  0.0369
  145DOPC   H9X17283   4.600   6.034  15.809  0.7461 -0.7716  1.5819
  145DOPC  C31017284   4.775   6.064  15.692  0.0715 -0.1057  0.0255
  145DOPC  H10X17285   4.733   6.160  15.658 -1.5386 -0.7481  0.1253
  145DOPC  C31117286   4.927   6.057  15.654  0.1449 -0.3324  0.0957
  145DOPC  H11X17287   4.978   5.990  15.726  0.8807  0.3158  0.1978
  145DOPC  H11Y17288   4.977   6.154  15.673  0.9038 -0.7612  0.3259
  145DOPC  C31217289   4.961   6.024  15.507  0.7169  0.0087  0.5821
  145DOPC  H12X17290   4.923   6.111  15.450  0.6994 -0.1452  0.3587
  145DOPC  H12Y17291   4.891   5.943  15.477  0.6068  0.9054 -1.8084
  145DOPC  C31317292   5.105   6.000  15.477 -0.2689  0.2395 -0.5849
  145DOPC  H13X17293   5.151   6.101  15.478  1.9070 -0.6874 -1.2307
  145DOPC  H13Y17294   5.144   5.939  15.561 -0.8596  0.4667 -0.1337
  145DOPC  C31417295   5.138   5.939  15.339  0.2453  0.8205  0.0574
  145DOPC  H14X17296   5.090   5.840  15.342 -1.2721  1.5229  3.4631
  145DOPC  H14Y17297   5.098   6.007  15.261  0.3813 -0.8302 -1.5092
  145DOPC  C31517298   5.287   5.916  15.311 -0.4469  0.2595  0.0273
  145DOPC  H15X17299   5.310   5.881  15.207  0.5921 -1.8444  0.8967
  145DOPC  H15Y17300   5.320   5.835  15.379 -1.4107  0.1298  0.3595
  145DOPC  C31617301   5.375   6.036  15.348 -0.2292  0.5850  0.2310
  145DOPC  H16X17302   5.341   6.130  15.300  0.0448  0.3837 -0.3673
  145DOPC  H16Y17303   5.369   6.047  15.458 -3.3397 -0.8185  0.2882
  145DOPC  C31717304   5.521   6.016  15.312  0.4533 -0.0140  0.1287
  145DOPC  H17X17305   5.559   5.958  15.399  1.1707  0.6725  0.2866
  145DOPC  H17Y17306   5.528   5.961  15.216 -1.5083  1.1786 -0.7589
  145DOPC  C31817307   5.585   6.150  15.279 -0.5804  0.4685  0.2957
  145DOPC  H18X17308   5.536   6.176  15.182  1.7184  0.9471 -0.8134
  145DOPC  H18Y17309   5.567   6.234  15.350  0.4512  4.2699 -3.4866
  145DOPC  H18Z17310   5.696   6.149  15.275 -0.5647 -0.6659  0.8325
  146DOPC     N17311   6.443   3.189  17.547 -0.2280  0.2155 -0.2609
  146DOPC   C1217312   6.467   3.154  17.402  0.0238  0.2229  0.1977
  146DOPC  H12A17313   6.504   3.053  17.402  0.0676  0.1860  2.2685
  146DOPC  H12B17314   6.541   3.222  17.363 -1.4300  1.2961 -0.8178
  146DOPC   C1317315   6.582   3.194  17.616 -1.1080 -0.1043  0.6377
  146DOPC  H13A17316   6.636   3.281  17.580  0.2479 -1.6148 -1.1532
  146DOPC  H13B17317   6.569   3.210  17.722  0.2221  1.9198  0.5618
  146DOPC  H13C17318   6.641   3.109  17.586 -1.6725 -0.6293  0.9881
  146DOPC   C1417319   6.360   3.081  17.614 -0.0151 -0.0774  0.4689
  146DOPC  H14A17320   6.373   2.986  17.564 -2.4280  0.0905 -0.6174
  146DOPC  H14B17321   6.384   3.079  17.719  0.2346  0.8931  0.4391
  146DOPC  H14C17322   6.254   3.098  17.607 -0.4140 -1.4619  2.2509
  146DOPC   C1517323   6.379   3.324  17.569  0.6221  0.0240 -1.2036
  146DOPC  H15A17324   6.273   3.306  17.569  1.0591 -3.3237  0.3197
  146DOPC  H15B17325   6.406   3.394  17.491 -1.2088  0.6999 -1.2868
  146DOPC  H15C17326   6.401   3.369  17.665  1.2200 -0.8786 -0.9026
  146DOPC   C1117327   6.344   3.161  17.313 -0.0090  0.0918 -0.2191
  146DOPC  H11A17328   6.326   3.271  17.302 -0.5012 -0.0814 -1.3728
  146DOPC  H11B17329   6.372   3.128  17.211  0.0604  0.5190 -0.3399
  146DOPC     P17330   6.219   2.936  17.304 -0.1292  0.1199  0.1454
  146DOPC   O1317331   6.120   2.865  17.389  0.3195 -0.2348  0.3871
  146DOPC   O1417332   6.350   2.870  17.302  0.3117 -0.1740  0.2019
  146DOPC   O1217333   6.224   3.091  17.353 -0.4127  0.1057  0.0770
  146DOPC   O1117334   6.171   2.949  17.157  0.1754  0.4300  0.1902
  146DOPC    C117335   6.072   3.047  17.118  0.6725  0.0808  0.5872
  146DOPC    HA17336   6.084   3.143  17.172 -1.0528  0.3629  0.5403
  146DOPC    HB17337   5.970   3.010  17.139  0.9827 -0.4089  1.2452
  146DOPC    C217338   6.089   3.076  16.959  0.3082  0.2921 -0.9873
  146DOPC    HS17339   6.016   3.158  16.939  2.3477  2.7040  0.7126
  146DOPC   O2117340   6.064   2.953  16.890  0.1326  0.0250  0.3880
  146DOPC   C2117341   6.012   2.961  16.767 -0.4642 -0.7456  1.1076
  146DOPC   O2217342   5.986   3.068  16.717  0.4003  0.2741 -0.0666
  146DOPC   C2217343   5.981   2.825  16.702  0.0924  0.1409  0.2478
  146DOPC   H2R17344   5.892   2.790  16.759  1.0927 -0.3868  1.5164
  146DOPC   H2S17345   6.065   2.758  16.730 -0.9362 -1.9594 -1.3969
  146DOPC    C317346   6.241   3.127  16.936 -0.3865  0.0037  0.2501
  146DOPC    HX17347   6.305   3.039  16.957 -0.3878 -0.5126 -1.6568
  146DOPC    HY17348   6.268   3.203  17.012  1.8569 -0.1205 -0.3696
  146DOPC   O3117349   6.267   3.172  16.802 -0.0113  0.0053 -0.0430
  146DOPC   C3117350   6.206   3.286  16.764  0.6188 -0.1658 -0.3323
  146DOPC   O3217351   6.127   3.350  16.832  0.3824 -0.0952  0.3873
  146DOPC   C3217352   6.256   3.321  16.628 -0.4101  0.5127 -0.1630
  146DOPC   H2X17353   6.310   3.418  16.639 -0.9273  1.0609 -2.0561
  146DOPC   H2Y17354   6.327   3.245  16.590 -0.4117  0.6430 -0.4315
  146DOPC   C2317355   5.953   2.815  16.545 -0.4647  0.1975  0.2455
  146DOPC   H3R17356   5.870   2.876  16.505  0.6481  0.3711 -1.9206
  146DOPC   H3S17357   5.939   2.708  16.518 -0.2076 -0.2560  1.7789
  146DOPC   C2417358   6.088   2.863  16.469  0.2589 -0.4140  0.2869
  146DOPC   H4R17359   6.167   2.798  16.511  0.0394 -0.8820 -0.0132
  146DOPC   H4S17360   6.106   2.972  16.482  0.8959 -0.3819 -0.7199
  146DOPC   C2517361   6.089   2.830  16.316 -0.9351 -0.4007  0.2290
  146DOPC   H5R17362   6.002   2.895  16.289 -0.0100  1.2526  1.0462
  146DOPC   H5S17363   6.076   2.722  16.294  1.0203 -0.5141 -0.5680
  146DOPC   C2617364   6.205   2.888  16.237  0.0022  0.5718  0.1990
  146DOPC   H6R17365   6.298   2.832  16.261 -1.0903 -1.0601  0.8239
  146DOPC   H6S17366   6.227   2.995  16.257  0.7646  1.0768 -2.8277
  146DOPC   C2717367   6.176   2.875  16.081 -0.6522  0.3837  0.0905
  146DOPC   H7R17368   6.104   2.950  16.043  0.1314  0.6471 -0.9098
  146DOPC   H7S17369   6.119   2.780  16.066 -1.3932  0.9046 -0.4338
  146DOPC   C2817370   6.299   2.866  15.991 -0.5753 -0.0537 -0.1363
  146DOPC   H8R17371   6.347   2.766  16.009 -0.0417  0.2334  0.0764
  146DOPC   H8S17372   6.370   2.944  16.027  1.2527 -0.8506 -1.7758
  146DOPC   C2917373   6.259   2.888  15.846 -0.1460 -0.4641  0.4090
  146DOPC   H9R17374   6.226   2.992  15.828 -0.7690 -0.5884  0.7912
  146DOPC  C21017375   6.267   2.800  15.743  0.1293 -0.3755  0.1654
  146DOPC  H10R17376   6.251   2.843  15.643 -2.0044  1.7015  1.3041
  146DOPC  C21117377   6.316   2.659  15.754 -0.0028 -0.0865 -0.1504
  146DOPC  H11R17378   6.296   2.627  15.859 -1.7719  2.7901  0.5018
  146DOPC  H11S17379   6.426   2.655  15.740 -0.0336  1.4351 -1.0381
  146DOPC  C21217380   6.268   2.561  15.643 -0.5101  0.2865  0.0054
  146DOPC  H12R17381   6.160   2.546  15.662 -0.1825 -2.4538  0.1596
  146DOPC  H12S17382   6.317   2.462  15.657 -0.6355  0.2220 -0.0054
  146DOPC  C21317383   6.301   2.610  15.503  0.6663 -0.4684 -0.5044
  146DOPC  H13R17384   6.408   2.607  15.473  0.6438 -0.8303 -0.5602
  146DOPC  H13S17385   6.262   2.712  15.486 -1.4960 -0.7084  2.2749
  146DOPC  C21417386   6.232   2.526  15.398  0.1545  0.7971  0.4154
  146DOPC  H14R17387   6.217   2.590  15.308 -0.6685  1.1686  0.8042
  146DOPC  H14S17388   6.129   2.505  15.433 -0.3071  0.1468 -1.2380
  146DOPC  C21517389   6.310   2.397  15.350  0.4263 -0.1347 -0.2566
  146DOPC  H15R17390   6.283   2.317  15.422  1.1637 -0.6657 -0.5540
  146DOPC  H15S17391   6.419   2.417  15.338  0.3722  0.2502 -0.1340
  146DOPC  C21617392   6.258   2.359  15.214 -0.7316  0.3755  0.3609
  146DOPC  H16R17393   6.302   2.438  15.149  0.3161 -0.2032  0.3481
  146DOPC  H16S17394   6.147   2.362  15.208 -0.7935 -2.4419 -2.3061
  146DOPC  C21717395   6.296   2.220  15.163  0.2296 -0.5858  0.1833
  146DOPC  H17R17396   6.279   2.148  15.246  0.7025  1.5246  2.2280
  146DOPC  H17S17397   6.405   2.230  15.150  0.2793  0.0774  0.9992
  146DOPC  C21817398   6.227   2.188  15.025  0.6436 -0.0628 -0.7447
  146DOPC  H18R17399   6.117   2.192  15.033  0.2959 -0.6204 -3.9139
  146DOPC  H18S17400   6.274   2.092  14.995  3.4795  0.1954  2.2403
  146DOPC  H18T17401   6.251   2.262  14.946 -1.4958  0.6784 -0.7370
  146DOPC   C3317402   6.144   3.328  16.521 -0.5074  0.3952 -0.8341
  146DOPC   H3X17403   6.078   3.416  16.536  0.1920  1.0292 -1.3709
  146DOPC   H3Y17404   6.081   3.240  16.543  0.4750  0.0329  0.6551
  146DOPC   C3417405   6.221   3.310  16.383  0.4094  0.2342 -0.7698
  146DOPC   H4X17406   6.274   3.212  16.388 -0.6288 -0.3375 -0.7551
  146DOPC   H4Y17407   6.294   3.394  16.379  1.2530 -0.4113  0.3563
  146DOPC   C3517408   6.143   3.314  16.254  0.0184  0.3242  0.6649
  146DOPC   H5X17409   6.210   3.274  16.175  0.7478  1.6383  0.5897
  146DOPC   H5Y17410   6.125   3.420  16.228 -1.0690 -0.3478 -1.5356
  146DOPC   C3617411   6.016   3.231  16.262  0.7192 -0.0909  0.5426
  146DOPC   H6X17412   6.026   3.134  16.315 -1.3356 -0.0739  1.0352
  146DOPC   H6Y17413   5.939   3.288  16.319 -2.4517 -1.0246 -2.4212
  146DOPC   C3717414   5.960   3.206  16.128  0.3557  0.2031  0.4541
  146DOPC   H7X17415   5.938   3.291  16.060 -0.5962 -0.8568 -0.6283
  146DOPC   H7Y17416   6.039   3.138  16.089  1.1519  0.8278  0.9422
  146DOPC   C3817417   5.835   3.108  16.121  0.1886 -0.3417 -0.0797
  146DOPC   H8X17418   5.763   3.158  16.188 -0.0396 -1.8484  0.8475
  146DOPC   H8Y17419   5.852   3.011  16.173 -0.7928 -0.5322 -0.0941
  146DOPC   C3917420   5.781   3.086  15.987 -0.7961  0.2189  0.0514
  146DOPC   H9X17421   5.737   3.178  15.945 -1.8214 -0.5636 -0.6504
  146DOPC  C31017422   5.759   2.973  15.920  0.1831  0.6896 -0.0149
  146DOPC  H10X17423   5.720   2.984  15.818 -0.0799 -0.8818 -0.1037
  146DOPC  C31117424   5.782   2.830  15.965  0.2810  0.1878  0.4338
  146DOPC  H11X17425   5.694   2.762  15.954  1.3273 -0.8557 -2.4037
  146DOPC  H11Y17426   5.834   2.819  16.062  3.2479  0.0696 -1.0525
  146DOPC  C31217427   5.873   2.771  15.856  0.7047  0.5638  0.6286
  146DOPC  H12X17428   5.958   2.841  15.841  0.6291  0.7651  1.1133
  146DOPC  H12Y17429   5.820   2.771  15.759 -0.4483  0.5818  1.2388
  146DOPC  C31317430   5.932   2.636  15.882 -0.2394 -0.8694 -0.3189
  146DOPC  H13X17431   5.979   2.595  15.790 -0.0002 -1.5322  0.0924
  146DOPC  H13Y17432   6.012   2.651  15.957 -0.6987  0.6084 -0.0976
  146DOPC  C31417433   5.844   2.522  15.931  0.5531 -1.0136 -0.2625
  146DOPC  H14X17434   5.761   2.558  15.995  0.8189  2.1395 -1.5441
  146DOPC  H14Y17435   5.805   2.463  15.845  0.9390  0.1076 -1.2238
  146DOPC  C31517436   5.921   2.422  16.020 -0.0041 -0.2610  0.4470
  146DOPC  H15X17437   5.851   2.342  16.049  0.9370 -2.4906 -2.8442
  146DOPC  H15Y17438   5.974   2.460  16.110  0.7038 -1.8066  0.7118
  146DOPC  C31617439   6.036   2.339  15.937 -0.2353 -0.6109 -0.3886
  146DOPC  H16X17440   6.110   2.410  15.894  0.8057 -1.4036  0.0743
  146DOPC  H16Y17441   6.074   2.270  16.014 -0.7352  1.0022  1.4033
  146DOPC  C31717442   5.971   2.251  15.828  0.3153 -0.4045 -0.4521
  146DOPC  H17X17443   5.993   2.147  15.861  0.8792 -0.0095  0.4778
  146DOPC  H17Y17444   5.861   2.259  15.830  0.3895  0.8880 -0.7365
  146DOPC  C31817445   6.029   2.271  15.685 -0.3208  0.5793  0.6922
  146DOPC  H18X17446   6.026   2.376  15.650 -0.1272  0.7291  1.1153
  146DOPC  H18Y17447   6.137   2.247  15.675 -0.6140  0.0674 -2.1791
  146DOPC  H18Z17448   5.958   2.217  15.618  1.8677 -2.6760  0.7689
  147DOPC     N17449   3.758   3.261  16.956  0.0113  0.4741  0.2404
  147DOPC   C1217450   3.658   3.231  17.063  0.1228 -0.1745 -0.1550
  147DOPC  H12A17451   3.624   3.326  17.103 -1.2007 -0.3418 -0.7973
  147DOPC  H12B17452   3.699   3.186  17.152 -1.4693 -1.0272  0.1965
  147DOPC   C1317453   3.878   3.328  17.012 -0.4075  0.2423 -0.2145
  147DOPC  H13A17454   3.958   3.275  17.061 -1.8758  0.3933  2.5207
  147DOPC  H13B17455   3.940   3.361  16.930  0.4362  0.9667  0.7066
  147DOPC  H13C17456   3.861   3.413  17.076 -1.9785 -0.9074  0.9890
  147DOPC   C1417457   3.693   3.345  16.852 -0.2955  0.1312  0.2817
  147DOPC  H14A17458   3.763   3.391  16.783  1.1202 -0.2491  1.4127
  147DOPC  H14B17459   3.616   3.280  16.812 -0.8177 -0.5653  2.2707
  147DOPC  H14C17460   3.643   3.426  16.902 -1.6940  0.5169 -1.6170
  147DOPC   C1517461   3.800   3.132  16.882 -0.0929 -0.1897 -0.3341
  147DOPC  H15A17462   3.718   3.081  16.834  0.1119 -0.2453 -0.6279
  147DOPC  H15B17463   3.853   3.064  16.947  1.9014  2.1805  0.6804
  147DOPC  H15C17464   3.871   3.157  16.804  2.2486 -2.2421  0.9696
  147DOPC   C1117465   3.529   3.150  17.035 -0.4117 -0.0144  0.6781
  147DOPC  H11A17466   3.528   3.148  16.923  0.1080  0.4080  0.6619
  147DOPC  H11B17467   3.546   3.051  17.083  2.1114 -0.0346 -0.0568
  147DOPC     P17468   3.288   3.145  17.112 -0.0128  0.1057 -0.1959
  147DOPC   O1317469   3.190   3.248  17.159  0.0581  0.0223 -0.0905
  147DOPC   O1417470   3.312   3.028  17.207  0.0851 -0.3081  0.3947
  147DOPC   O1217471   3.419   3.223  17.094 -0.5147  0.2804  0.5095
  147DOPC   O1117472   3.251   3.083  16.972  0.3398 -0.0475  0.2755
  147DOPC    C117473   3.121   3.031  16.949  0.4458 -0.6887 -0.5838
  147DOPC    HA17474   3.037   3.091  16.992  1.5577  1.9151 -1.8069
  147DOPC    HB17475   3.106   2.934  17.001 -0.5799 -0.5376 -0.5778
  147DOPC    C217476   3.073   3.031  16.797 -0.1595 -0.1272 -0.2503
  147DOPC    HS17477   2.963   3.037  16.788  0.0314  2.9249 -1.9870
  147DOPC   O2117478   3.123   2.914  16.732 -0.3716 -0.2228  0.8055
  147DOPC   C2117479   3.053   2.794  16.740  0.3828  0.0191 -0.3788
  147DOPC   O2217480   2.950   2.788  16.806  0.1804  0.2049 -0.3751
  147DOPC   C2217481   3.128   2.688  16.677 -1.1348 -0.1386  0.6655
  147DOPC   H2R17482   3.169   2.617  16.751  0.9005  0.6169  0.3295
  147DOPC   H2S17483   3.212   2.731  16.619 -2.1219  0.3795 -0.4209
  147DOPC    C317484   3.133   3.153  16.732  0.1002  0.0020 -0.5616
  147DOPC    HX17485   3.241   3.136  16.715 -0.0571  0.1565 -1.8024
  147DOPC    HY17486   3.132   3.241  16.800  0.1150 -1.5631  1.5785
  147DOPC   O3117487   3.075   3.166  16.603 -0.1757  0.0289  0.2416
  147DOPC   C3117488   2.973   3.254  16.589  0.5542  0.2989 -0.0673
  147DOPC   O3217489   2.927   3.322  16.681 -0.0323 -0.8338  0.0438
  147DOPC   C3217490   2.922   3.239  16.445  0.1021  0.0425  0.3710
  147DOPC   H2X17491   3.014   3.220  16.385  0.0876  2.1488 -0.4108
  147DOPC   H2Y17492   2.864   3.144  16.443  2.2385 -1.3340  0.0971
  147DOPC   C2317493   3.043   2.612  16.581  0.4820 -0.3361 -0.6786
  147DOPC   H3R17494   2.962   2.560  16.638  0.4208  0.6060  0.1206
  147DOPC   H3S17495   3.106   2.537  16.530  1.4504  0.5455 -0.8090
  147DOPC   C2417496   2.973   2.699  16.478  0.7268  0.5171  0.6223
  147DOPC   H4R17497   2.901   2.766  16.528  1.4117  0.4036  1.7850
  147DOPC   H4S17498   2.914   2.639  16.405  1.1890  0.2331  0.4757
  147DOPC   C2517499   3.066   2.791  16.397  0.1892 -0.8136 -0.3472
  147DOPC   H5R17500   3.166   2.745  16.405  1.9673  2.8316  0.6874
  147DOPC   H5S17501   3.067   2.896  16.435  1.8152 -0.8850 -0.1346
  147DOPC   C2617502   3.017   2.797  16.246  0.0964  0.1078  0.4227
  147DOPC   H6R17503   3.000   2.693  16.211 -0.7524  0.2083  0.5097
  147DOPC   H6S17504   3.097   2.846  16.185  1.6047 -1.0173  1.4260
  147DOPC   C2717505   2.889   2.877  16.226  0.5668  0.1753 -0.6331
  147DOPC   H7R17506   2.919   2.984  16.223  0.7168  0.2000  1.0724
  147DOPC   H7S17507   2.815   2.858  16.306 -2.0528 -1.9058 -3.3174
  147DOPC   C2817508   2.815   2.845  16.093 -0.3719 -0.5552  0.3186
  147DOPC   H8R17509   2.735   2.919  16.067 -0.6912 -1.0104 -0.0223
  147DOPC   H8S17510   2.767   2.746  16.103 -3.4977  0.6598 -1.1906
  147DOPC   C2917511   2.905   2.852  15.962  0.6245  0.1929 -0.3749
  147DOPC   H9R17512   2.997   2.793  15.971 -0.5801 -1.5740  1.1171
  147DOPC  C21017513   2.890   2.934  15.858  0.3828  0.3138  0.5171
  147DOPC  H10R17514   2.971   2.927  15.784  0.3139  2.5032  0.1552
  147DOPC  C21117515   2.768   3.024  15.827 -0.1231 -0.2640  0.0256
  147DOPC  H11R17516   2.709   3.047  15.918  1.9769 -0.1674  1.4395
  147DOPC  H11S17517   2.699   2.971  15.757  1.1984 -2.1407  0.0467
  147DOPC  C21217518   2.818   3.153  15.749 -0.3156 -0.2360  0.2826
  147DOPC  H12R17519   2.889   3.115  15.672 -0.4510  0.1013 -0.0118
  147DOPC  H12S17520   2.873   3.212  15.825  0.3802 -0.1033 -0.3060
  147DOPC  C21317521   2.700   3.234  15.678  0.5176 -0.0318  0.4393
  147DOPC  H13R17522   2.638   3.278  15.760 -0.2240  0.5033 -0.3882
  147DOPC  H13S17523   2.637   3.169  15.614  1.1648 -2.1598  1.8695
  147DOPC  C21417524   2.748   3.357  15.597 -0.0781 -0.3469  0.5599
  147DOPC  H14R17525   2.827   3.322  15.526  1.0254  1.2587  0.9447
  147DOPC  H14S17526   2.797   3.430  15.666  0.4652  0.0977 -0.2767
  147DOPC  C21517527   2.638   3.440  15.524  0.1430 -0.6945 -0.7222
  147DOPC  H15R17528   2.596   3.390  15.434  0.6228 -1.1136 -0.7171
  147DOPC  H15S17529   2.687   3.537  15.500  0.2229  0.0062  1.9311
  147DOPC  C21617530   2.515   3.476  15.620  0.4228  0.4520 -0.2870
  147DOPC  H16R17531   2.568   3.503  15.714 -0.3811 -2.1740  1.0187
  147DOPC  H16S17532   2.449   3.388  15.638 -1.0396  1.3928 -0.7771
  147DOPC  C21717533   2.429   3.604  15.591  0.3855  0.2093  0.3055
  147DOPC  H17R17534   2.491   3.696  15.581 -0.4939  0.5634 -2.9065
  147DOPC  H17S17535   2.356   3.616  15.674  1.2565  0.3224  1.0840
  147DOPC  C21817536   2.356   3.608  15.454 -0.5578 -0.1749 -0.5102
  147DOPC  H18R17537   2.297   3.517  15.433 -0.6851 -0.1272 -0.3585
  147DOPC  H18S17538   2.414   3.629  15.361 -2.9418 -1.2875 -2.3587
  147DOPC  H18T17539   2.281   3.689  15.463 -1.2832 -0.9526  0.7722
  147DOPC   C3317540   2.864   3.375  16.387 -0.7453  0.5427  0.4727
  147DOPC   H3X17541   2.915   3.464  16.430  0.0948  0.5581 -0.5408
  147DOPC   H3Y17542   2.760   3.373  16.427 -0.4828  1.7301  1.2823
  147DOPC   C3417543   2.875   3.389  16.238  0.4853  0.1725  0.3581
  147DOPC   H4X17544   2.813   3.314  16.184  1.1666  1.5296 -2.4884
  147DOPC   H4Y17545   2.975   3.362  16.197  1.0878  0.0957  1.8206
  147DOPC   C3517546   2.817   3.523  16.183  0.2584  0.0641 -0.2174
  147DOPC   H5X17547   2.859   3.620  16.216  1.7643  0.1526 -2.1758
  147DOPC   H5Y17548   2.709   3.523  16.208  0.4545 -3.1850  1.1582
  147DOPC   C3617549   2.811   3.527  16.037 -0.1756  0.1253  0.0429
  147DOPC   H6X17550   2.912   3.518  15.992  0.5201  1.0964  1.3346
  147DOPC   H6Y17551   2.742   3.450  15.997 -2.2125  1.8788  0.0238
  147DOPC   C3717552   2.752   3.656  15.979 -0.3921 -0.6971 -0.2282
  147DOPC   H7X17553   2.812   3.740  16.020  1.8560 -2.7945  1.0525
  147DOPC   H7Y17554   2.768   3.659  15.869  2.0849  0.9291  0.1049
  147DOPC   C3817555   2.605   3.691  16.016 -1.0827  0.1607 -0.1767
  147DOPC   H8X17556   2.612   3.712  16.125 -0.0074  0.3320 -0.2698
  147DOPC   H8Y17557   2.540   3.604  15.992  0.7141 -0.5113 -3.1108
  147DOPC   C3917558   2.556   3.815  15.948 -0.2417  0.3084 -0.4519
  147DOPC   H9X17559   2.555   3.801  15.839  1.6471 -2.1862 -0.2203
  147DOPC  C31017560   2.557   3.939  16.000  0.6783 -0.5264 -0.2579
  147DOPC  H10X17561   2.539   4.028  15.937  0.8126  0.8542  1.5646
  147DOPC  C31117562   2.588   3.961  16.143 -0.1487 -0.3600 -0.2714
  147DOPC  H11X17563   2.541   3.883  16.205 -2.1240  1.1967  0.3021
  147DOPC  H11Y17564   2.540   4.056  16.175 -1.7887 -2.0467  2.6474
  147DOPC  C31217565   2.735   3.998  16.171  0.3347  0.3278 -0.3148
  147DOPC  H12X17566   2.759   4.106  16.165 -0.1255  0.5042  0.7140
  147DOPC  H12Y17567   2.789   3.953  16.085 -1.2764  0.4919 -1.4512
  147DOPC  C31317568   2.792   3.941  16.300  0.3920  0.0226  0.7456
  147DOPC  H13X17569   2.747   3.988  16.390 -1.0991 -0.6985  0.4116
  147DOPC  H13Y17570   2.770   3.832  16.293  0.2697  0.0933 -0.0680
  147DOPC  C31417571   2.952   3.940  16.300  0.3648 -0.1873 -0.0512
  147DOPC  H14X17572   2.986   3.875  16.217  1.0569  0.2358 -0.1048
  147DOPC  H14Y17573   2.982   4.044  16.278  0.6736 -0.3284 -0.3055
  147DOPC  C31517574   3.010   3.878  16.431 -0.1123  0.1320  0.2455
  147DOPC  H15X17575   3.119   3.884  16.409 -0.4398  0.9848 -1.2900
  147DOPC  H15Y17576   2.977   3.772  16.439  0.1310 -0.2059 -2.3325
  147DOPC  C31617577   2.985   3.957  16.560 -0.8687  1.0807  0.5539
  147DOPC  H16X17578   3.004   4.066  16.546  1.1371  0.7186  0.1857
  147DOPC  H16Y17579   2.875   3.950  16.577 -1.0248  0.4784 -0.5634
  147DOPC  C31717580   3.071   3.907  16.682  0.4041  0.5122  0.2767
  147DOPC  H17X17581   3.038   3.802  16.699  1.4484 -0.0691 -1.1364
  147DOPC  H17Y17582   3.179   3.909  16.657  0.2908  0.9707 -0.1708
  147DOPC  C31817583   3.045   3.985  16.811  0.6908  0.2837 -0.2797
  147DOPC  H18X17584   3.097   4.083  16.806  4.0523 -1.3829 -0.3963
  147DOPC  H18Y17585   2.935   3.999  16.810  0.6969  0.3323 -1.0345
  147DOPC  H18Z17586   3.062   3.926  16.903  0.1301 -0.6666 -0.7744
  148DOPC     N17587   4.015   5.755  17.258 -0.0636 -0.3036  0.3316
  148DOPC   C1217588   4.118   5.772  17.148 -0.2448 -0.1537  0.8755
  148DOPC  H12A17589   4.210   5.720  17.171  0.0461  0.6840  1.6842
  148DOPC  H12B17590   4.139   5.876  17.129 -0.1119 -0.2986  0.2111
  148DOPC   C1317591   3.888   5.828  17.217  0.0699 -0.3013  0.5399
  148DOPC  H13A17592   3.822   5.832  17.303 -2.1814 -0.3279 -1.1116
  148DOPC  H13B17593   3.911   5.932  17.199  0.1956 -0.4410 -0.1190
  148DOPC  H13C17594   3.832   5.783  17.136  0.0896  2.0339 -0.8603
  148DOPC   C1417595   4.075   5.822  17.381  0.6894 -0.2069  0.1625
  148DOPC  H14A17596   4.162   5.770  17.419  2.3464  2.0696 -0.3046
  148DOPC  H14B17597   4.100   5.925  17.360 -2.8060  1.2032  2.0695
  148DOPC  H14C17598   4.006   5.833  17.464  1.5833 -0.0296  0.8959
  148DOPC   C1517599   3.991   5.612  17.290  0.0989  0.0160 -0.4660
  148DOPC  H15A17600   3.958   5.562  17.201 -3.0432  0.9367  0.0832
  148DOPC  H15B17601   3.912   5.595  17.361  0.1797 -0.9119 -0.5823
  148DOPC  H15C17602   4.077   5.568  17.338 -0.0850  1.3008  1.1316
  148DOPC   C1117603   4.077   5.705  17.008 -0.7913  0.9330  0.0740
  148DOPC  H11A17604   4.165   5.687  16.942 -0.3245 -0.3372  0.9984
  148DOPC  H11B17605   4.043   5.601  17.029  1.7061 -0.1211 -0.6758
  148DOPC     P17606   3.873   5.717  16.833 -0.2332  0.2508 -0.3760
  148DOPC   O1317607   3.802   5.833  16.771 -0.4746  0.8845  0.0079
  148DOPC   O1417608   3.782   5.633  16.915 -0.4816 -0.2097 -0.1514
  148DOPC   O1217609   3.987   5.781  16.925  0.0070 -0.7383  0.1022
  148DOPC   O1117610   3.954   5.642  16.729 -0.2450 -0.3262  0.1770
  148DOPC    C117611   4.063   5.692  16.657 -0.2613  0.2968 -0.4548
  148DOPC    HA17612   4.160   5.658  16.697  1.2664  1.4254 -2.9364
  148DOPC    HB17613   4.072   5.803  16.666  0.2493  0.2772 -0.6824
  148DOPC    C217614   4.049   5.656  16.503 -0.4216  0.5694  0.2644
  148DOPC    HS17615   4.122   5.725  16.457 -1.2034  2.1501  1.2979
  148DOPC   O2117616   3.914   5.676  16.461 -0.3151  0.1363 -0.0606
  148DOPC   C2117617   3.886   5.802  16.457 -0.1924 -0.6972  0.2034
  148DOPC   O2217618   3.971   5.890  16.472 -0.0208 -0.0435 -0.1115
  148DOPC   C2217619   3.742   5.830  16.439 -0.1906 -0.4347 -0.4760
  148DOPC   H2R17620   3.728   5.911  16.514 -0.3001  0.0505 -1.0149
  148DOPC   H2S17621   3.694   5.733  16.463  0.6792 -0.9357 -0.7008
  148DOPC    C317622   4.084   5.515  16.458  0.4931 -0.3239 -0.2022
  148DOPC    HX17623   4.018   5.445  16.513  1.5103 -0.3460  1.0403
  148DOPC    HY17624   4.189   5.494  16.488  0.2601 -0.8749  0.2479
  148DOPC   O3117625   4.069   5.502  16.317 -0.4829  0.3638  0.2253
  148DOPC   C3117626   4.141   5.563  16.234 -0.3766  0.9970  0.1172
  148DOPC   O3217627   4.225   5.647  16.256  0.4253 -0.2956  0.1114
  148DOPC   C3217628   4.111   5.509  16.095  0.0519  0.4476 -0.4505
  148DOPC   H2X17629   4.078   5.405  16.113  0.2428  0.0855 -1.9753
  148DOPC   H2Y17630   4.029   5.573  16.056  0.4523  0.3425 -1.5217
  148DOPC   C2317631   3.720   5.894  16.300 -0.1305  0.5105 -0.1444
  148DOPC   H3R17632   3.798   5.967  16.272  1.3663 -1.0660 -0.2245
  148DOPC   H3S17633   3.618   5.938  16.309 -0.2374  0.0624  1.0573
  148DOPC   C2417634   3.704   5.791  16.184  0.7889 -0.1910 -0.0199
  148DOPC   H4R17635   3.615   5.728  16.208  0.8670 -0.7802 -1.1692
  148DOPC   H4S17636   3.795   5.729  16.171  0.4345 -0.4680 -1.3304
  148DOPC   C2517637   3.672   5.857  16.051 -0.3510  0.0714 -0.1593
  148DOPC   H5R17638   3.749   5.932  16.025  0.3974 -0.5299  0.2970
  148DOPC   H5S17639   3.570   5.902  16.047 -0.7428 -0.7748 -0.0524
  148DOPC   C2617640   3.676   5.763  15.934  1.0060  0.3171  0.8037
  148DOPC   H6R17641   3.633   5.821  15.849  0.9100 -0.2287  0.4717
  148DOPC   H6S17642   3.606   5.679  15.952  0.5872  0.6643  0.7993
  148DOPC   C2717643   3.819   5.714  15.897 -0.5166 -0.5216 -0.5294
  148DOPC   H7R17644   3.862   5.656  15.981 -2.6107 -1.8831 -0.2956
  148DOPC   H7S17645   3.897   5.787  15.869  2.3614 -3.4468 -0.7134
  148DOPC   C2817646   3.810   5.627  15.770 -0.2388  0.5573 -0.0000
  148DOPC   H8R17647   3.912   5.601  15.735 -0.9998 -2.9923  0.0362
  148DOPC   H8S17648   3.765   5.683  15.685  0.9504 -0.3570 -1.2807
  148DOPC   C2917649   3.738   5.494  15.800 -0.9610 -0.5754  1.0930
  148DOPC   H9R17650   3.782   5.450  15.891  2.0264 -0.3967 -0.1297
  148DOPC  C21017651   3.642   5.430  15.731 -0.4313  0.5268  0.5747
  148DOPC  H10R17652   3.607   5.334  15.770  1.2320 -1.2100 -1.9584
  148DOPC  C21117653   3.573   5.484  15.615 -0.2918  0.6869  0.0275
  148DOPC  H11R17654   3.555   5.594  15.618 -2.8297  0.3363  0.1304
  148DOPC  H11S17655   3.466   5.454  15.618  0.2958 -1.5596  0.5554
  148DOPC  C21217656   3.630   5.434  15.487  0.1853 -0.5928  0.1823
  148DOPC  H12R17657   3.728   5.473  15.453 -0.0503  0.9592  1.1779
  148DOPC  H12S17658   3.559   5.475  15.412  0.6809  0.6029  0.3477
  148DOPC  C21317659   3.634   5.285  15.474  0.7804 -0.5998 -0.3593
  148DOPC  H13R17660   3.540   5.244  15.517  0.7830 -0.8979 -0.6383
  148DOPC  H13S17661   3.722   5.245  15.529 -0.5367 -2.4282  0.4864
  148DOPC  C21417662   3.654   5.236  15.328  0.3424 -0.2873 -0.2481
  148DOPC  H14R17663   3.736   5.295  15.282  0.5060 -0.3961 -0.0951
  148DOPC  H14S17664   3.564   5.263  15.268 -1.2846 -1.3412  1.5888
  148DOPC  C21517665   3.679   5.088  15.312  1.1345 -0.0657  0.1625
  148DOPC  H15R17666   3.580   5.041  15.331 -0.2517  2.1074 -1.2999
  148DOPC  H15S17667   3.746   5.042  15.388 -1.1134 -1.9500  1.1348
  148DOPC  C21617668   3.703   5.051  15.167 -0.5741  0.2757  0.0913
  148DOPC  H16R17669   3.704   4.940  15.161  2.9495  0.1299  0.8451
  148DOPC  H16S17670   3.811   5.071  15.147 -0.7364 -0.4297 -1.7483
  148DOPC  C21717671   3.634   5.117  15.056  0.2232  0.1179  0.5782
  148DOPC  H17R17672   3.652   5.226  15.060  2.2317 -0.1941  1.2884
  148DOPC  H17S17673   3.525   5.105  15.073  0.2137  0.4880  0.7744
  148DOPC  C21817674   3.668   5.059  14.917 -0.2095 -0.4274  0.3259
  148DOPC  H18R17675   3.684   4.949  14.917 -2.9826 -0.8984  0.0323
  148DOPC  H18S17676   3.757   5.107  14.872 -0.4769 -2.0102 -2.1141
  148DOPC  H18T17677   3.591   5.085  14.841 -1.0293 -0.6700  1.0512
  148DOPC   C3317678   4.225   5.518  15.997  0.8400  0.1256 -0.7069
  148DOPC   H3X17679   4.314   5.470  16.043  1.2117  2.5078  1.2810
  148DOPC   H3Y17680   4.251   5.626  15.999  2.2815 -0.2093  0.9286
  148DOPC   C3417681   4.190   5.453  15.863  0.8872  0.2927  0.0240
  148DOPC   H4X17682   4.111   5.517  15.818  0.0081 -1.0722 -0.4341
  148DOPC   H4Y17683   4.146   5.352  15.877  1.1672  0.4889  2.6990
  148DOPC   C3517684   4.306   5.433  15.770  0.3722 -0.4950  0.2284
  148DOPC   H5X17685   4.365   5.527  15.762 -1.0321  0.4724  0.6694
  148DOPC   H5Y17686   4.280   5.422  15.663  0.0461 -0.3395  0.2885
  148DOPC   C3617687   4.402   5.322  15.810 -0.2117 -0.3067 -0.2809
  148DOPC   H6X17688   4.456   5.343  15.905 -0.5642 -1.4620  0.1884
  148DOPC   H6Y17689   4.349   5.227  15.831 -0.1685  0.2225  2.5479
  148DOPC   C3717690   4.503   5.300  15.702 -0.3591  0.8780  0.3044
  148DOPC   H7X17691   4.443   5.308  15.609 -1.1775 -1.5115  0.5631
  148DOPC   H7Y17692   4.583   5.377  15.708  0.7397 -0.1851 -0.1555
  148DOPC   C3817693   4.567   5.152  15.710  0.2093 -0.2846  0.2444
  148DOPC   H8X17694   4.581   5.138  15.819 -3.3219 -0.8587  0.7544
  148DOPC   H8Y17695   4.673   5.162  15.677 -0.0831  3.1676 -0.0027
  148DOPC   C3917696   4.486   5.043  15.643 -0.3794  0.1463  0.7440
  148DOPC   H9X17697   4.380   5.041  15.672  0.0074  0.4701  2.2617
  148DOPC  C31017698   4.534   4.930  15.591  0.5609 -0.4279  0.0829
  148DOPC  H10X17699   4.462   4.867  15.537 -2.9933  1.9787  1.6444
  148DOPC  C31117700   4.679   4.892  15.567  0.5656 -0.6590 -0.4080
  148DOPC  H11X17701   4.682   4.787  15.604 -1.6570 -0.6197  0.0412
  148DOPC  H11Y17702   4.743   4.963  15.623  0.0676  0.9725 -1.8249
  148DOPC  C31217703   4.728   4.903  15.422 -0.1112  0.4559 -0.4030
  148DOPC  H12X17704   4.674   4.831  15.356 -1.4454 -0.1011  1.2269
  148DOPC  H12Y17705   4.835   4.873  15.424  0.5736  2.7070 -0.3240
  148DOPC  C31317706   4.739   5.039  15.346  0.6072  0.4735 -0.6100
  148DOPC  H13X17707   4.638   5.071  15.315  0.4559  0.2495 -0.3590
  148DOPC  H13Y17708   4.792   5.111  15.412  0.7142 -0.7261  0.6799
  148DOPC  C31417709   4.826   5.034  15.216 -0.3000 -0.3067  0.1778
  148DOPC  H14X17710   4.930   5.005  15.242 -0.0212  1.2526  0.8947
  148DOPC  H14Y17711   4.774   4.962  15.148  0.7587  0.0460 -1.0579
  148DOPC  C31517712   4.832   5.172  15.152 -0.0948 -0.0035 -0.1823
  148DOPC  H15X17713   4.855   5.236  15.240 -1.3274 -0.9739  0.8792
  148DOPC  H15Y17714   4.734   5.194  15.105  0.5714 -1.3870 -2.3937
  148DOPC  C31617715   4.944   5.170  15.045 -0.3411  0.1450  0.2135
  148DOPC  H16X17716   5.035   5.126  15.090 -0.8423  0.9628  2.1209
  148DOPC  H16Y17717   4.912   5.102  14.963  2.0391 -0.4818 -0.2764
  148DOPC  C31717718   4.966   5.315  14.981  0.4428 -0.0553 -0.0653
  148DOPC  H17X17719   5.010   5.298  14.881  0.4782 -0.9452  0.0958
  148DOPC  H17Y17720   4.867   5.364  14.970  0.8135  0.9778  0.9136
  148DOPC  C31817721   5.056   5.401  15.073  0.4642 -0.1423  0.3452
  148DOPC  H18X17722   5.006   5.423  15.170 -0.5532  0.4418 -0.2900
  148DOPC  H18Y17723   5.156   5.355  15.084  0.7874 -0.7242 -3.5803
  148DOPC  H18Z17724   5.074   5.503  15.034 -0.8019  0.7977  2.1027
  149DOPC     N17725   3.339   2.502  17.512 -0.0099 -0.6259  0.6352
  149DOPC   C1217726   3.274   2.379  17.466 -0.3738 -0.4697 -0.0495
  149DOPC  H12A17727   3.321   2.345  17.375  0.5094 -1.3218  0.7061
  149DOPC  H12B17728   3.169   2.394  17.446 -0.4822 -0.8679  0.2283
  149DOPC   C1317729   3.485   2.488  17.533  0.3138 -0.7883  0.0983
  149DOPC  H13A17730   3.505   2.455  17.634  1.6235 -1.6073 -0.3973
  149DOPC  H13B17731   3.535   2.429  17.457  0.8170  1.0909 -1.1089
  149DOPC  H13C17732   3.537   2.583  17.528  2.2919 -1.8393 -0.5245
  149DOPC   C1417733   3.265   2.563  17.626 -0.0699 -0.1674 -1.2520
  149DOPC  H14A17734   3.305   2.525  17.720  1.2277  0.0561 -1.6859
  149DOPC  H14B17735   3.293   2.667  17.622  3.5019 -0.6731  2.5967
  149DOPC  H14C17736   3.159   2.544  17.624 -0.2958  1.0018 -1.1098
  149DOPC   C1517737   3.322   2.610  17.409 -0.2824 -0.1042  0.1406
  149DOPC  H15A17738   3.222   2.614  17.369 -0.3745 -0.1550  0.3621
  149DOPC  H15B17739   3.386   2.594  17.324 -1.4978 -0.3699 -0.7573
  149DOPC  H15C17740   3.354   2.709  17.435  2.6680 -0.6678 -0.9869
  149DOPC   C1117741   3.299   2.258  17.552  0.7981  0.2193  0.1827
  149DOPC  H11A17742   3.404   2.225  17.566  0.0878 -1.9168  0.8768
  149DOPC  H11B17743   3.275   2.286  17.657  1.7830  1.2596  0.1581
  149DOPC     P17744   3.065   2.129  17.519 -0.0999 -0.4038  0.3874
  149DOPC   O1317745   2.998   2.261  17.499  0.5378  0.1494  0.0719
  149DOPC   O1417746   3.036   2.050  17.640  0.3979  0.6880 -0.0786
  149DOPC   O1217747   3.224   2.146  17.498  0.1628 -0.5273  0.1930
  149DOPC   O1117748   3.025   2.053  17.384 -0.5252  0.6014 -0.6962
  149DOPC    C117749   3.122   1.957  17.331 -0.2296 -0.1025  0.2219
  149DOPC    HA17750   3.169   1.895  17.410  1.5900  1.5289  0.5086
  149DOPC    HB17751   3.204   2.007  17.275 -1.0532  0.1945 -0.7444
  149DOPC    C217752   3.044   1.863  17.227  0.2887 -0.4626  0.4032
  149DOPC    HS17753   3.121   1.796  17.182  0.4049 -0.3794  0.4757
  149DOPC   O2117754   2.972   1.935  17.122 -0.5045 -0.0023  0.2285
  149DOPC   C2117755   3.054   1.995  17.036 -0.0542  0.7445 -0.8735
  149DOPC   O2217756   3.173   1.993  17.045 -0.5037  0.3500 -0.0745
  149DOPC   C2217757   2.968   2.034  16.917  0.0001 -0.0483 -0.1889
  149DOPC   H2R17758   2.923   2.133  16.941 -0.1306 -0.6639  2.4322
  149DOPC   H2S17759   2.882   1.963  16.914 -0.6243  0.6338  0.9426
  149DOPC    C317760   2.939   1.777  17.299  0.5373 -0.2590 -0.9284
  149DOPC    HX17761   2.844   1.835  17.309  1.8586  1.6507  1.7659
  149DOPC    HY17762   2.974   1.765  17.404 -0.4236  1.4954 -0.3593
  149DOPC   O3117763   2.926   1.648  17.240 -0.1608 -0.2924  0.4609
  149DOPC   C3117764   2.803   1.599  17.220  0.1176 -1.0248  0.1847
  149DOPC   O3217765   2.701   1.656  17.253 -0.0254 -0.4175  0.3682
  149DOPC   C3217766   2.808   1.467  17.131  0.7108 -1.1078 -0.2431
  149DOPC   H2X17767   2.820   1.515  17.032 -0.0881 -0.3867 -0.0047
  149DOPC   H2Y17768   2.893   1.401  17.162  1.5664  0.1144  0.0598
  149DOPC   C2317769   3.045   2.047  16.782  0.4627 -0.0601  0.5161
  149DOPC   H3R17770   3.072   1.946  16.743 -3.3466 -0.9761 -0.1066
  149DOPC   H3S17771   3.137   2.110  16.785  0.6739 -0.3955  2.9060
  149DOPC   C2417772   2.961   2.107  16.662  0.3685  0.5008 -0.5273
  149DOPC   H4R17773   2.923   2.203  16.702 -0.8692  0.4255 -1.4719
  149DOPC   H4S17774   2.871   2.042  16.660 -1.5866  3.0268  0.5603
  149DOPC   C2517775   3.044   2.111  16.534  0.2411  0.0491 -0.1558
  149DOPC   H5R17776   3.068   2.011  16.494  0.0341 -0.7275  1.5602
  149DOPC   H5S17777   3.138   2.169  16.550 -0.6131  1.1779  1.0282
  149DOPC   C2617778   2.980   2.180  16.403  0.0565  0.4996 -0.6247
  149DOPC   H6R17779   2.960   2.285  16.433 -0.0449  0.6198 -1.1061
  149DOPC   H6S17780   2.889   2.123  16.374  1.8170 -2.4892 -0.7392
  149DOPC   C2717781   3.082   2.185  16.286 -0.1973  0.0615  0.1911
  149DOPC   H7R17782   3.119   2.086  16.250  0.9651  0.6317 -0.2535
  149DOPC   H7S17783   3.170   2.240  16.326  0.9488 -0.9180 -0.8622
  149DOPC   C2817784   3.033   2.262  16.159 -0.6830  0.6479  0.7548
  149DOPC   H8R17785   3.123   2.290  16.101 -0.2621 -0.5889  0.7747
  149DOPC   H8S17786   2.985   2.359  16.184  1.9423  1.9450  1.0858
  149DOPC   C2917787   2.940   2.179  16.072 -0.6285 -0.0464 -0.1688
  149DOPC   H9R17788   2.873   2.117  16.131  0.8854 -1.6210 -0.0261
  149DOPC  C21017789   2.931   2.182  15.935  0.2845  0.2546 -0.2561
  149DOPC  H10R17790   2.846   2.127  15.894 -0.2119  0.5190  0.4002
  149DOPC  C21117791   3.018   2.250  15.835 -0.6940 -0.0686  0.2250
  149DOPC  H11R17792   3.100   2.304  15.886 -0.6411  0.1479 -0.0829
  149DOPC  H11S17793   2.967   2.338  15.789  2.6556  0.1321 -3.6585
  149DOPC  C21217794   3.075   2.154  15.726 -0.1350 -0.2148  0.4995
  149DOPC  H12R17795   3.005   2.081  15.680  0.9160 -0.8089 -0.2167
  149DOPC  H12S17796   3.154   2.090  15.771  0.6076 -0.1820 -0.7182
  149DOPC  C21317797   3.132   2.244  15.616  0.7931 -0.0425  0.5696
  149DOPC  H13R17798   3.225   2.287  15.660  0.3426  1.7705 -0.1649
  149DOPC  H13S17799   3.060   2.327  15.604 -1.7093 -1.9334  1.5664
  149DOPC  C21417800   3.151   2.174  15.478  0.9323 -0.0979 -0.5154
  149DOPC  H14R17801   3.062   2.181  15.412 -1.3752 -0.8352  2.2801
  149DOPC  H14S17802   3.175   2.066  15.493 -0.0475 -0.1069  1.3138
  149DOPC  C21517803   3.268   2.237  15.410 -0.1052  0.2931  0.1769
  149DOPC  H15R17804   3.352   2.219  15.479 -1.4014 -1.0232  1.4892
  149DOPC  H15S17805   3.242   2.345  15.399  0.7109  0.4673 -0.1594
  149DOPC  C21617806   3.293   2.164  15.276 -0.1265  0.2437 -0.2555
  149DOPC  H16R17807   3.207   2.164  15.205 -0.4114  1.6033  0.0447
  149DOPC  H16S17808   3.309   2.056  15.295  0.0645 -0.2129 -2.6406
  149DOPC  C21717809   3.413   2.210  15.210 -0.4517  0.4295 -0.2422
  149DOPC  H17R17810   3.500   2.203  15.279 -1.1405  1.1708  0.7289
  149DOPC  H17S17811   3.403   2.318  15.186 -3.5111  0.1911 -0.3741
  149DOPC  C21817812   3.458   2.134  15.082 -0.5222 -0.5153 -0.2930
  149DOPC  H18R17813   3.544   2.179  15.029 -1.0434 -0.0145 -0.7376
  149DOPC  H18S17814   3.374   2.155  15.012 -1.4171 -1.2864  0.5123
  149DOPC  H18T17815   3.460   2.023  15.086 -2.4170 -0.6402 -1.4620
  149DOPC   C3317816   2.674   1.394  17.141 -0.5017  0.2908  0.5843
  149DOPC   H3X17817   2.587   1.459  17.117 -1.3850 -1.1257 -0.1400
  149DOPC   H3Y17818   2.656   1.351  17.241 -2.1412  0.6188  0.4568
  149DOPC   C3417819   2.665   1.297  17.019 -0.2110 -0.0943 -1.0618
  149DOPC   H4X17820   2.569   1.242  17.029 -0.2298  0.1846  0.7320
  149DOPC   H4Y17821   2.741   1.217  17.031 -1.7255 -1.4057  0.3326
  149DOPC   C3517822   2.665   1.366  16.883 -0.3023 -0.1229 -0.6491
  149DOPC   H5X17823   2.751   1.436  16.879 -0.5192  0.2681  0.8057
  149DOPC   H5Y17824   2.579   1.436  16.888  0.8725  1.2824  0.9595
  149DOPC   C3617825   2.659   1.274  16.761 -0.1958  0.3977  0.3457
  149DOPC   H6X17826   2.654   1.331  16.666 -0.1581  2.8844  1.7618
  149DOPC   H6Y17827   2.759   1.225  16.764  1.4840  3.5899  1.3204
  149DOPC   C3717828   2.547   1.173  16.759 -0.3033  0.3523 -0.3274
  149DOPC   H7X17829   2.567   1.095  16.835  2.3231 -1.1066 -2.3066
  149DOPC   H7Y17830   2.456   1.233  16.776  1.0298  2.4912 -0.3810
  149DOPC   C3817831   2.550   1.098  16.624  0.4831  0.1516 -0.3096
  149DOPC   H8X17832   2.639   1.031  16.627  1.2024  1.0795 -0.3141
  149DOPC   H8Y17833   2.566   1.167  16.538  0.2324  0.4963 -0.0820
  149DOPC   C3917834   2.419   1.023  16.614 -0.6325 -0.7728 -0.3715
  149DOPC   H9X17835   2.406   0.941  16.686  0.7613 -0.8456 -0.1840
  149DOPC  C31017836   2.323   1.057  16.532 -0.5380 -0.5515  0.3686
  149DOPC  H10X17837   2.230   0.999  16.543  1.5569 -3.9648  1.4665
  149DOPC  C31117838   2.320   1.175  16.429  0.0352  0.0342 -0.1392
  149DOPC  H11X17839   2.423   1.212  16.408  0.5472 -1.6279 -0.7321
  149DOPC  H11Y17840   2.253   1.257  16.463  1.3091  0.3218  1.8617
  149DOPC  C31217841   2.267   1.127  16.292  0.3098  0.1909  0.1490
  149DOPC  H12X17842   2.160   1.097  16.300  0.1925  0.4763 -0.2792
  149DOPC  H12Y17843   2.315   1.035  16.254  0.4301  0.4961 -0.4623
  149DOPC  C31317844   2.295   1.222  16.178  0.1963 -0.4503 -0.2464
  149DOPC  H13X17845   2.271   1.325  16.213  0.6550 -0.6508  0.7079
  149DOPC  H13Y17846   2.405   1.217  16.164 -0.0692 -3.2091 -2.2460
  149DOPC  C31417847   2.219   1.181  16.054  0.1076 -0.0773  0.7767
  149DOPC  H14X17848   2.247   1.077  16.023 -1.7121 -0.2572 -0.4246
  149DOPC  H14Y17849   2.111   1.180  16.081 -1.0642  1.1848 -3.2276
  149DOPC  C31517850   2.253   1.271  15.931  0.2526 -0.2281 -0.4318
  149DOPC  H15X17851   2.359   1.254  15.901  0.8758 -0.2184  1.5922
  149DOPC  H15Y17852   2.232   1.378  15.954 -2.4420 -0.9165  0.7056
  149DOPC  C31617853   2.172   1.228  15.814 -0.0573 -0.2451  0.3874
  149DOPC  H16X17854   2.208   1.132  15.770 -2.3318  0.1585 -2.6874
  149DOPC  H16Y17855   2.064   1.208  15.831 -0.7457  2.4554 -0.3657
  149DOPC  C31717856   2.189   1.332  15.694  0.4914  0.2578 -0.2449
  149DOPC  H17X17857   2.293   1.368  15.682 -0.0671  1.3031 -2.5057
  149DOPC  H17Y17858   2.157   1.279  15.601 -2.1753  0.2743  0.5607
  149DOPC  C31817859   2.097   1.448  15.692  0.7431  0.5700  0.9814
  149DOPC  H18X17860   2.019   1.430  15.769  2.6879 -0.0425  2.9012
  149DOPC  H18Y17861   2.149   1.538  15.732  1.1500  0.4758  0.6633
  149DOPC  H18Z17862   2.059   1.470  15.590  1.4622 -0.8184  0.3900
  150DOPC     N17863   0.373   3.682  17.062  0.1762  0.0453  0.5498
  150DOPC   C1217864   0.342   3.710  16.911  0.6041  0.3786 -0.1730
  150DOPC  H12A17865   0.356   3.627  16.843 -0.8362  2.3024 -3.0015
  150DOPC  H12B17866   0.416   3.778  16.872  1.7644 -0.5558  0.3273
  150DOPC   C1317867   0.266   3.608  17.127 -0.0238 -0.7134  0.4405
  150DOPC  H13A17868   0.284   3.604  17.234 -1.5811 -1.2814  0.7092
  150DOPC  H13B17869   0.166   3.644  17.110  0.0034 -1.1260 -0.6475
  150DOPC  H13C17870   0.274   3.505  17.094 -1.8677 -0.0828 -2.3030
  150DOPC   C1417871   0.391   3.813  17.133  0.4061 -0.4278 -0.5349
  150DOPC  H14A17872   0.399   3.803  17.241 -1.3509 -0.1730 -0.3489
  150DOPC  H14B17873   0.470   3.878  17.099  0.5040  0.0334  0.5236
  150DOPC  H14C17874   0.306   3.877  17.118  0.1514 -0.9683 -1.4138
  150DOPC   C1517875   0.490   3.594  17.073 -0.1598 -0.4506  0.1463
  150DOPC  H15A17876   0.467   3.502  17.021 -2.0664 -0.0938  0.2736
  150DOPC  H15B17877   0.521   3.579  17.175  1.2189 -0.9048 -0.3237
  150DOPC  H15C17878   0.577   3.625  17.017 -0.9081  0.1451 -0.7332
  150DOPC   C1117879   0.203   3.763  16.879 -0.2993 -0.0490  0.2749
  150DOPC  H11A17880   0.195   3.765  16.768 -0.5210  0.8532  0.2999
  150DOPC  H11B17881   0.125   3.689  16.907  0.9834 -1.2758  0.7108
  150DOPC     P17882   0.240   4.016  16.859  0.0565  0.2655  0.0940
  150DOPC   O1317883   0.378   3.987  16.818  0.2542  0.1771  0.5205
  150DOPC   O1417884   0.213   4.140  16.939  0.0980 -0.1120 -0.3551
  150DOPC   O1217885   0.178   3.892  16.940 -0.7092 -0.7074 -0.0168
  150DOPC   O1117886   0.155   4.024  16.730 -0.6258  0.3482  0.1924
  150DOPC    C117887   0.204   4.067  16.604  0.6483 -0.2106 -0.4406
  150DOPC    HA17888   0.187   3.983  16.533  3.0271 -0.1374 -1.1863
  150DOPC    HB17889   0.309   4.102  16.609  0.0679  1.6441 -0.4896
  150DOPC    C217890   0.123   4.185  16.550 -0.1216 -0.7478 -0.3515
  150DOPC    HS17891   0.112   4.268  16.623  0.6940  0.0210 -1.0835
  150DOPC   O2117892  -0.007   4.134  16.521 -0.1796 -0.1827  0.5245
  150DOPC   C2117893  -0.111   4.229  16.510 -0.1235  0.5352 -1.0830
  150DOPC   O2217894  -0.110   4.346  16.542 -0.5313 -0.6420  0.0958
  150DOPC   C2217895  -0.237   4.155  16.460  0.4208 -0.6947 -0.0767
  150DOPC   H2R17896  -0.237   4.045  16.476  1.4470 -0.7753 -0.5531
  150DOPC   H2S17897  -0.232   4.169  16.350  1.0119 -1.1034 -0.1075
  150DOPC    C317898   0.195   4.239  16.429 -0.0428  0.1603  0.1689
  150DOPC    HX17899   0.274   4.309  16.464  0.6977 -0.4373 -0.2861
  150DOPC    HY17900   0.123   4.305  16.376  0.8358  0.1245 -1.1063
  150DOPC   O3117901   0.236   4.131  16.335  0.9318 -0.5422 -0.4584
  150DOPC   C3117902   0.363   4.111  16.320  0.4033 -0.6641  0.4503
  150DOPC   O3217903   0.452   4.152  16.390  0.2000 -0.2815  0.2663
  150DOPC   C3217904   0.385   4.030  16.195 -0.0600 -0.1674 -0.2796
  150DOPC   H2X17905   0.393   4.087  16.100 -2.7556 -0.3233 -0.6675
  150DOPC   H2Y17906   0.480   3.974  16.213  0.9544  1.2581 -0.9612
  150DOPC   C2317907  -0.375   4.205  16.515 -0.3047 -0.7397 -0.2383
  150DOPC   H3R17908  -0.361   4.314  16.532  2.7779 -1.1253  0.3713
  150DOPC   H3S17909  -0.387   4.171  16.620 -3.7771  0.7847 -0.0056
  150DOPC   C2417910  -0.494   4.175  16.418  0.3018 -0.0879  0.1801
  150DOPC   H4R17911  -0.460   4.210  16.318 -1.1276 -0.4089 -0.4357
  150DOPC   H4S17912  -0.590   4.216  16.455  0.2702 -1.6543  1.9660
  150DOPC   C2517913  -0.519   4.020  16.410 -0.3976 -0.4930 -0.4487
  150DOPC   H5R17914  -0.536   3.982  16.513  0.4609  1.7628  0.6045
  150DOPC   H5S17915  -0.444   3.951  16.365 -1.0094 -1.2623 -0.3096
  150DOPC   C2617916  -0.648   3.997  16.337  0.1804  0.0420  0.5138
  150DOPC   H6R17917  -0.730   4.066  16.367  0.1683  0.0117  0.5506
  150DOPC   H6S17918  -0.682   3.893  16.358 -1.2508 -0.0919 -2.0312
  150DOPC   C2717919  -0.638   4.011  16.189  1.0248  0.1074  0.2033
  150DOPC   H7R17920  -0.567   3.942  16.140  1.5820  0.9259 -0.1534
  150DOPC   H7S17921  -0.599   4.113  16.171  1.2282 -0.0728 -0.4033
  150DOPC   C2817922  -0.779   4.017  16.117  0.2224 -0.0141 -0.0079
  150DOPC   H8R17923  -0.760   4.073  16.023  2.6973  2.2142  1.6709
  150DOPC   H8S17924  -0.841   4.091  16.171 -1.4665 -0.1621 -1.6562
  150DOPC   C2917925  -0.843   3.881  16.107 -0.6658 -0.0285  0.1374
  150DOPC   H9R17926  -0.833   3.827  16.202 -0.0929  0.1231  0.1677
  150DOPC  C21017927  -0.913   3.838  16.007  0.0864 -0.2965  0.1309
  150DOPC  H10R17928  -0.960   3.739  16.012  0.4051 -0.4448  0.2255
  150DOPC  C21117929  -0.952   3.898  15.878  0.1225  0.8463  0.8923
  150DOPC  H11R17930  -0.949   4.009  15.881 -2.1174  0.9536  0.7210
  150DOPC  H11S17931  -1.054   3.862  15.852 -0.1938  0.6037  2.3739
  150DOPC  C21217932  -0.872   3.857  15.754 -0.2727 -0.6364 -0.2702
  150DOPC  H12R17933  -0.888   3.749  15.737 -2.0114 -0.6034  0.9255
  150DOPC  H12S17934  -0.764   3.880  15.768  0.4578 -2.6968 -1.9557
  150DOPC  C21317935  -0.922   3.935  15.630 -0.1117  0.2914  0.5998
  150DOPC  H13R17936  -0.938   4.040  15.663  0.6650  0.9836 -1.1025
  150DOPC  H13S17937  -1.016   3.896  15.586  2.6528 -3.7808 -2.4306
  150DOPC  C21417938  -0.810   3.926  15.528 -0.3150  0.3140 -0.0932
  150DOPC  H14R17939  -0.791   3.819  15.505 -0.4182  0.0436  1.0077
  150DOPC  H14S17940  -0.718   3.969  15.574 -0.7224  0.9759  0.1102
  150DOPC  C21517941  -0.826   3.996  15.400 -0.6680 -0.3167  0.1782
  150DOPC  H15R17942  -0.728   3.979  15.351 -0.3325  0.9568  0.3816
  150DOPC  H15S17943  -0.834   4.106  15.416 -2.0611 -0.4598  0.6435
  150DOPC  C21617944  -0.943   3.957  15.314  0.0612  0.2108  0.0611
  150DOPC  H16R17945  -1.033   3.940  15.376 -0.5095 -0.9429 -1.0244
  150DOPC  H16S17946  -0.917   3.856  15.275 -3.6861 -1.2053  0.8103
  150DOPC  C21717947  -0.969   4.043  15.188  0.5086 -0.3519  0.1996
  150DOPC  H17R17948  -0.882   4.026  15.121 -1.5936  0.4918 -2.9684
  150DOPC  H17S17949  -0.974   4.151  15.216  1.2934 -0.1511 -0.3840
  150DOPC  C21817950  -1.099   4.018  15.119  0.1953 -0.3720  0.4090
  150DOPC  H18R17951  -1.113   4.086  15.032 -1.7418  1.4507  2.0325
  150DOPC  H18S17952  -1.183   4.045  15.187 -0.3805  2.0764 -1.1261
  150DOPC  H18T17953  -1.118   3.915  15.082 -0.0472  0.4327 -1.8925
  150DOPC   C3317954   0.287   3.918  16.171  0.5774  0.4348 -0.1517
  150DOPC   H3X17955   0.181   3.951  16.180  0.5167  0.4148 -0.7551
  150DOPC   H3Y17956   0.310   3.841  16.247 -1.5179 -1.3415 -1.1993
  150DOPC   C3417957   0.316   3.828  16.051  0.7401 -0.4943  0.5230
  150DOPC   H4X17958   0.269   3.730  16.071  1.0740 -0.7663  0.0090
  150DOPC   H4Y17959   0.426   3.811  16.054  0.7652 -0.3069  0.7018
  150DOPC   C3517960   0.272   3.884  15.909 -0.1635 -0.2089 -0.6834
  150DOPC   H5X17961   0.322   3.976  15.871 -3.0075  0.2932 -3.5895
  150DOPC   H5Y17962   0.164   3.908  15.908 -0.3509 -1.0121 -0.2983
  150DOPC   C3617963   0.297   3.787  15.802  1.0044 -0.1395  0.6467
  150DOPC   H6X17964   0.403   3.758  15.782  0.4218 -1.7912 -0.2834
  150DOPC   H6Y17965   0.251   3.688  15.821  1.0707  0.2290  2.9051
  150DOPC   C3717966   0.233   3.823  15.668  0.2538  0.5133 -0.6606
  150DOPC   H7X17967   0.124   3.838  15.681  0.3492 -0.0891  1.0795
  150DOPC   H7Y17968   0.263   3.921  15.625  3.1337  0.7754  1.6247
  150DOPC   C3817969   0.252   3.707  15.562  0.3207  0.3235 -0.5337
  150DOPC   H8X17970   0.184   3.703  15.475 -1.0231 -0.8067  0.5154
  150DOPC   H8Y17971   0.208   3.621  15.617  0.1276  1.6985  1.5822
  150DOPC   C3917972   0.394   3.698  15.513 -0.7785 -0.0518 -0.0326
  150DOPC   H9X17973   0.466   3.682  15.594 -1.9019 -0.1081  0.9720
  150DOPC  C31017974   0.436   3.709  15.383  0.8591  0.6267 -0.1476
  150DOPC  H10X17975   0.544   3.705  15.363  1.0837  1.7255  0.7126
  150DOPC  C31117976   0.351   3.725  15.260  0.1861 -0.2319  0.1313
  150DOPC  H11X17977   0.389   3.808  15.196 -0.5604  0.6343  0.7883
  150DOPC  H11Y17978   0.245   3.751  15.279  0.3121 -0.0440  0.5678
  150DOPC  C31217979   0.374   3.585  15.196  0.2243 -0.1673 -0.1532
  150DOPC  H12X17980   0.333   3.504  15.260 -0.3323 -0.8760 -1.3687
  150DOPC  H12Y17981   0.481   3.571  15.172  0.4611  0.7044  0.3824
  150DOPC  C31317982   0.302   3.569  15.063 -0.3328  0.6672  0.3141
  150DOPC  H13X17983   0.197   3.537  15.085  0.0857 -1.0826 -0.0560
  150DOPC  H13Y17984   0.294   3.667  15.012 -1.7182  0.5051  0.1629
  150DOPC  C31417985   0.368   3.458  14.974  0.5239  0.1657  0.2643
  150DOPC  H14X17986   0.389   3.376  15.046  0.1406 -0.1877 -0.0222
  150DOPC  H14Y17987   0.299   3.424  14.894 -0.8407  0.5831  1.2259
  150DOPC  C31517988   0.493   3.493  14.887  0.6155  0.4018 -0.2380
  150DOPC  H15X17989   0.585   3.528  14.938  0.3291  0.1765  0.4378
  150DOPC  H15Y17990   0.460   3.574  14.818 -0.2009  2.4878  2.4456
  150DOPC  C31617991   0.526   3.369  14.798 -0.3205  0.0311 -0.9175
  150DOPC  H16X17992   0.560   3.300  14.879  1.2044  2.8178  0.9912
  150DOPC  H16Y17993   0.438   3.323  14.748  0.2151 -1.1812 -0.7905
  150DOPC  C31717994   0.647   3.383  14.708  0.8204 -0.0742  0.6277
  150DOPC  H17X17995   0.631   3.464  14.634 -0.0697  0.4569  1.3945
  150DOPC  H17Y17996   0.729   3.402  14.780  0.2003  1.1393  1.0277
  150DOPC  C31817997   0.697   3.255  14.633 -0.4735 -0.3720 -0.5820
  150DOPC  H18X17998   0.721   3.175  14.706 -0.0244 -0.7421 -1.1364
  150DOPC  H18Y17999   0.609   3.227  14.571 -1.6487  0.9203  0.4156
  150DOPC  H18Z18000   0.783   3.280  14.567 -1.4806  1.0963 -1.4067
  151DOPC     N18001   2.512   3.552  17.238 -0.3374 -0.9611  0.2207
  151DOPC   C1218002   2.529   3.674  17.155 -0.5335 -0.3983  0.2862
  151DOPC  H12A18003   2.627   3.671  17.108 -0.5895  1.5056 -0.0579
  151DOPC  H12B18004   2.550   3.757  17.222  1.9158 -1.7710  1.3466
  151DOPC   C1318005   2.636   3.539  17.330  0.1843  0.8060  0.0215
  151DOPC  H13A18006   2.728   3.538  17.274 -0.4909  0.2078 -1.1316
  151DOPC  H13B18007   2.624   3.623  17.397 -0.0770  1.8453 -1.2869
  151DOPC  H13C18008   2.627   3.447  17.385 -1.9067  0.3399 -0.9600
  151DOPC   C1418009   2.499   3.429  17.147 -0.5005 -0.3291 -0.7064
  151DOPC  H14A18010   2.398   3.427  17.111 -0.5277  1.8921 -0.8319
  151DOPC  H14B18011   2.563   3.431  17.060  0.2680  0.3223 -0.1440
  151DOPC  H14C18012   2.521   3.335  17.197  0.5191 -0.3294 -1.1180
  151DOPC   C1518013   2.388   3.562  17.324  0.2719  1.0327 -0.0256
  151DOPC  H15A18014   2.326   3.479  17.295  0.3472 -0.4510  3.5926
  151DOPC  H15B18015   2.354   3.664  17.331 -1.1379  0.4987  1.6903
  151DOPC  H15C18016   2.405   3.541  17.428 -4.2749 -1.5073  0.4812
  151DOPC   C1118017   2.420   3.708  17.049 -0.8688  0.8039 -0.2489
  151DOPC  H11A18018   2.469   3.769  16.970 -0.2285  0.9387  0.2330
  151DOPC  H11B18019   2.384   3.615  17.001  1.1574 -0.9144  1.3355
  151DOPC     P18020   2.324   3.917  17.173  0.0007 -0.1891  0.2700
  151DOPC   O1318021   2.459   3.929  17.234  1.5369 -0.0918 -0.7378
  151DOPC   O1418022   2.205   3.942  17.263  0.0872 -0.3080  0.4312
  151DOPC   O1218023   2.310   3.769  17.113  0.2948  0.1119 -0.1615
  151DOPC   O1118024   2.315   4.012  17.042 -0.5460 -0.2368  0.0373
  151DOPC    C118025   2.196   4.011  16.962  0.2568  0.1411  0.3128
  151DOPC    HA18026   2.196   4.108  16.908  0.5576 -0.4710 -0.8187
  151DOPC    HB18027   2.102   3.995  17.019 -0.7500 -0.8800 -1.5419
  151DOPC    C218028   2.205   3.908  16.841  0.2241  0.3840 -0.3099
  151DOPC    HS18029   2.214   3.804  16.880 -0.1090  0.5158  0.1191
  151DOPC   O2118030   2.320   3.946  16.766 -0.0148 -0.1444  0.7102
  151DOPC   C2118031   2.350   3.870  16.662 -0.5895 -0.4589  0.2094
  151DOPC   O2218032   2.306   3.762  16.628 -0.1201  0.1071  0.0932
  151DOPC   C2218033   2.456   3.947  16.576  0.3008 -0.1525 -0.5286
  151DOPC   H2R18034   2.499   3.871  16.507 -1.3342 -1.6294  0.0281
  151DOPC   H2S18035   2.534   4.004  16.630 -0.3028  0.7682 -0.5975
  151DOPC    C318036   2.082   3.908  16.757 -0.0698  0.3640 -0.6029
  151DOPC    HX18037   2.004   3.902  16.836  1.5176 -1.3146  0.9306
  151DOPC    HY18038   2.077   3.827  16.680 -0.7691 -0.9833  0.8012
  151DOPC   O3118039   2.072   4.037  16.693 -0.3782 -0.2419  0.0624
  151DOPC   C3118040   1.959   4.053  16.626 -0.0967  0.1136  0.7614
  151DOPC   O3218041   1.877   3.966  16.615 -0.1404  1.0013  0.2134
  151DOPC   C3218042   1.934   4.198  16.592  0.2547 -0.2775  0.2913
  151DOPC   H2X18043   1.891   4.249  16.681  1.8409 -0.3416  1.1297
  151DOPC   H2Y18044   2.034   4.240  16.571  0.6606 -0.8237  1.0904
  151DOPC   C2318045   2.392   4.049  16.482 -0.0064  0.0994 -0.3254
  151DOPC   H3R18046   2.471   4.079  16.411  0.9217 -1.2588  0.0986
  151DOPC   H3S18047   2.366   4.144  16.534  3.8237  0.7206  0.7485
  151DOPC   C2418048   2.285   3.996  16.395  0.1697 -0.0229 -0.2360
  151DOPC   H4R18049   2.188   3.994  16.448 -0.3533  0.2854 -1.1489
  151DOPC   H4S18050   2.309   3.893  16.362 -2.2943 -0.4098 -1.0142
  151DOPC   C2518051   2.254   4.089  16.283  0.1865 -0.0577  0.8084
  151DOPC   H5R18052   2.335   4.076  16.209 -1.6552 -1.1835 -1.1211
  151DOPC   H5S18053   2.252   4.187  16.336  1.4344 -0.2584  1.2512
  151DOPC   C2618054   2.123   4.054  16.218  0.5154  0.2738  0.4525
  151DOPC   H6R18055   2.041   4.068  16.291 -1.6016 -1.1481 -1.5108
  151DOPC   H6S18056   2.123   3.947  16.188 -3.5637 -0.3821  2.1046
  151DOPC   C2718057   2.096   4.148  16.104  0.1881  0.1801  0.2053
  151DOPC   H7R18058   2.083   4.251  16.145  0.3402 -0.2274  1.2961
  151DOPC   H7S18059   1.994   4.129  16.064  0.5752 -0.3312 -0.5667
  151DOPC   C2818060   2.201   4.146  15.989 -0.0013  0.2084  0.3851
  151DOPC   H8R18061   2.294   4.205  16.009 -0.2496  0.3785  1.0603
  151DOPC   H8S18062   2.154   4.197  15.903 -1.4789 -1.0044  0.4418
  151DOPC   C2918063   2.233   4.005  15.943 -0.4683  0.5193 -0.2461
  151DOPC   H9R18064   2.287   3.955  16.024 -0.5364  0.7659 -0.0441
  151DOPC  C21018065   2.208   3.939  15.823 -0.2916  0.1042 -0.5660
  151DOPC  H10R18066   2.249   3.841  15.794 -3.5478 -0.8562 -2.3564
  151DOPC  C21118067   2.115   3.993  15.716 -0.5751 -0.6086 -0.3456
  151DOPC  H11R18068   2.022   4.036  15.760 -0.2084 -0.6530  0.4898
  151DOPC  H11S18069   2.074   3.913  15.650 -1.4917  0.2120 -0.8050
  151DOPC  C21218070   2.183   4.092  15.616  0.3051  0.1392  0.0064
  151DOPC  H12R18071   2.221   4.186  15.661  1.5421  0.9053 -2.4717
  151DOPC  H12S18072   2.107   4.119  15.538 -0.0322  1.1756  0.6706
  151DOPC  C21318073   2.295   4.022  15.537  0.5538  0.0582  0.3519
  151DOPC  H13R18074   2.266   3.928  15.486 -0.8389 -0.6745  2.3917
  151DOPC  H13S18075   2.382   3.987  15.597 -0.3128 -2.4357  0.2676
  151DOPC  C21418076   2.352   4.116  15.429 -0.3113 -0.3491 -0.2972
  151DOPC  H14R18077   2.407   4.196  15.484 -0.4309 -0.7723  0.4499
  151DOPC  H14S18078   2.271   4.157  15.365  0.4769  1.4519 -0.2086
  151DOPC  C21518079   2.448   4.048  15.329  0.2479  0.2136  0.0129
  151DOPC  H15R18080   2.506   4.124  15.273  1.6007 -0.2761  0.7193
  151DOPC  H15S18081   2.393   3.993  15.249 -1.4847 -0.5241  1.6476
  151DOPC  C21618082   2.561   3.963  15.392  0.1311 -0.7420  0.1049
  151DOPC  H16R18083   2.515   3.867  15.423  0.0712 -1.1468 -1.1993
  151DOPC  H16S18084   2.598   4.010  15.486 -1.1184  1.6709 -0.5302
  151DOPC  C21718085   2.671   3.926  15.296  0.9437  0.3743  0.0218
  151DOPC  H17R18086   2.717   4.019  15.255 -0.1014  1.5473  1.3704
  151DOPC  H17S18087   2.624   3.869  15.214  0.3027  1.5372 -0.4504
  151DOPC  C21818088   2.767   3.823  15.353  0.2105 -0.5556  0.2896
  151DOPC  H18R18089   2.784   3.741  15.280  0.0389 -0.5715  0.2668
  151DOPC  H18S18090   2.729   3.777  15.446  0.9946  0.0414  0.9273
  151DOPC  H18T18091   2.870   3.864  15.365  0.2447 -0.4612 -0.2825
  151DOPC   C3318092   1.831   4.215  16.474 -0.8864 -0.4536  0.3640
  151DOPC   H3X18093   1.731   4.172  16.494 -0.8512  0.0075  1.5754
  151DOPC   H3Y18094   1.864   4.158  16.384 -0.8567  0.1932 -0.0381
  151DOPC   C3418095   1.783   4.354  16.438 -0.2607  0.7719 -0.0914
  151DOPC   H4X18096   1.865   4.411  16.388  1.0728  0.2318  1.4095
  151DOPC   H4Y18097   1.770   4.409  16.533  1.1674  2.9515 -1.0613
  151DOPC   C3518098   1.656   4.348  16.347 -0.2592 -1.1058 -0.5162
  151DOPC   H5X18099   1.633   4.450  16.309 -1.4883 -2.1151 -2.5997
  151DOPC   H5Y18100   1.573   4.297  16.400 -1.8756  1.1124 -0.7579
  151DOPC   C3618101   1.672   4.268  16.215 -0.0055 -0.0714 -0.0853
  151DOPC   H6X18102   1.764   4.311  16.168  0.9966 -2.2210 -0.2312
  151DOPC   H6Y18103   1.705   4.164  16.237  1.1986 -0.0711 -1.6932
  151DOPC   C3718104   1.553   4.257  16.113 -0.6504  0.0273  0.2450
  151DOPC   H7X18105   1.460   4.261  16.174 -0.7060  2.4781  0.0887
  151DOPC   H7Y18106   1.545   4.357  16.065 -2.8992 -0.3904 -0.4069
  151DOPC   C3818107   1.558   4.138  16.009 -0.0198  0.2103 -0.5303
  151DOPC   H8X18108   1.474   4.165  15.942  1.6742  0.0022 -2.8675
  151DOPC   H8Y18109   1.528   4.041  16.054 -1.3119 -0.5165 -2.8128
  151DOPC   C3918110   1.688   4.128  15.944  0.0608 -0.4856 -0.4911
  151DOPC   H9X18111   1.775   4.126  16.011  0.3433  0.4605 -0.8121
  151DOPC  C31018112   1.702   4.124  15.808  0.8291 -0.7963 -0.3070
  151DOPC  H10X18113   1.803   4.106  15.768  1.5513 -0.5077  1.3029
  151DOPC  C31118114   1.590   4.143  15.712  0.1357  0.2756  0.2203
  151DOPC  H11X18115   1.555   4.248  15.704  0.6610  0.3978 -0.5725
  151DOPC  H11Y18116   1.497   4.092  15.746 -0.4805  2.1106  1.4603
  151DOPC  C31218117   1.614   4.069  15.582 -0.2277 -0.2707 -0.4010
  151DOPC  H12X18118   1.523   4.066  15.517 -0.0985 -0.9872 -0.5604
  151DOPC  H12Y18119   1.640   3.963  15.604  2.2282  0.1419 -1.0266
  151DOPC  C31318120   1.720   4.133  15.494 -0.2199  0.2673 -0.0028
  151DOPC  H13X18121   1.701   4.240  15.470  0.8692  0.1004 -1.7991
  151DOPC  H13Y18122   1.816   4.127  15.548  0.0391 -0.6429 -0.5391
  151DOPC  C31418123   1.744   4.053  15.366  0.6531  0.7267  0.0542
  151DOPC  H14X18124   1.658   4.020  15.305  1.0987  1.3283 -0.9186
  151DOPC  H14Y18125   1.788   4.124  15.293  0.9711 -0.6517 -1.1232
  151DOPC  C31518126   1.848   3.945  15.384 -0.0268 -0.2172  0.2162
  151DOPC  H15X18127   1.803   3.845  15.400 -0.1610 -0.0050  1.2195
  151DOPC  H15Y18128   1.893   3.959  15.485 -1.9959  1.7150  0.9071
  151DOPC  C31618129   1.956   3.946  15.277  0.0175 -0.5090  0.8116
  151DOPC  H16X18130   1.925   3.998  15.184  2.1644  1.6789  1.2121
  151DOPC  H16Y18131   2.041   4.005  15.317  1.8000 -1.1707 -1.7833
  151DOPC  C31718132   2.014   3.803  15.244 -0.2753  0.1174 -0.0692
  151DOPC  H17X18133   2.042   3.767  15.345  1.6713 -2.0931 -1.2845
  151DOPC  H17Y18134   1.929   3.739  15.212  1.4431 -2.1912 -0.2306
  151DOPC  C31818135   2.130   3.795  15.151 -0.1649  0.4999 -0.3695
  151DOPC  H18X18136   2.141   3.689  15.119  0.5120  0.0896  1.1232
  151DOPC  H18Y18137   2.105   3.861  15.065 -1.7613 -0.3352 -0.5891
  151DOPC  H18Z18138   2.229   3.828  15.190  0.5399 -0.6720 -1.0837
  152DOPC     N18139   4.225   1.046  17.009  0.0262 -0.0762 -0.0152
  152DOPC   C1218140   4.210   0.993  16.866  0.7230  0.1401 -0.2575
  152DOPC  H12A18141   4.114   1.029  16.833  1.1988  0.2550 -1.5477
  152DOPC  H12B18142   4.215   0.885  16.868  0.1865  0.1146 -0.0417
  152DOPC   C1318143   4.137   0.957  17.095 -0.8641 -1.4075  0.1783
  152DOPC  H13A18144   4.165   0.853  17.101 -1.2253 -1.4373  1.9021
  152DOPC  H13B18145   4.121   1.003  17.192 -3.1833 -0.7058 -0.4665
  152DOPC  H13C18146   4.036   0.969  17.059 -0.8369  1.2614  0.7159
  152DOPC   C1418147   4.174   1.185  17.018 -0.2311 -0.2385  0.3738
  152DOPC  H14A18148   4.225   1.251  16.949  0.9390 -0.2876  1.1534
  152DOPC  H14B18149   4.067   1.177  17.009 -0.2775  1.2569 -0.6760
  152DOPC  H14C18150   4.199   1.231  17.113 -0.9905 -1.1042  1.0074
  152DOPC   C1518151   4.360   1.044  17.054 -0.6396  0.0054 -0.1628
  152DOPC  H15A18152   4.413   1.124  17.004  0.0594  0.7475  1.7049
  152DOPC  H15B18153   4.400   0.947  17.029 -0.5975 -0.5806  1.9906
  152DOPC  H15C18154   4.376   1.050  17.160  1.6790 -1.0262 -0.3976
  152DOPC   C1118155   4.314   1.044  16.751 -0.6565  0.1898  0.0852
  152DOPC  H11A18156   4.293   1.000  16.651  1.8392  0.6422 -0.7204
  152DOPC  H11B18157   4.287   1.152  16.745 -2.3598 -0.2431 -0.5941
  152DOPC     P18158   4.561   1.105  16.733  0.0283  0.0528  0.3154
  152DOPC   O1318159   4.687   1.037  16.746  0.3027 -0.3386  0.1648
  152DOPC   O1418160   4.551   1.241  16.792 -0.6233  0.1037 -0.2819
  152DOPC   O1218161   4.442   1.015  16.794 -0.2251  0.3815 -0.3807
  152DOPC   O1118162   4.533   1.115  16.576  0.5513 -0.5105  0.1329
  152DOPC    C118163   4.566   1.004  16.490  0.1383  0.4682  0.2797
  152DOPC    HA18164   4.497   1.002  16.403  2.0844 -0.3444 -1.3185
  152DOPC    HB18165   4.547   0.906  16.538  0.3867  0.2747 -0.0174
  152DOPC    C218166   4.713   1.005  16.445  0.3139  0.2887  0.0065
  152DOPC    HS18167   4.787   1.006  16.528  1.2813  3.5263 -0.7594
  152DOPC   O2118168   4.740   1.124  16.371 -0.0618 -0.4926  0.3738
  152DOPC   C2118169   4.865   1.146  16.320  0.2335  0.3066 -0.5730
  152DOPC   O2218170   4.968   1.099  16.363  0.1695  0.1492  0.2839
  152DOPC   C2218171   4.861   1.247  16.216 -0.0570 -0.1943  0.0949
  152DOPC   H2R18172   4.966   1.278  16.197 -0.3389  1.9159  1.6210
  152DOPC   H2S18173   4.801   1.328  16.262 -0.1731 -0.6398  0.7237
  152DOPC    C318174   4.734   0.880  16.356  0.4073  0.3400 -0.3043
  152DOPC    HX18175   4.710   0.789  16.414 -0.2237  0.2430 -0.6942
  152DOPC    HY18176   4.838   0.885  16.317 -0.5339  2.1026 -2.8867
  152DOPC   O3118177   4.644   0.888  16.246 -0.3001 -0.1815  0.6376
  152DOPC   C3118178   4.636   0.776  16.171 -0.1590  0.1575 -1.1202
  152DOPC   O3218179   4.698   0.670  16.197  0.3804 -0.1383  0.2686
  152DOPC   C3218180   4.526   0.782  16.058 -0.0834 -0.1994  0.3360
  152DOPC   H2X18181   4.425   0.767  16.104  0.3033 -4.1866  0.2655
  152DOPC   H2Y18182   4.528   0.887  16.023  0.7647 -0.2862  0.1163
  152DOPC   C2318183   4.774   1.202  16.095  0.0690 -0.3595  0.0217
  152DOPC   H3R18184   4.757   1.296  16.038  4.2733  1.5356  1.4967
  152DOPC   H3S18185   4.674   1.164  16.124  0.6746 -2.1564 -0.1636
  152DOPC   C2418186   4.850   1.105  16.003  0.8675  0.8846  0.0604
  152DOPC   H4R18187   4.844   1.003  16.046  1.3994  1.1321  0.7316
  152DOPC   H4S18188   4.953   1.137  15.977  1.0738  0.8024  0.7758
  152DOPC   C2518189   4.778   1.100  15.864  0.4564 -0.2289  0.0048
  152DOPC   H5R18190   4.674   1.072  15.893  0.6659  0.1473  1.1927
  152DOPC   H5S18191   4.819   1.022  15.796  1.3041 -0.7399  1.0848
  152DOPC   C2618192   4.774   1.234  15.783 -0.5921  0.2903  0.2642
  152DOPC   H6R18193   4.873   1.283  15.774  0.7837 -2.1931  0.7394
  152DOPC   H6S18194   4.707   1.302  15.839 -0.6310  0.1061  0.4465
  152DOPC   C2718195   4.742   1.218  15.627 -0.8422  0.4828 -0.0273
  152DOPC   H7R18196   4.799   1.137  15.577 -1.0431  0.6210 -0.4857
  152DOPC   H7S18197   4.774   1.312  15.578  0.6379  0.1760  0.2992
  152DOPC   C2818198   4.594   1.203  15.611  0.3310 -0.9124  0.0452
  152DOPC   H8R18199   4.536   1.284  15.660 -0.9431 -0.1028 -2.6133
  152DOPC   H8S18200   4.568   1.108  15.662 -2.3287 -0.2264  0.1064
  152DOPC   C2918201   4.563   1.193  15.461  0.2979 -0.3412 -0.6102
  152DOPC   H9R18202   4.628   1.121  15.410  1.3661 -1.1803  1.7753
  152DOPC  C21018203   4.473   1.260  15.389 -0.4643  0.8272 -0.1981
  152DOPC  H10R18204   4.485   1.262  15.280  0.1958 -2.5449 -0.2861
  152DOPC  C21118205   4.371   1.354  15.444  0.7135 -0.2265 -0.3907
  152DOPC  H11R18206   4.335   1.323  15.544 -0.7805 -0.1055 -0.8724
  152DOPC  H11S18207   4.271   1.345  15.397  0.4429  1.7178 -0.2741
  152DOPC  C21218208   4.410   1.495  15.440  0.6961 -0.1414  0.4741
  152DOPC  H12R18209   4.431   1.515  15.333 -0.4179 -2.6479 -0.2869
  152DOPC  H12S18210   4.484   1.517  15.520 -1.2198  0.5706  2.1563
  152DOPC  C21318211   4.280   1.585  15.465 -0.2998 -0.1125  0.2042
  152DOPC  H13R18212   4.238   1.544  15.560  0.4861 -1.5489 -0.0317
  152DOPC  H13S18213   4.206   1.555  15.387  0.0098  1.1839 -0.6105
  152DOPC  C21418214   4.299   1.735  15.474  0.3215  0.6232  0.4130
  152DOPC  H14R18215   4.354   1.764  15.381  0.4017 -3.1115 -0.8740
  152DOPC  H14S18216   4.368   1.766  15.556  0.2598  0.4367  0.5368
  152DOPC  C21518217   4.161   1.800  15.488 -0.5511 -0.3705  0.4857
  152DOPC  H15R18218   4.114   1.770  15.585 -0.3361  0.0599  0.7249
  152DOPC  H15S18219   4.089   1.777  15.407 -0.1222 -2.0689  0.5613
  152DOPC  C21618220   4.169   1.950  15.498 -0.4569 -0.3480  0.0574
  152DOPC  H16R18221   4.241   1.977  15.418  0.1336 -0.1614  0.6486
  152DOPC  H16S18222   4.223   1.975  15.592 -1.4259 -1.0388  0.8185
  152DOPC  C21718223   4.037   2.033  15.488 -0.3886 -0.0490  0.4485
  152DOPC  H17R18224   3.984   1.998  15.397 -0.6798 -1.5423  1.1702
  152DOPC  H17S18225   4.068   2.139  15.478  1.1086 -0.5838 -1.1875
  152DOPC  C21818226   3.938   2.013  15.602  0.1809 -0.5053 -0.3761
  152DOPC  H18R18227   3.840   2.058  15.577  1.4581  1.0602 -2.9764
  152DOPC  H18S18228   3.967   2.051  15.703 -1.1827  0.4783 -0.3273
  152DOPC  H18T18229   3.926   1.904  15.614  0.4121 -0.4062  1.0611
  152DOPC   C3318230   4.541   0.670  15.951 -0.3626 -0.5327  0.8039
  152DOPC   H3X18231   4.443   0.647  15.904 -0.1921 -2.8896  1.4399
  152DOPC   H3Y18232   4.584   0.576  15.992  1.1056  0.0898  0.7623
  152DOPC   C3418233   4.653   0.711  15.848  0.4182  0.0284 -0.1365
  152DOPC   H4X18234   4.744   0.741  15.904 -0.2474  0.6232  0.6532
  152DOPC   H4Y18235   4.608   0.798  15.794  0.6680  0.2081 -0.0597
  152DOPC   C3518236   4.686   0.610  15.745  0.0265 -0.1636  0.9022
  152DOPC   H5X18237   4.596   0.606  15.680  0.3951  0.6642  0.3166
  152DOPC   H5Y18238   4.713   0.514  15.793  2.6850 -0.8661 -1.6609
  152DOPC   C3618239   4.799   0.654  15.652  0.1771 -0.7257 -0.5797
  152DOPC   H6X18240   4.891   0.682  15.708  1.3656 -0.0843 -2.7111
  152DOPC   H6Y18241   4.839   0.576  15.584  2.2970  0.2252 -0.4980
  152DOPC   C3718242   4.751   0.778  15.573 -0.4388 -0.6675 -0.5062
  152DOPC   H7X18243   4.713   0.861  15.637  0.2466 -1.0853  0.4638
  152DOPC   H7Y18244   4.840   0.817  15.519 -1.0898  1.2484 -0.2757
  152DOPC   C3818245   4.637   0.750  15.468  0.2874  0.6238 -1.0218
  152DOPC   H8X18246   4.616   0.850  15.425  2.2483  1.4071 -0.2381
  152DOPC   H8Y18247   4.548   0.709  15.520  0.0824 -0.1017 -1.9194
  152DOPC   C3918248   4.677   0.660  15.355  0.6268 -0.0847  0.5298
  152DOPC   H9X18249   4.676   0.553  15.379  0.3092  0.1893  1.8668
  152DOPC  C31018250   4.748   0.700  15.250  0.4110 -0.3614  0.1779
  152DOPC  H10X18251   4.783   0.633  15.170  2.4635  0.9207 -0.0836
  152DOPC  C31118252   4.790   0.847  15.235  0.8446  0.0131 -0.4214
  152DOPC  H11X18253   4.900   0.859  15.225  0.8028  1.1623  0.3241
  152DOPC  H11Y18254   4.758   0.923  15.309  0.7112 -1.9154  1.6351
  152DOPC  C31218255   4.738   0.894  15.094 -0.5363 -0.2370 -0.4540
  152DOPC  H12X18256   4.771   0.823  15.015 -1.9236 -0.4164 -0.8962
  152DOPC  H12Y18257   4.813   0.974  15.079  1.0513 -1.2318  1.5590
  152DOPC  C31318258   4.587   0.923  15.083 -0.7671  0.4854 -0.6516
  152DOPC  H13X18259   4.527   0.835  15.114  0.4961  0.1819  1.1457
  152DOPC  H13Y18260   4.557   0.998  15.159 -1.0457  0.7335 -1.0001
  152DOPC  C31418261   4.531   0.971  14.948  0.7139  0.2689 -0.5856
  152DOPC  H14X18262   4.427   0.998  14.976  0.6082 -0.2735 -0.4426
  152DOPC  H14Y18263   4.591   1.057  14.911 -0.0559  0.9812 -0.1924
  152DOPC  C31518264   4.533   0.860  14.845  0.3909  0.0594  0.2040
  152DOPC  H15X18265   4.467   0.779  14.883 -1.6051  1.1748 -0.7854
  152DOPC  H15Y18266   4.634   0.813  14.839 -0.0682 -0.9732  0.2935
  152DOPC  C31618267   4.486   0.911  14.705 -0.4696 -0.2465  0.3248
  152DOPC  H16X18268   4.378   0.936  14.700 -0.1366  1.3741  0.6423
  152DOPC  H16Y18269   4.537   1.000  14.663 -1.7552 -0.2275 -1.2893
  152DOPC  C31718270   4.516   0.804  14.599 -0.2153 -0.5131  0.0725
  152DOPC  H17X18271   4.523   0.851  14.499  0.7914  0.6709  0.6842
  152DOPC  H17Y18272   4.617   0.763  14.622  0.0321  0.4604  0.7735
  152DOPC  C31818273   4.417   0.688  14.599  0.1815  0.2579  0.2876
  152DOPC  H18X18274   4.424   0.612  14.681 -0.8897 -2.7734 -2.2240
  152DOPC  H18Y18275   4.308   0.708  14.602 -0.1295 -1.2954  0.4527
  152DOPC  H18Z18276   4.418   0.636  14.501 -0.6564 -0.2021  0.5113
  153DOPC     N18277   6.281   6.099  17.039  0.9413 -0.0259  0.0056
  153DOPC   C1218278   6.259   6.060  16.894 -0.6138  0.0779 -0.3351
  153DOPC  H12A18279   6.182   5.984  16.890  0.0796 -0.5704 -1.7052
  153DOPC  H12B18280   6.347   6.011  16.854  0.2936  2.0029 -0.7962
  153DOPC   C1318281   6.366   5.982  17.104 -0.4653 -1.3527 -0.5698
  153DOPC  H13A18282   6.461   5.968  17.054 -0.4204 -0.2847 -0.8175
  153DOPC  H13B18283   6.371   6.007  17.209 -0.3614 -0.0700 -0.8559
  153DOPC  H13C18284   6.314   5.889  17.090 -1.1274 -1.0923  0.0558
  153DOPC   C1418285   6.147   6.118  17.106 -0.0110  0.0833 -0.1786
  153DOPC  H14A18286   6.163   6.145  17.210  0.7412  0.3578 -0.3562
  153DOPC  H14B18287   6.094   6.196  17.054 -0.2622 -0.3649 -0.5970
  153DOPC  H14C18288   6.085   6.030  17.099  1.8757 -1.3143 -0.3267
  153DOPC   C1518289   6.371   6.218  17.064 -0.9016  0.0601  0.6228
  153DOPC  H15A18290   6.390   6.236  17.169 -0.5338 -0.7875  0.7103
  153DOPC  H15B18291   6.325   6.305  17.019  1.1685 -0.0148 -1.8541
  153DOPC  H15C18292   6.466   6.195  17.019 -1.1823 -0.2822  0.1979
  153DOPC   C1118293   6.219   6.162  16.783 -0.5899  0.0092 -0.7688
  153DOPC  H11A18294   6.191   6.102  16.693 -0.0862  1.4211 -1.9085
  153DOPC  H11B18295   6.121   6.211  16.805 -0.6361 -0.1205 -0.6831
  153DOPC     P18296   6.436   6.214  16.656  0.3791  0.4610  0.3394
  153DOPC   O1318297   6.481   6.075  16.688 -0.3508 -0.4795 -0.0812
  153DOPC   O1418298   6.533   6.324  16.670 -0.6151 -0.2659  0.4418
  153DOPC   O1218299   6.323   6.255  16.753 -0.3673  0.2121 -0.5235
  153DOPC   O1118300   6.374   6.215  16.505 -0.8000 -0.2845 -0.0848
  153DOPC    C118301   6.444   6.133  16.405 -0.0540  0.5054  0.1334
  153DOPC    HA18302   6.407   6.152  16.302  1.5683  0.3757 -0.5052
  153DOPC    HB18303   6.421   6.027  16.429 -4.2495  1.2501  0.0928
  153DOPC    C218304   6.605   6.151  16.396  0.8336 -0.1062  0.3204
  153DOPC    HS18305   6.649   6.101  16.485  0.0359 -2.1519 -0.3750
  153DOPC   O2118306   6.634   6.291  16.383  0.3859 -0.2550 -0.1999
  153DOPC   C2118307   6.748   6.334  16.435  0.1561 -0.2692  0.6550
  153DOPC   O2218308   6.829   6.270  16.504  0.0283  0.1755  0.0700
  153DOPC   C2218309   6.763   6.481  16.393  0.0920 -0.2947  0.2535
  153DOPC   H2R18310   6.792   6.543  16.480 -1.4558  0.3351  0.3680
  153DOPC   H2S18311   6.658   6.511  16.372 -0.7867 -3.1291  0.1086
  153DOPC    C318312   6.664   6.074  16.278 -0.0826  0.6633 -0.9884
  153DOPC    HX18313   6.775   6.075  16.281 -0.0855  1.4057  1.2603
  153DOPC    HY18314   6.639   6.115  16.178  2.5561 -0.7058 -2.3209
  153DOPC   O3118315   6.591   5.949  16.270 -0.6961 -0.2109 -0.0653
  153DOPC   C3118316   6.656   5.843  16.321  0.2450 -0.6108  0.1708
  153DOPC   O3218317   6.765   5.850  16.375 -0.1359 -0.3152 -0.2847
  153DOPC   C3218318   6.585   5.714  16.287 -0.4470  0.0134  0.0685
  153DOPC   H2X18319   6.613   5.631  16.356 -0.1545  1.5239  1.8255
  153DOPC   H2Y18320   6.477   5.734  16.302 -0.0779  2.8324 -0.5588
  153DOPC   C2318321   6.861   6.487  16.275  0.0766  0.3620  0.0623
  153DOPC   H3R18322   6.841   6.400  16.209  2.1629  0.2049 -0.4401
  153DOPC   H3S18323   6.958   6.454  16.319  0.0313 -0.3002 -0.3292
  153DOPC   C2418324   6.870   6.615  16.204  0.0367  0.2523 -0.2616
  153DOPC   H4R18325   6.887   6.698  16.275 -2.4356  0.6303 -0.0399
  153DOPC   H4S18326   6.774   6.641  16.156 -1.6453 -1.7270  1.8007
  153DOPC   C2518327   6.990   6.619  16.108  0.6324 -0.6007 -0.0240
  153DOPC   H5R18328   6.991   6.539  16.031 -0.6546 -0.3059 -0.3809
  153DOPC   H5S18329   7.076   6.600  16.174  0.9636  0.1796 -0.2201
  153DOPC   C2618330   7.013   6.763  16.050  0.0620 -0.4481 -0.0126
  153DOPC   H6R18331   6.927   6.810  15.997  1.5173  1.3130 -0.9685
  153DOPC   H6S18332   7.101   6.755  15.982  1.6336 -0.1477  1.8839
  153DOPC   C2718333   7.043   6.861  16.166 -0.4583 -0.4406  0.2723
  153DOPC   H7R18334   7.116   6.816  16.237 -0.6417 -0.2021  0.6116
  153DOPC   H7S18335   6.944   6.885  16.211 -0.9392  1.8196 -1.7681
  153DOPC   C2818336   7.100   7.001  16.116  0.0676  0.3408 -0.1183
  153DOPC   H8R18337   7.032   7.041  16.037 -1.1929 -0.8444  0.3348
  153DOPC   H8S18338   7.198   6.985  16.066 -1.0842  1.0467 -2.7971
  153DOPC   C2918339   7.125   7.086  16.233 -0.2389 -0.4914  0.2126
  153DOPC   H9R18340   7.213   7.062  16.295  0.5891 -1.1965 -1.1924
  153DOPC  C21018341   7.057   7.200  16.261 -1.5949  0.5129 -0.3900
  153DOPC  H10R18342   7.089   7.250  16.354 -1.4134  0.7705 -0.5899
  153DOPC  C21118343   6.944   7.263  16.178  0.1035 -0.1761 -0.0037
  153DOPC  H11R18344   6.845   7.234  16.219 -0.8709 -0.6893 -2.5533
  153DOPC  H11S18345   6.944   7.245  16.069  1.2463 -0.5433  0.0429
  153DOPC  C21218346   6.949   7.420  16.186 -0.2075  0.3289 -0.3404
  153DOPC  H12R18347   6.914   7.452  16.287  1.1381 -1.9535  0.9505
  153DOPC  H12S18348   6.875   7.462  16.115 -0.1754 -0.5794 -0.9222
  153DOPC  C21318349   7.082   7.483  16.144 -0.0367 -0.1668 -0.8996
  153DOPC  H13R18350   7.155   7.456  16.224 -2.0931 -1.2609  0.6959
  153DOPC  H13S18351   7.066   7.592  16.163 -1.2960  0.0309 -2.8647
  153DOPC  C21418352   7.144   7.467  16.005  0.3036  0.0188  0.5080
  153DOPC  H14R18353   7.172   7.360  15.993 -1.1481 -0.2520 -0.8931
  153DOPC  H14S18354   7.234   7.532  16.005 -0.0675  0.5389  0.9874
  153DOPC  C21518355   7.049   7.524  15.898  0.0061  0.8237  0.0609
  153DOPC  H15R18356   7.045   7.635  15.898 -1.6435  0.7974 -0.3216
  153DOPC  H15S18357   6.946   7.488  15.918  0.4630 -0.2913  0.4357
  153DOPC  C21618358   7.080   7.480  15.757  0.6984  0.5851  0.2173
  153DOPC  H16R18359   7.000   7.514  15.687  0.6428 -0.0897 -0.0544
  153DOPC  H16S18360   7.068   7.370  15.755  1.1273  0.5143 -2.2225
  153DOPC  C21718361   7.220   7.510  15.699  0.5390 -0.2801 -1.1109
  153DOPC  H17R18362   7.292   7.481  15.779  0.8516  1.3896 -0.7611
  153DOPC  H17S18363   7.232   7.618  15.680  1.1506  0.0479  0.9092
  153DOPC  C21818364   7.255   7.435  15.571 -0.8818  0.2941  0.1431
  153DOPC  H18R18365   7.194   7.476  15.487 -1.5794  2.1681  1.4999
  153DOPC  H18S18366   7.252   7.326  15.593  0.7504  0.1543 -0.1919
  153DOPC  H18T18367   7.361   7.454  15.543 -1.4614  0.2037 -2.3912
  153DOPC   C3318368   6.615   5.685  16.137 -0.3550  0.2559 -0.5245
  153DOPC   H3X18369   6.573   5.765  16.072  0.6863  0.0751 -1.4511
  153DOPC   H3Y18370   6.563   5.589  16.116  0.5154 -1.0884  2.8309
  153DOPC   C3418371   6.765   5.664  16.107  0.3473  0.7148  0.4903
  153DOPC   H4X18372   6.805   5.583  16.172  2.4213  2.7206  1.8696
  153DOPC   H4Y18373   6.833   5.751  16.121 -0.6159  1.3289  1.5555
  153DOPC   C3518374   6.775   5.611  15.967 -0.4412 -0.0571  0.3046
  153DOPC   H5X18375   6.737   5.686  15.895 -1.3501 -1.5883 -0.8867
  153DOPC   H5Y18376   6.719   5.515  15.955  0.3263 -0.3910 -0.7580
  153DOPC   C3618377   6.923   5.579  15.934  0.5982 -0.0180 -0.3334
  153DOPC   H6X18378   6.991   5.663  15.961  0.6164 -0.3821  0.7988
  153DOPC   H6Y18379   6.947   5.503  16.011  3.0158  2.9106  2.0439
  153DOPC   C3718380   6.961   5.535  15.791 -0.2684 -0.0225  0.5286
  153DOPC   H7X18381   7.066   5.499  15.785 -0.6426 -0.9365 -1.3756
  153DOPC   H7Y18382   6.892   5.450  15.770  0.5329 -1.1567  2.1677
  153DOPC   C3818383   6.946   5.643  15.686 -0.3150  0.0119  0.1995
  153DOPC   H8X18384   7.017   5.727  15.701 -0.9235  0.4188  0.8572
  153DOPC   H8Y18385   6.848   5.696  15.691 -0.5891  0.0544 -3.2513
  153DOPC   C3918386   6.971   5.587  15.546 -0.4510  0.5436  0.4373
  153DOPC   H9X18387   6.892   5.524  15.501 -1.2243 -1.3374  4.0467
  153DOPC  C31018388   7.071   5.618  15.465  0.4394 -0.4934 -0.0081
  153DOPC  H10X18389   7.071   5.586  15.360  1.6535  0.5960 -0.3766
  153DOPC  C31118390   7.187   5.717  15.483  0.6257  0.1610 -0.7025
  153DOPC  H11X18391   7.182   5.774  15.578  1.5718 -1.6871  0.5159
  153DOPC  H11Y18392   7.184   5.794  15.403  0.3403  0.2131 -0.6398
  153DOPC  C31218393   7.330   5.652  15.483  0.0915 -0.4364 -0.0096
  153DOPC  H12X18394   7.398   5.726  15.530  1.8412 -2.9943  1.6905
  153DOPC  H12Y18395   7.355   5.618  15.380 -1.2752 -1.7670  0.0614
  153DOPC  C31318396   7.344   5.529  15.574  0.2656 -0.3373 -0.4132
  153DOPC  H13X18397   7.284   5.556  15.664  0.0607 -0.2143 -0.5841
  153DOPC  H13Y18398   7.298   5.445  15.518 -1.1653  1.4992 -2.1796
  153DOPC  C31418399   7.492   5.506  15.609 -0.0144 -0.0398  0.4726
  153DOPC  H14X18400   7.553   5.498  15.517 -3.0584 -4.2376 -1.5080
  153DOPC  H14Y18401   7.527   5.583  15.681  0.0391 -1.1664  1.6911
  153DOPC  C31518402   7.513   5.380  15.686 -0.1956  0.5112  0.5773
  153DOPC  H15X18403   7.496   5.287  15.627  0.7967  0.1109  0.8897
  153DOPC  H15Y18404   7.442   5.369  15.770  0.0923  1.2745  0.9274
  153DOPC  C31618405   7.657   5.365  15.740  0.5226 -0.3301  0.0739
  153DOPC  H16X18406   7.726   5.360  15.653 -1.7913  0.2374 -1.9169
  153DOPC  H16Y18407   7.692   5.457  15.791  0.8979  0.6828 -1.8847
  153DOPC  C31718408   7.671   5.237  15.818 -0.2317  0.0190  0.5118
  153DOPC  H17X18409   7.664   5.255  15.928 -0.4323  0.2738  0.4574
  153DOPC  H17Y18410   7.587   5.169  15.790 -0.2573  0.3452 -0.2042
  153DOPC  C31818411   7.801   5.161  15.803 -0.0808  0.9808  0.1639
  153DOPC  H18X18412   7.783   5.064  15.855 -0.6025  0.4927 -0.9041
  153DOPC  H18Y18413   7.827   5.138  15.698  2.3592  3.7395  0.0345
  153DOPC  H18Z18414   7.886   5.212  15.853 -0.8995 -0.0954  2.8430
  154DOPC     N18415   6.945   2.764  17.073 -0.3410 -0.4150 -0.1408
  154DOPC   C1218416   6.934   2.856  16.945  0.5772  0.3485 -0.1635
  154DOPC  H12A18417   6.881   2.794  16.875 -0.6365  2.2660 -1.0392
  154DOPC  H12B18418   7.030   2.882  16.903  0.8695 -1.8042 -0.9213
  154DOPC   C1318419   7.005   2.638  17.035  0.0624  0.7631  0.3940
  154DOPC  H13A18420   6.969   2.594  16.944  2.3780 -2.0516  0.6983
  154DOPC  H13B18421   7.110   2.655  17.019 -0.0674  0.9697 -0.2528
  154DOPC  H13C18422   7.005   2.564  17.114  1.9520 -2.1033 -2.0721
  154DOPC   C1418423   6.807   2.731  17.116 -0.3801 -0.0486 -0.2356
  154DOPC  H14A18424   6.825   2.655  17.190  0.4347  1.0102  0.6930
  154DOPC  H14B18425   6.747   2.812  17.154 -0.7158 -0.0325 -0.7867
  154DOPC  H14C18426   6.750   2.695  17.032 -2.2302 -1.8345  1.6732
  154DOPC   C1518427   7.029   2.824  17.184  0.4716  0.0711  0.3728
  154DOPC  H15A18428   7.062   2.754  17.260  1.4768  2.0526  1.8615
  154DOPC  H15B18429   6.973   2.906  17.227  1.7028  1.0385  0.1886
  154DOPC  H15C18430   7.119   2.867  17.144  0.4857  2.0592  2.3637
  154DOPC   C1118431   6.841   2.978  16.964  0.2249 -0.2693  0.6234
  154DOPC  H11A18432   6.817   3.025  16.867 -2.9126 -0.1748  1.3481
  154DOPC  H11B18433   6.740   2.946  16.997 -0.2483  0.4914 -0.0817
  154DOPC     P18434   6.942   3.213  17.044 -0.2463 -0.2957 -0.4544
  154DOPC   O1318435   7.066   3.241  17.122 -0.2587  0.2035  0.3373
  154DOPC   O1418436   6.822   3.293  17.084 -0.2866 -0.0269 -0.0719
  154DOPC   O1218437   6.905   3.059  17.062 -0.4616  0.2557 -0.0152
  154DOPC   O1118438   6.981   3.244  16.893  0.4657  0.7402  0.5420
  154DOPC    C118439   7.116   3.199  16.856 -0.0714 -0.7270  0.2083
  154DOPC    HA18440   7.108   3.171  16.749  1.3716  0.3666 -0.2140
  154DOPC    HB18441   7.152   3.106  16.904 -0.5522 -1.8493 -1.5091
  154DOPC    C218442   7.219   3.317  16.853  0.0737 -0.7504 -0.3753
  154DOPC    HS18443   7.226   3.350  16.959  1.5987  0.6426 -0.8769
  154DOPC   O2118444   7.162   3.422  16.770 -0.7670  0.4069  0.0602
  154DOPC   C2118445   7.240   3.527  16.751  0.4769 -0.0484 -0.7285
  154DOPC   O2218446   7.331   3.562  16.818 -0.6991 -0.6476 -0.4116
  154DOPC   C2218447   7.203   3.595  16.622  0.3659 -0.3164  1.0608
  154DOPC   H2R18448   7.298   3.587  16.564  0.2637 -0.5618  0.9269
  154DOPC   H2S18449   7.178   3.703  16.628 -1.2159 -0.5695 -0.3608
  154DOPC    C318450   7.363   3.274  16.813  0.1809 -0.4845  0.2088
  154DOPC    HX18451   7.377   3.182  16.873  1.0572  1.2631  2.8422
  154DOPC    HY18452   7.436   3.353  16.841  0.0949 -0.8047  1.3929
  154DOPC   O3118453   7.372   3.266  16.672  0.0250 -0.3241 -0.0166
  154DOPC   C3118454   7.337   3.154  16.606  0.3708 -0.1353 -0.2875
  154DOPC   O3218455   7.283   3.057  16.659  0.0822  0.0238 -0.2323
  154DOPC   C3218456   7.365   3.178  16.459  0.5349 -0.4981  0.0606
  154DOPC   H2X18457   7.360   3.289  16.458 -1.0782 -0.5234  1.2579
  154DOPC   H2Y18458   7.468   3.158  16.424 -0.3132  0.2990 -3.2410
  154DOPC   C2318459   7.099   3.522  16.536 -0.3925 -0.2405 -0.2093
  154DOPC   H3R18460   7.002   3.565  16.570  1.0860  2.8814  0.3786
  154DOPC   H3S18461   7.104   3.411  16.547 -2.4918 -0.3995 -0.2989
  154DOPC   C2418462   7.117   3.557  16.388 -0.4782 -0.4650  0.5156
  154DOPC   H4R18463   7.216   3.528  16.348 -0.0018  1.8601 -0.1107
  154DOPC   H4S18464   7.121   3.667  16.373  1.4801 -0.8455 -2.4727
  154DOPC   C2518465   7.002   3.510  16.300 -0.1684  0.3302  0.0741
  154DOPC   H5R18466   6.905   3.551  16.334  0.6343  0.6356  2.1511
  154DOPC   H5S18467   6.983   3.402  16.318 -0.1890  0.6266  2.1125
  154DOPC   C2618468   7.032   3.529  16.148 -0.8584  0.1293 -0.1354
  154DOPC   H6R18469   7.137   3.493  16.139 -1.1144 -0.2774 -1.7298
  154DOPC   H6S18470   7.038   3.640  16.141 -2.5459  0.3446  1.3206
  154DOPC   C2718471   6.938   3.462  16.044  0.1166 -0.1370  0.2832
  154DOPC   H7R18472   6.838   3.492  16.083  0.6361  0.2881  1.3598
  154DOPC   H7S18473   6.955   3.353  16.040 -0.6389 -0.2173 -1.3969
  154DOPC   C2818474   6.965   3.525  15.913 -0.1416 -0.1450 -0.0468
  154DOPC   H8R18475   7.069   3.496  15.888  1.1323  2.4107  1.7495
  154DOPC   H8S18476   6.958   3.636  15.915 -1.4184 -0.2150  0.4190
  154DOPC   C2918477   6.857   3.483  15.808 -0.6456  0.0895 -0.5562
  154DOPC   H9R18478   6.757   3.458  15.846 -1.2174  2.8642  0.0449
  154DOPC  C21018479   6.876   3.472  15.680  0.0922 -0.6267  0.7957
  154DOPC  H10R18480   6.788   3.442  15.621  1.1447 -0.4237 -0.9348
  154DOPC  C21118481   6.995   3.497  15.587 -0.2511  0.1574  0.3459
  154DOPC  H11R18482   7.091   3.491  15.643 -1.0565  0.1362  1.7808
  154DOPC  H11S18483   6.981   3.590  15.529  0.5342  0.0831  0.0217
  154DOPC  C21218484   7.004   3.392  15.476 -0.1711  0.7849 -0.1014
  154DOPC  H12R18485   6.910   3.393  15.416 -1.0611 -1.4271  1.1652
  154DOPC  H12S18486   7.010   3.290  15.519 -0.4025  1.1788  0.8939
  154DOPC  C21318487   7.125   3.412  15.376 -0.2550 -0.2897 -0.6401
  154DOPC  H13R18488   7.220   3.418  15.433 -1.1093  3.3398  0.6518
  154DOPC  H13S18489   7.109   3.501  15.312  1.8754 -0.3700 -1.3378
  154DOPC  C21418490   7.154   3.284  15.299  0.2363  0.1987 -0.4870
  154DOPC  H14R18491   7.168   3.303  15.191  0.6008  0.0804 -0.4611
  154DOPC  H14S18492   7.058   3.229  15.313  0.2370  0.5579  1.1790
  154DOPC  C21518493   7.273   3.199  15.346 -0.5271  0.3454 -0.1666
  154DOPC  H15R18494   7.247   3.150  15.442  0.6773 -0.5008 -0.2529
  154DOPC  H15S18495   7.361   3.263  15.368 -0.7256  1.0887 -1.4544
  154DOPC  C21618496   7.307   3.093  15.245 -0.8015  0.2693 -0.5903
  154DOPC  H16R18497   7.355   3.134  15.154 -1.0481  0.7908 -0.4893
  154DOPC  H16S18498   7.211   3.044  15.217 -1.2505  0.9649 -0.2863
  154DOPC  C21718499   7.401   2.979  15.309 -0.1147 -0.4408 -0.2630
  154DOPC  H17R18500   7.349   2.923  15.390 -4.1948  0.0898 -2.2258
  154DOPC  H17S18501   7.484   3.034  15.358 -0.2625 -0.9503  0.5698
  154DOPC  C21818502   7.454   2.882  15.205  0.2213 -0.0151 -0.1371
  154DOPC  H18R18503   7.449   2.784  15.257  0.3163 -0.5238 -1.0532
  154DOPC  H18S18504   7.559   2.916  15.192 -0.0646  1.5699  1.3229
  154DOPC  H18T18505   7.398   2.887  15.109 -0.1002  0.4368  0.0698
  154DOPC   C3318506   7.277   3.087  16.369  0.5234 -0.6644 -0.3971
  154DOPC   H3X18507   7.173   3.115  16.393  0.5720 -0.5414 -0.3291
  154DOPC   H3Y18508   7.283   2.979  16.393 -1.0265 -0.6439  0.2036
  154DOPC   C3418509   7.307   3.090  16.220 -0.2367 -0.1868  0.1760
  154DOPC   H4X18510   7.250   3.008  16.171  1.1421  0.1702 -2.1663
  154DOPC   H4Y18511   7.412   3.058  16.208 -0.4598 -0.6678 -0.5914
  154DOPC   C3518512   7.278   3.228  16.160  0.0446 -0.0158  0.8958
  154DOPC   H5X18513   7.329   3.319  16.198  1.7857 -0.1048 -1.0169
  154DOPC   H5Y18514   7.168   3.231  16.155  0.1279  1.5670 -1.3739
  154DOPC   C3618515   7.323   3.254  16.012  0.2343  0.2722  0.1245
  154DOPC   H6X18516   7.278   3.349  15.974  0.5334  0.3765  0.0298
  154DOPC   H6Y18517   7.434   3.256  16.015  0.4000 -2.3452 -1.2801
  154DOPC   C3718518   7.290   3.138  15.915 -0.1457  0.2953  0.0578
  154DOPC   H7X18519   7.309   3.041  15.965 -0.9168  0.1275  0.0274
  154DOPC   H7Y18520   7.185   3.143  15.880 -0.1680  1.2666  0.2476
  154DOPC   C3818521   7.374   3.143  15.785  0.0954 -0.0017 -0.2061
  154DOPC   H8X18522   7.345   3.056  15.722 -0.4793 -1.6018  2.1256
  154DOPC   H8Y18523   7.481   3.150  15.811 -0.1760  2.9623  0.4241
  154DOPC   C3918524   7.321   3.265  15.711 -0.3133  0.1129  0.7157
  154DOPC   H9X18525   7.217   3.258  15.678 -0.1751  1.6352 -0.1475
  154DOPC  C31018526   7.385   3.380  15.681 -0.2373  0.5649 -0.3728
  154DOPC  H10X18527   7.331   3.457  15.624 -1.1786 -0.4403 -0.8797
  154DOPC  C31118528   7.521   3.424  15.710 -0.9340  0.5761  0.0089
  154DOPC  H11X18529   7.552   3.389  15.811 -0.4836  2.0786  0.4194
  154DOPC  H11Y18530   7.524   3.535  15.713 -0.8990  0.5918 -0.5124
  154DOPC  C31218531   7.620   3.374  15.603 -0.3223 -0.4177 -0.9627
  154DOPC  H12X18532   7.611   3.263  15.603  0.7397 -0.5131 -0.5359
  154DOPC  H12Y18533   7.723   3.408  15.629 -0.7333  0.1459 -0.0149
  154DOPC  C31318534   7.596   3.441  15.470 -0.2252 -0.3942  0.3303
  154DOPC  H13X18535   7.494   3.423  15.429  0.3972  1.1617 -2.0875
  154DOPC  H13Y18536   7.616   3.549  15.484  2.4232 -0.6008 -1.1148
  154DOPC  C31418537   7.705   3.404  15.372  0.0932  0.3726  0.5539
  154DOPC  H14X18538   7.686   3.465  15.281  0.4023 -1.1831 -0.5959
  154DOPC  H14Y18539   7.805   3.428  15.414  0.5683 -1.0449  0.3011
  154DOPC  C31518540   7.706   3.257  15.328 -0.3263 -0.4729 -0.3569
  154DOPC  H15X18541   7.599   3.233  15.307 -0.3825 -2.6719  1.9619
  154DOPC  H15Y18542   7.729   3.199  15.420 -1.7073  1.5108  1.3509
  154DOPC  C31618543   7.794   3.241  15.205 -0.2525 -0.1851 -0.8869
  154DOPC  H16X18544   7.791   3.337  15.150  0.6012  1.1008  1.1837
  154DOPC  H16Y18545   7.895   3.214  15.243 -0.8602 -4.1807 -1.6579
  154DOPC  C31718546   7.756   3.122  15.127  0.0169  0.0853  0.5786
  154DOPC  H17X18547   7.797   3.036  15.184  1.1207  0.6408  0.6482
  154DOPC  H17Y18548   7.646   3.105  15.126 -0.3108  2.0067  0.2489
  154DOPC  C31818549   7.813   3.121  14.982  0.0837  0.3118  0.0119
  154DOPC  H18X18550   7.757   3.200  14.928 -2.5284 -0.2562  1.7339
  154DOPC  H18Y18551   7.924   3.133  14.980  0.1129  0.3827  1.1464
  154DOPC  H18Z18552   7.791   3.020  14.942 -0.3651  0.6902 -0.7112
  155DOPC     N18553   1.565   0.836  17.329 -0.2567  0.3068  0.4210
  155DOPC   C1218554   1.620   0.902  17.201 -0.0082  0.8005 -0.0826
  155DOPC  H12A18555   1.581   0.851  17.114 -1.7815 -0.1516  1.2145
  155DOPC  H12B18556   1.728   0.895  17.198 -0.0826 -0.3393 -0.3245
  155DOPC   C1318557   1.416   0.852  17.350 -0.1893 -0.8809  0.2508
  155DOPC  H13A18558   1.399   0.958  17.365  0.5662 -0.4669 -1.5391
  155DOPC  H13B18559   1.350   0.821  17.271 -2.0111 -2.6594  2.3333
  155DOPC  H13C18560   1.380   0.797  17.436 -1.5101  0.3308  0.5053
  155DOPC   C1418561   1.630   0.878  17.460 -0.5682 -0.1766 -0.0596
  155DOPC  H14A18562   1.596   0.974  17.497 -2.7806 -0.3609 -1.4207
  155DOPC  H14B18563   1.592   0.807  17.532  0.9779  1.0575  2.0942
  155DOPC  H14C18564   1.737   0.864  17.460 -0.7474 -1.7622 -0.5383
  155DOPC   C1518565   1.578   0.689  17.322  0.0695  0.2897 -0.2441
  155DOPC  H15A18566   1.673   0.655  17.283  0.6478  1.2394  0.3053
  155DOPC  H15B18567   1.509   0.646  17.250  0.8855 -0.1035 -0.8019
  155DOPC  H15C18568   1.546   0.640  17.413 -0.3384 -2.3442 -1.6814
  155DOPC   C1118569   1.568   1.043  17.164 -0.3759 -0.4544 -0.1156
  155DOPC  H11A18570   1.594   1.056  17.057 -2.1382 -2.1135 -0.8067
  155DOPC  H11B18571   1.457   1.038  17.168 -0.3423 -0.8313  0.4206
  155DOPC     P18572   1.751   1.208  17.277  0.1227  0.3587  0.1828
  155DOPC   O1318573   1.858   1.105  17.265  0.1657  0.7241  0.5683
  155DOPC   O1418574   1.752   1.293  17.402  0.0560 -0.6541 -0.0761
  155DOPC   O1218575   1.611   1.153  17.242  0.2071  0.1563 -0.0116
  155DOPC   O1118576   1.772   1.296  17.154 -0.3780 -0.1461  0.3982
  155DOPC    C118577   1.686   1.399  17.119 -0.4171 -0.0831  0.0411
  155DOPC    HA18578   1.724   1.503  17.120 -2.7601  0.8357  1.7430
  155DOPC    HB18579   1.602   1.410  17.191  0.0119  0.9130  0.4083
  155DOPC    C218580   1.638   1.364  16.977  0.1090  0.2054 -0.3345
  155DOPC    HS18581   1.594   1.263  16.968  1.8085 -0.4380 -2.3745
  155DOPC   O2118582   1.741   1.379  16.882  0.3719 -0.0534  0.2888
  155DOPC   C2118583   1.737   1.298  16.779 -0.3547  0.0142 -0.3516
  155DOPC   O2218584   1.667   1.199  16.768  0.4072 -0.5722 -0.3613
  155DOPC   C2218585   1.853   1.333  16.690 -0.0384 -0.2020 -0.0007
  155DOPC   H2R18586   1.950   1.316  16.743  0.8939  0.4358 -1.4371
  155DOPC   H2S18587   1.850   1.441  16.664 -0.1642  0.2413  1.7113
  155DOPC    C318588   1.524   1.465  16.934  0.5442  0.4146 -0.6607
  155DOPC    HX18589   1.578   1.562  16.931  1.9672 -0.1817  2.0390
  155DOPC    HY18590   1.445   1.460  17.012 -0.3223 -0.2551 -1.5566
  155DOPC   O3118591   1.461   1.431  16.810 -0.7642 -0.2914 -0.1418
  155DOPC   C3118592   1.384   1.330  16.796  0.2136 -0.1571 -0.1497
  155DOPC   O3218593   1.348   1.262  16.891 -0.5756 -0.1424 -0.6958
  155DOPC   C3218594   1.325   1.326  16.655  0.4516 -0.0518  0.5366
  155DOPC   H2X18595   1.292   1.220  16.648 -1.3285  0.3868  1.6156
  155DOPC   H2Y18596   1.246   1.404  16.655  2.1737  1.7709 -0.7241
  155DOPC   C2318597   1.838   1.255  16.560 -0.0674  0.3371  0.5085
  155DOPC   H3R18598   1.740   1.286  16.518 -0.2388  2.4525  2.2971
  155DOPC   H3S18599   1.844   1.145  16.577  0.5797  0.4776  1.2691
  155DOPC   C2418600   1.944   1.298  16.446  0.2100  0.1467 -0.4933
  155DOPC   H4R18601   1.921   1.233  16.358 -1.5615 -1.0902  0.8229
  155DOPC   H4S18602   2.046   1.268  16.479 -0.7445 -1.1686  1.4604
  155DOPC   C2518603   1.938   1.447  16.405  0.1706  0.4112 -0.5453
  155DOPC   H5R18604   1.981   1.522  16.475  0.0819 -1.1393  1.2195
  155DOPC   H5S18605   1.831   1.477  16.401 -0.2841 -0.5844  2.3795
  155DOPC   C2618606   1.997   1.478  16.266  0.3466 -0.2815  0.3218
  155DOPC   H6R18607   1.937   1.418  16.194  0.9588 -0.5939  0.0647
  155DOPC   H6S18608   2.100   1.438  16.276  0.7166  0.6597  0.3388
  155DOPC   C2718609   1.977   1.626  16.236  0.0595 -0.2253  0.2152
  155DOPC   H7R18610   2.055   1.677  16.295  2.0515 -1.1929 -1.4197
  155DOPC   H7S18611   1.880   1.669  16.266  0.7347  1.6900 -0.2115
  155DOPC   C2818612   2.000   1.671  16.090  0.1085 -0.8860 -0.4207
  155DOPC   H8R18613   1.939   1.764  16.089 -1.2794 -1.6559  2.7201
  155DOPC   H8S18614   1.952   1.594  16.026 -2.5083 -0.4743  0.8928
  155DOPC   C2918615   2.147   1.688  16.054 -0.3261 -0.2988  0.0109
  155DOPC   H9R18616   2.199   1.592  16.038 -2.4409 -1.7976  1.7143
  155DOPC  C21018617   2.218   1.800  16.075  0.2226 -0.4535  0.7156
  155DOPC  H10R18618   2.325   1.783  16.056  0.1247 -0.9420  0.5737
  155DOPC  C21118619   2.173   1.938  16.120 -0.3909 -0.6021  0.0849
  155DOPC  H11R18620   2.237   1.985  16.198  0.4416  1.2554 -1.6387
  155DOPC  H11S18621   2.065   1.936  16.149 -0.4046  1.3349  0.3289
  155DOPC  C21218622   2.185   2.038  16.001 -0.4449 -0.4013 -0.1248
  155DOPC  H12R18623   2.121   2.002  15.917 -0.9952 -0.0909  0.1594
  155DOPC  H12S18624   2.291   2.048  15.968 -0.2293 -0.3711  0.5570
  155DOPC  C21318625   2.134   2.177  16.038  0.1513 -0.2179  0.3134
  155DOPC  H13R18626   2.196   2.217  16.121  1.8655  1.5257 -1.6662
  155DOPC  H13S18627   2.025   2.169  16.056 -0.1355  0.9932 -0.7524
  155DOPC  C21418628   2.172   2.282  15.934  0.6103 -0.4563  0.7278
  155DOPC  H14R18629   2.125   2.269  15.834  1.2119 -0.8456  0.4884
  155DOPC  H14S18630   2.282   2.276  15.917  1.0170 -1.2212  3.2781
  155DOPC  C21518631   2.127   2.422  15.981  0.0361  0.2670  0.5465
  155DOPC  H15R18632   2.158   2.452  16.084 -1.9481  0.9085  0.9956
  155DOPC  H15S18633   2.017   2.415  15.979  0.0101  0.7312  0.1960
  155DOPC  C21618634   2.186   2.524  15.881 -0.4880 -0.2812 -0.1008
  155DOPC  H16R18635   2.163   2.494  15.776 -3.1897 -1.2675  0.6902
  155DOPC  H16S18636   2.297   2.523  15.895 -0.6649  0.6651  1.6037
  155DOPC  C21718637   2.126   2.662  15.899 -0.3021 -0.1015  0.3886
  155DOPC  H17R18638   2.180   2.728  15.828 -1.2359 -0.7064 -0.9338
  155DOPC  H17S18639   2.136   2.695  16.005 -1.2121  1.0344  0.1432
  155DOPC  C21818640   1.966   2.669  15.872  0.2295  0.5457  0.1872
  155DOPC  H18R18641   1.920   2.570  15.893  0.3952  0.2084 -0.9572
  155DOPC  H18S18642   1.935   2.679  15.766  0.5468 -2.2816 -0.2718
  155DOPC  H18T18643   1.916   2.752  15.926  2.3386  1.6314  0.5711
  155DOPC   C3318644   1.423   1.350  16.536 -0.2556 -0.0200 -0.3728
  155DOPC   H3X18645   1.499   1.269  16.535  0.8160  0.9590 -0.1642
  155DOPC   H3Y18646   1.473   1.449  16.548 -1.1703  0.3799  0.2684
  155DOPC   C3418647   1.355   1.369  16.401 -0.1611  0.4807  0.0422
  155DOPC   H4X18648   1.430   1.373  16.319 -2.6889 -1.9907 -2.6480
  155DOPC   H4Y18649   1.309   1.471  16.402 -1.1454  0.0428  0.1030
  155DOPC   C3518650   1.247   1.275  16.352 -0.3064 -0.7005 -0.2722
  155DOPC   H5X18651   1.155   1.299  16.408 -0.3323  0.4596 -0.7794
  155DOPC   H5Y18652   1.269   1.171  16.385  0.9390  0.8374  4.5625
  155DOPC   C3618653   1.228   1.292  16.198 -0.2457 -0.4589 -0.5917
  155DOPC   H6X18654   1.121   1.274  16.175 -0.1396 -1.5041 -0.2881
  155DOPC   H6Y18655   1.242   1.402  16.183  1.1447 -0.4183  0.6979
  155DOPC   C3718656   1.324   1.214  16.107  0.1659 -0.4487  0.2507
  155DOPC   H7X18657   1.428   1.213  16.146  0.1960 -1.2067  0.1654
  155DOPC   H7Y18658   1.287   1.109  16.105 -0.1135 -0.3405 -0.6732
  155DOPC   C3818659   1.344   1.266  15.967  0.0198 -0.2220  1.0438
  155DOPC   H8X18660   1.435   1.224  15.921 -1.2752 -1.1589 -0.7923
  155DOPC   H8Y18661   1.354   1.377  15.974 -0.6675 -0.0774 -0.0349
  155DOPC   C3918662   1.231   1.242  15.868  0.0783 -0.0097  0.3832
  155DOPC   H9X18663   1.216   1.141  15.828  0.8252 -0.4744  1.2359
  155DOPC  C31018664   1.155   1.336  15.803  0.0143  0.0931 -0.2430
  155DOPC  H10X18665   1.079   1.316  15.726  2.8418  1.2697 -3.6331
  155DOPC  C31118666   1.168   1.484  15.823  0.1725 -0.3362 -0.0924
  155DOPC  H11X18667   1.198   1.500  15.929 -0.1318  0.7422 -0.1570
  155DOPC  H11Y18668   1.070   1.533  15.806 -0.5180 -1.8556 -0.6658
  155DOPC  C31218669   1.260   1.531  15.709 -0.6494  0.2844  0.1533
  155DOPC  H12X18670   1.361   1.484  15.715  0.6158  2.8147  0.1569
  155DOPC  H12Y18671   1.293   1.633  15.736  0.3420 -0.8546  3.8295
  155DOPC  C31318672   1.208   1.530  15.564 -0.0792 -0.1516 -0.4545
  155DOPC  H13X18673   1.286   1.579  15.502 -0.2739  0.7280 -0.0187
  155DOPC  H13Y18674   1.195   1.425  15.530  0.3971 -0.5315  0.5080
  155DOPC  C31418675   1.078   1.597  15.539  0.2856 -0.1791 -0.3398
  155DOPC  H14X18676   0.991   1.540  15.578 -0.0848  0.8076  0.3073
  155DOPC  H14Y18677   1.063   1.698  15.583  1.6585 -0.0110 -0.2054
  155DOPC  C31518678   1.046   1.597  15.388 -0.3648 -0.0021  0.3058
  155DOPC  H15X18679   1.052   1.496  15.342  2.2005  0.1528  0.1570
  155DOPC  H15Y18680   1.127   1.659  15.342 -0.7627 -1.9047 -3.2923
  155DOPC  C31618681   0.909   1.659  15.343  0.5585 -0.1146  0.6697
  155DOPC  H16X18682   0.827   1.587  15.368 -0.0776  0.1655 -0.5201
  155DOPC  H16Y18683   0.893   1.757  15.393  3.9536  0.1891  1.4189
  155DOPC  C31718684   0.897   1.667  15.186  0.6012 -0.7891 -1.1886
  155DOPC  H17X18685   0.790   1.683  15.163  0.8943  2.8566 -0.5124
  155DOPC  H17Y18686   0.936   1.765  15.153 -1.9610  0.0227 -1.9912
  155DOPC  C31818687   0.955   1.550  15.101 -0.4108  0.3377  0.1364
  155DOPC  H18X18688   1.066   1.545  15.111 -0.3823  0.0267 -0.2896
  155DOPC  H18Y18689   0.909   1.457  15.141 -4.0986  1.7184 -0.5322
  155DOPC  H18Z18690   0.926   1.552  14.994 -1.5979 -0.0920  0.4298
  156DOPC     N18691   7.312   6.649  17.307 -0.6074 -0.0254  0.2976
  156DOPC   C1218692   7.459   6.614  17.293 -0.4471  0.3174  0.8092
  156DOPC  H12A18693   7.472   6.507  17.283 -0.3523  0.4219 -0.3521
  156DOPC  H12B18694   7.512   6.647  17.381  1.7006  0.0394 -0.3024
  156DOPC   C1318695   7.304   6.794  17.343  0.6512  0.4268  0.0569
  156DOPC  H13A18696   7.363   6.847  17.270 -1.6564  2.3951 -0.5273
  156DOPC  H13B18697   7.204   6.835  17.341  1.1241  2.0010  2.6513
  156DOPC  H13C18698   7.352   6.811  17.439 -0.0726  1.0751  0.3149
  156DOPC   C1418699   7.248   6.571  17.416 -0.4112  0.1242 -0.3719
  156DOPC  H14A18700   7.298   6.559  17.511 -1.6935 -2.7142  0.0379
  156DOPC  H14B18701   7.151   6.610  17.444 -1.1449 -0.6564 -1.6979
  156DOPC  H14C18702   7.235   6.467  17.389  2.1271 -0.9487  2.0336
  156DOPC   C1518703   7.236   6.624  17.187 -0.1443 -0.0849  0.4869
  156DOPC  H15A18704   7.139   6.670  17.201 -0.7766 -0.6226 -1.6374
  156DOPC  H15B18705   7.233   6.517  17.174 -0.5714  0.2476 -3.9337
  156DOPC  H15C18706   7.288   6.667  17.103  0.0584  2.3373  1.7565
  156DOPC   C1118707   7.538   6.680  17.176 -0.7260 -0.5822 -0.2690
  156DOPC  H11A18708   7.533   6.790  17.191  0.7675 -0.6672  1.2763
  156DOPC  H11B18709   7.648   6.668  17.190 -0.7131  0.9135  1.4845
  156DOPC     P18710   7.541   6.521  16.958 -0.1670 -0.1699 -0.5061
  156DOPC   O1318711   7.430   6.423  16.948 -0.1435  0.3280  0.4066
  156DOPC   O1418712   7.663   6.468  17.024  0.2718  0.1505 -0.1986
  156DOPC   O1218713   7.493   6.647  17.044  0.0358  0.1142  0.4600
  156DOPC   O1118714   7.580   6.587  16.819 -0.2836 -0.6644  0.1774
  156DOPC    C118715   7.489   6.640  16.723  0.3243 -0.4894  0.2852
  156DOPC    HA18716   7.548   6.710  16.659 -0.5850  0.8335  0.8509
  156DOPC    HB18717   7.400   6.693  16.763 -0.9746 -0.3881 -2.4506
  156DOPC    C218718   7.439   6.530  16.631 -0.5542  0.2496 -0.1348
  156DOPC    HS18719   7.359   6.488  16.696  0.4091 -0.7313  0.4513
  156DOPC   O2118720   7.549   6.451  16.584 -0.2743 -0.3550 -0.0681
  156DOPC   C2118721   7.522   6.327  16.583 -0.3584  0.0482  0.2026
  156DOPC   O2218722   7.407   6.281  16.588 -0.3299  0.3157 -0.1036
  156DOPC   C2218723   7.645   6.237  16.579  0.3324  0.2547 -0.0280
  156DOPC   H2R18724   7.650   6.187  16.678  0.4448 -0.6163 -0.4715
  156DOPC   H2S18725   7.742   6.290  16.569  1.3194 -0.9409  2.4071
  156DOPC    C318726   7.367   6.582  16.505 -0.4110  0.4517 -0.1310
  156DOPC    HX18727   7.302   6.513  16.447  1.0205 -2.4937  1.5857
  156DOPC    HY18728   7.447   6.607  16.433 -0.0003  1.2347  0.5841
  156DOPC   O3118729   7.310   6.709  16.528 -0.3717  0.1307  0.8411
  156DOPC   C3118730   7.181   6.712  16.568  1.1529  0.5951  1.0902
  156DOPC   O3218731   7.111   6.611  16.575  0.1143  0.0964 -0.0342
  156DOPC   C3218732   7.133   6.856  16.581  0.2638 -0.1643 -0.0884
  156DOPC   H2X18733   7.207   6.902  16.650 -0.4576  1.9543 -0.6640
  156DOPC   H2Y18734   7.148   6.910  16.485 -1.6293 -0.5546 -0.6439
  156DOPC   C2318735   7.633   6.117  16.480  0.7538  0.4394  0.3390
  156DOPC   H3R18736   7.547   6.055  16.512  1.1811  0.7995  2.3142
  156DOPC   H3S18737   7.723   6.054  16.496  0.7592  0.3720  0.0382
  156DOPC   C2418738   7.611   6.140  16.331 -0.0700  0.0679 -0.7162
  156DOPC   H4R18739   7.602   6.038  16.288 -3.7785  0.0072 -0.0697
  156DOPC   H4S18740   7.701   6.186  16.285  0.4931 -0.6662 -0.3795
  156DOPC   C2518741   7.493   6.229  16.293 -0.1700 -0.9186  0.1505
  156DOPC   H5R18742   7.503   6.330  16.336 -1.0586 -0.7658  0.0089
  156DOPC   H5S18743   7.394   6.192  16.327  0.6926 -0.1956  3.8853
  156DOPC   C2618744   7.480   6.231  16.136  0.4040 -0.3181  0.6562
  156DOPC   H6R18745   7.437   6.137  16.096 -0.0394  0.5320 -0.9140
  156DOPC   H6S18746   7.579   6.256  16.093 -0.0704  0.8966  0.2509
  156DOPC   C2718747   7.384   6.339  16.083  0.3978  0.0832  0.3365
  156DOPC   H7R18748   7.425   6.433  16.127  2.4769 -0.1188 -1.0547
  156DOPC   H7S18749   7.287   6.308  16.127 -0.8786  2.3893 -0.7017
  156DOPC   C2818750   7.378   6.337  15.930  0.0277 -0.2135  0.3177
  156DOPC   H8R18751   7.343   6.239  15.890  0.6561  1.0361 -3.7612
  156DOPC   H8S18752   7.482   6.341  15.890 -0.0870 -0.2003  0.0228
  156DOPC   C2918753   7.300   6.457  15.876  0.4830 -0.0222 -0.7522
  156DOPC   H9R18754   7.323   6.551  15.929 -0.4907 -0.3056  0.1898
  156DOPC  C21018755   7.186   6.458  15.801 -0.2780  0.6345 -0.8559
  156DOPC  H10R18756   7.136   6.556  15.800 -0.4177  0.6747  1.9192
  156DOPC  C21118757   7.121   6.341  15.739  1.1961 -0.3344 -0.1410
  156DOPC  H11R18758   7.011   6.354  15.733  1.4946  3.0179 -0.3194
  156DOPC  H11S18759   7.138   6.249  15.798 -2.9420 -1.5810 -0.5756
  156DOPC  C21218760   7.162   6.309  15.595 -0.1249 -0.1715 -0.1651
  156DOPC  H12R18761   7.149   6.392  15.523  0.9117 -0.4713 -0.7240
  156DOPC  H12S18762   7.097   6.226  15.559 -1.5494  1.0790 -0.5797
  156DOPC  C21318763   7.304   6.257  15.586 -0.1589  0.3530  0.5567
  156DOPC  H13R18764   7.328   6.184  15.666  0.1241 -0.1202  0.0515
  156DOPC  H13S18765   7.373   6.344  15.600  0.0611  0.2538  0.1199
  156DOPC  C21418766   7.328   6.190  15.451 -0.1585  0.1404 -0.1100
  156DOPC  H14R18767   7.306   6.264  15.371  0.2775  0.3121 -0.0710
  156DOPC  H14S18768   7.264   6.100  15.442 -0.8033  0.5715  0.0790
  156DOPC  C21518769   7.468   6.143  15.417 -0.3620  0.3814  0.1617
  156DOPC  H15R18770   7.500   6.066  15.490 -2.8481 -1.3906 -0.4781
  156DOPC  H15S18771   7.533   6.232  15.423 -1.7959  1.6817 -2.1245
  156DOPC  C21618772   7.491   6.071  15.280  0.0939 -0.4683  0.8377
  156DOPC  H16R18773   7.588   6.106  15.240 -0.3280  0.1752  0.3628
  156DOPC  H16S18774   7.417   6.110  15.207  1.0911  0.2723  0.1815
  156DOPC  C21718775   7.483   5.929  15.273  0.2303 -0.2636 -0.2547
  156DOPC  H17R18776   7.414   5.890  15.351  0.1626  2.2167  1.0125
  156DOPC  H17S18777   7.580   5.883  15.301 -0.1260 -0.1460  1.2323
  156DOPC  C21818778   7.451   5.882  15.129 -0.0172  0.3839 -0.5489
  156DOPC  H18R18779   7.357   5.929  15.094 -1.4773 -1.5674  0.5969
  156DOPC  H18S18780   7.433   5.772  15.119 -1.2861  0.6964 -2.0185
  156DOPC  H18T18781   7.535   5.908  15.060 -0.2129  3.9153  0.3920
  156DOPC   C3318782   6.990   6.875  16.630  0.5559 -0.2139  0.4322
  156DOPC   H3X18783   6.976   6.980  16.662 -1.2860  0.1544 -1.3366
  156DOPC   H3Y18784   6.971   6.806  16.715  0.8519 -3.3607 -1.8375
  156DOPC   C3418785   6.879   6.859  16.520  0.1422  0.2309 -0.0919
  156DOPC   H4X18786   6.883   6.759  16.472  2.0416  0.9116 -1.4773
  156DOPC   H4Y18787   6.899   6.936  16.441 -0.5930 -0.0784 -0.5918
  156DOPC   C3518788   6.741   6.895  16.583 -0.0994 -0.3410  0.1031
  156DOPC   H5X18789   6.752   6.984  16.649 -1.4775  0.2691 -0.4540
  156DOPC   H5Y18790   6.707   6.812  16.648 -1.5576  0.0458 -0.1386
  156DOPC   C3618791   6.624   6.927  16.493  0.4598 -0.3542  0.4499
  156DOPC   H6X18792   6.585   6.834  16.447  1.0048 -0.9942  1.2444
  156DOPC   H6Y18793   6.538   6.958  16.556 -0.8806 -1.2729 -0.8611
  156DOPC   C3718794   6.637   7.039  16.388  0.2702 -0.7538  0.1745
  156DOPC   H7X18795   6.656   7.128  16.452  0.5714 -1.7961  1.5760
  156DOPC   H7Y18796   6.721   7.032  16.316 -0.0661  1.0404 -0.4468
  156DOPC   C3818797   6.517   7.047  16.288  0.4803  0.0036 -0.0898
  156DOPC   H8X18798   6.515   7.155  16.262  1.9832  0.3711  1.1905
  156DOPC   H8Y18799   6.423   7.024  16.344  0.7104 -1.0357 -0.1100
  156DOPC   C3918800   6.542   6.951  16.166  0.7447  0.5497 -1.1306
  156DOPC   H9X18801   6.542   6.846  16.199  1.2940  0.8845 -0.0393
  156DOPC  C31018802   6.571   6.982  16.039  0.4752 -0.3974  0.2319
  156DOPC  H10X18803   6.577   6.906  15.960 -0.2280 -0.0613 -0.1609
  156DOPC  C31118804   6.589   7.129  15.986 -0.4742 -0.1829  0.7314
  156DOPC  H11X18805   6.672   7.179  16.040  1.4675 -2.0552 -0.3722
  156DOPC  H11Y18806   6.499   7.191  16.003  0.5589  1.2958  0.9770
  156DOPC  C31218807   6.625   7.124  15.836  0.1386 -0.2084  0.3099
  156DOPC  H12X18808   6.634   7.230  15.805  0.2895 -0.5778 -0.9731
  156DOPC  H12Y18809   6.533   7.089  15.784 -0.2968  0.5721  0.5462
  156DOPC  C31318810   6.754   7.049  15.810  0.0711 -0.3378 -0.0207
  156DOPC  H13X18811   6.830   7.123  15.778 -0.6770  0.6269  0.3861
  156DOPC  H13Y18812   6.791   7.002  15.904  2.4977 -1.3979 -1.3964
  156DOPC  C31418813   6.741   6.935  15.712 -0.2667  0.5268  0.1205
  156DOPC  H14X18814   6.679   6.851  15.752 -1.6308  1.1117 -0.6756
  156DOPC  H14Y18815   6.686   6.961  15.619  0.8002 -2.0896 -1.3325
  156DOPC  C31518816   6.876   6.876  15.676 -0.2580  0.3332  0.0178
  156DOPC  H15X18817   6.930   6.852  15.770 -3.8552 -0.3528  2.1079
  156DOPC  H15Y18818   6.930   6.951  15.615 -0.3699 -0.1260 -0.6574
  156DOPC  C31618819   6.877   6.748  15.591  0.4856  1.1493 -0.3273
  156DOPC  H16X18820   6.814   6.761  15.501  0.0374  0.8804 -0.0522
  156DOPC  H16Y18821   6.982   6.734  15.555 -0.3339  0.4915 -2.6241
  156DOPC  C31718822   6.834   6.618  15.664  0.3244  0.2274  0.0790
  156DOPC  H17X18823   6.910   6.588  15.740  0.0884 -0.3169  0.1093
  156DOPC  H17Y18824   6.742   6.642  15.722  1.0441 -0.0443  1.3844
  156DOPC  C31818825   6.813   6.509  15.557  0.1082  0.3105  0.2676
  156DOPC  H18X18826   6.722   6.534  15.498  0.0200  0.5304  0.4946
  156DOPC  H18Y18827   6.890   6.504  15.478  0.2876  1.0486  0.3906
  156DOPC  H18Z18828   6.802   6.415  15.617  1.1844  0.1440  0.2245
  157DOPC     N18829   6.732   2.015  16.944 -0.2783 -0.0268 -0.0493
  157DOPC   C1218830   6.760   1.881  17.015  0.3110 -0.1688 -0.4418
  157DOPC  H12A18831   6.743   1.891  17.122  1.1610 -1.2877 -0.1773
  157DOPC  H12B18832   6.863   1.854  17.000  0.4807  0.4447 -0.4061
  157DOPC   C1318833   6.837   2.114  16.987 -0.4787  0.9288 -0.4666
  157DOPC  H13A18834   6.801   2.208  16.950  0.4089  0.9201 -1.3915
  157DOPC  H13B18835   6.839   2.119  17.095  1.7891 -0.9839 -0.3250
  157DOPC  H13C18836   6.936   2.091  16.950 -0.4399  1.4083 -0.6550
  157DOPC   C1418837   6.593   2.061  16.974  0.0379  0.0165  0.0231
  157DOPC  H14A18838   6.521   1.981  16.976 -1.2624  1.1309 -0.4357
  157DOPC  H14B18839   6.587   2.120  17.065 -0.0099  0.0521 -0.0031
  157DOPC  H14C18840   6.568   2.126  16.891  2.8417 -0.2393 -1.1406
  157DOPC   C1518841   6.750   1.992  16.797  0.7537  0.0619  0.2301
  157DOPC  H15A18842   6.738   2.085  16.742  3.4009 -0.4843 -1.4478
  157DOPC  H15B18843   6.672   1.930  16.754  0.4565  0.9900 -0.6334
  157DOPC  H15C18844   6.850   1.959  16.774  0.7507  0.6926 -0.7626
  157DOPC   C1118845   6.670   1.762  16.973  0.9670  0.8884 -0.3665
  157DOPC  H11A18846   6.680   1.755  16.863  0.5116  0.7514 -0.3993
  157DOPC  H11B18847   6.712   1.665  17.008  0.6608  0.1462 -1.9555
  157DOPC     P18848   6.422   1.672  16.979 -0.0562  0.5454  0.1042
  157DOPC   O1318849   6.297   1.740  17.000 -0.0005 -0.0045 -0.2560
  157DOPC   O1418850   6.446   1.549  17.054 -0.0102 -0.4947  0.0992
  157DOPC   O1218851   6.534   1.770  17.013 -0.1924 -0.3528  0.1733
  157DOPC   O1118852   6.436   1.630  16.831  0.3471 -0.4843  0.3292
  157DOPC    C118853   6.448   1.732  16.726  0.0688 -0.6388 -0.1367
  157DOPC    HA18854   6.517   1.695  16.648  0.3700 -1.0868  0.3377
  157DOPC    HB18855   6.482   1.833  16.760 -0.2956 -0.1796 -1.1036
  157DOPC    C218856   6.302   1.769  16.669 -0.2761 -0.5209  0.0555
  157DOPC    HS18857   6.234   1.797  16.752  0.2613  2.0016 -0.2583
  157DOPC   O2118858   6.263   1.668  16.583  0.1294  0.3923  0.8772
  157DOPC   C2118859   6.155   1.592  16.598 -0.7990  0.6196  0.3511
  157DOPC   O2218860   6.082   1.602  16.693  0.3126 -0.2052 -0.3738
  157DOPC   C2218861   6.122   1.504  16.476 -0.0918 -0.2476 -0.0532
  157DOPC   H2R18862   6.060   1.559  16.401  3.4143  1.5983 -1.8701
  157DOPC   H2S18863   6.077   1.410  16.513 -0.8461  0.2147  0.2379
  157DOPC    C318864   6.309   1.900  16.587 -0.0504  0.1684  0.0998
  157DOPC    HX18865   6.316   1.989  16.653  1.9634  0.6663 -0.7174
  157DOPC    HY18866   6.216   1.908  16.526  0.3705 -2.4583 -1.0649
  157DOPC   O3118867   6.422   1.887  16.488 -0.0454  0.2383 -0.3740
  157DOPC   C3118868   6.428   2.000  16.414 -0.7786  0.8024 -0.1261
  157DOPC   O3218869   6.348   2.088  16.415  0.4538  0.2245  0.2161
  157DOPC   C3218870   6.551   1.992  16.326  0.3515  0.1353 -0.0340
  157DOPC   H2X18871   6.580   2.089  16.281  2.7656  0.3010  1.6959
  157DOPC   H2Y18872   6.636   1.959  16.389  1.6965  0.2999 -1.6920
  157DOPC   C2318873   6.251   1.467  16.395  0.0435  0.7471 -0.4348
  157DOPC   H3R18874   6.327   1.412  16.453 -0.8181 -0.6293 -0.5658
  157DOPC   H3S18875   6.302   1.559  16.358 -1.6066  1.7824 -0.2443
  157DOPC   C2418876   6.210   1.398  16.263 -0.4009  0.7432 -0.3559
  157DOPC   H4R18877   6.295   1.398  16.190 -0.3628 -0.0254 -0.3263
  157DOPC   H4S18878   6.126   1.453  16.215 -0.5770  0.1189 -0.7757
  157DOPC   C2518879   6.169   1.253  16.302  0.2242  0.6190 -0.4321
  157DOPC   H5R18880   6.098   1.227  16.383  0.0682 -0.8331 -1.0042
  157DOPC   H5S18881   6.265   1.209  16.338 -0.1013  0.2217 -0.0489
  157DOPC   C2618882   6.122   1.186  16.178 -0.2768  0.3601  0.7898
  157DOPC   H6R18883   6.188   1.218  16.095  1.3585  1.0724  2.3112
  157DOPC   H6S18884   6.018   1.211  16.147  0.8634 -0.0541 -4.1827
  157DOPC   C2718885   6.145   1.043  16.194  0.3232 -0.0963  0.2447
  157DOPC   H7R18886   6.066   1.003  16.261 -0.2853 -1.6933 -1.3645
  157DOPC   H7S18887   6.241   1.024  16.247 -0.6881 -0.7734  1.9132
  157DOPC   C2818888   6.143   0.967  16.066 -0.9523  0.1211 -0.3844
  157DOPC   H8R18889   6.156   0.863  16.105  0.6852  0.0734 -0.9591
  157DOPC   H8S18890   6.233   0.982  16.003 -1.9482  1.1699 -1.5980
  157DOPC   C2918891   6.018   0.983  15.980  0.0458 -0.3772 -0.9555
  157DOPC   H9R18892   5.918   0.950  16.012  0.1609 -0.1392 -0.3336
  157DOPC  C21018893   6.005   1.055  15.869 -0.2132  0.2451  0.3512
  157DOPC  H10R18894   5.914   1.049  15.808  0.0754  0.4091 -0.1052
  157DOPC  C21118895   6.126   1.121  15.804  0.3402  0.5278 -0.1635
  157DOPC  H11R18896   6.207   1.048  15.823  0.0868  0.7506  2.1152
  157DOPC  H11S18897   6.163   1.211  15.857 -1.2697 -0.4148  2.8047
  157DOPC  C21218898   6.108   1.125  15.651 -0.2403  0.1931  0.1320
  157DOPC  H12R18899   6.205   1.164  15.615 -0.0439 -0.7494 -0.3911
  157DOPC  H12S18900   6.035   1.198  15.611  0.4214  0.8781  0.1590
  157DOPC  C21318901   6.096   0.989  15.584 -0.4086 -0.0905  0.0275
  157DOPC  H13R18902   5.988   0.967  15.588 -0.6436  0.8703 -0.7669
  157DOPC  H13S18903   6.157   0.905  15.625 -0.6388 -0.3757 -0.2066
  157DOPC  C21418904   6.144   0.999  15.435  0.1548 -0.1273  0.0223
  157DOPC  H14R18905   6.255   1.009  15.430  0.3009 -1.7789 -0.5829
  157DOPC  H14S18906   6.107   1.090  15.384  1.8943  0.3708 -0.4306
  157DOPC  C21518907   6.103   0.866  15.370 -0.0645  0.0592  0.0637
  157DOPC  H15R18908   5.996   0.849  15.391  0.3275 -0.6958  1.5699
  157DOPC  H15S18909   6.158   0.778  15.408 -0.2779  0.8786  2.4014
  157DOPC  C21618910   6.106   0.871  15.215 -0.6699 -0.5640 -0.0106
  157DOPC  H16R18911   6.203   0.915  15.186 -0.9382  1.2024  1.6165
  157DOPC  H16S18912   6.031   0.942  15.175  1.0459  0.4592 -1.5647
  157DOPC  C21718913   6.070   0.733  15.151 -0.0569 -0.0218 -0.0815
  157DOPC  H17R18914   5.965   0.711  15.181 -0.3710  0.4710 -0.7999
  157DOPC  H17S18915   6.121   0.655  15.212  0.7361  1.9630  1.8944
  157DOPC  C21818916   6.071   0.736  14.997 -0.6561 -0.3327  0.1793
  157DOPC  H18R18917   6.017   0.643  14.969  0.1309 -1.3315  1.8493
  157DOPC  H18S18918   6.174   0.731  14.956 -0.6816 -0.5194  0.1375
  157DOPC  H18T18919   6.023   0.833  14.970  1.1169  0.7378  0.7205
  157DOPC   C3318920   6.534   1.897  16.209 -0.5072  0.2715  0.3752
  157DOPC   H3X18921   6.450   1.937  16.149 -0.3094  0.9753  0.5581
  157DOPC   H3Y18922   6.509   1.796  16.247  1.5078 -0.8508 -1.0962
  157DOPC   C3418923   6.660   1.896  16.116  0.3132  0.2646 -0.2024
  157DOPC   H4X18924   6.749   1.853  16.167  0.5007  0.6474 -0.1958
  157DOPC   H4Y18925   6.687   2.001  16.090  0.2881  0.0213 -1.2447
  157DOPC   C3518926   6.634   1.821  15.983 -0.3203  0.0922 -0.7888
  157DOPC   H5X18927   6.560   1.873  15.919  2.2865  1.5480 -2.7878
  157DOPC   H5Y18928   6.600   1.722  16.022  0.0872 -0.2066 -1.1819
  157DOPC   C3618929   6.774   1.803  15.910  0.5806 -0.1286 -0.1674
  157DOPC   H6X18930   6.812   1.906  15.893 -0.3019  0.3726  0.7411
  157DOPC   H6Y18931   6.858   1.748  15.957  0.7082  0.1906 -0.0174
  157DOPC   C3718932   6.746   1.741  15.774 -0.4268 -0.5096 -0.3136
  157DOPC   H7X18933   6.725   1.634  15.794  1.5398 -0.7897  0.3871
  157DOPC   H7Y18934   6.655   1.787  15.729  1.6197  3.0905 -1.1463
  157DOPC   C3818935   6.855   1.753  15.672  0.2737  0.2592 -0.1789
  157DOPC   H8X18936   6.947   1.725  15.729  0.1052  0.7089  0.3209
  157DOPC   H8Y18937   6.866   1.858  15.639 -2.0364  0.5710 -0.0983
  157DOPC   C3918938   6.833   1.661  15.553 -0.0098 -0.2556 -0.5956
  157DOPC   H9X18939   6.741   1.604  15.571 -0.4402  0.1510 -1.4994
  157DOPC  C31018940   6.920   1.610  15.463  0.0622 -0.3771  0.5543
  157DOPC  H10X18941   6.886   1.556  15.373 -2.0332  2.0465 -0.2120
  157DOPC  C31118942   7.068   1.664  15.458  0.7365  0.0608 -0.6307
  157DOPC  H11X18943   7.123   1.591  15.522 -0.8890  0.3787  1.2169
  157DOPC  H11Y18944   7.083   1.761  15.509  1.5890 -0.7447  0.7424
  157DOPC  C31218945   7.128   1.657  15.318 -0.5201  0.3619 -0.3701
  157DOPC  H12X18946   7.059   1.696  15.240 -2.0727 -0.9658  0.2861
  157DOPC  H12Y18947   7.154   1.551  15.298 -1.3046  0.2728 -0.9337
  157DOPC  C31318948   7.267   1.733  15.326 -0.0878  0.3238  0.0468
  157DOPC  H13X18949   7.302   1.757  15.223  3.3718  1.3768  1.3412
  157DOPC  H13Y18950   7.250   1.831  15.375 -4.2994 -0.6976  1.0198
  157DOPC  C31418951   7.373   1.650  15.401 -0.2461 -0.1379 -0.5179
  157DOPC  H14X18952   7.331   1.611  15.496  0.7583 -0.3304 -0.1515
  157DOPC  H14Y18953   7.418   1.575  15.333 -0.5349 -0.3340 -0.4956
  157DOPC  C31518954   7.495   1.731  15.444  0.2202  0.6594 -0.0763
  157DOPC  H15X18955   7.463   1.799  15.526 -0.0892  1.6706 -1.0162
  157DOPC  H15Y18956   7.529   1.796  15.361  1.4124  0.1442 -0.0015
  157DOPC  C31618957   7.613   1.639  15.493 -0.9274  0.2239  0.6899
  157DOPC  H16X18958   7.572   1.566  15.566 -0.9276  0.6340  1.1019
  157DOPC  H16Y18959   7.651   1.578  15.408 -2.0176 -0.2352  0.5160
  157DOPC  C31718960   7.713   1.715  15.579 -0.3651  0.7531  0.8189
  157DOPC  H17X18961   7.711   1.826  15.567  1.4363  0.8469  1.2111
  157DOPC  H17Y18962   7.680   1.696  15.683 -1.6124  1.2481  0.5312
  157DOPC  C31818963   7.855   1.680  15.539  0.2365  0.2173  0.1385
  157DOPC  H18X18964   7.921   1.720  15.620 -0.9449  3.7006 -0.4349
  157DOPC  H18Y18965   7.859   1.569  15.537  1.0356  0.0716  3.2581
  157DOPC  H18Z18966   7.880   1.736  15.446  2.1167  3.6652  2.4668
  158DOPC     N18967   5.463   6.423  16.898 -0.1529  0.1577  0.1199
  158DOPC   C1218968   5.478   6.534  16.797  0.1715  0.5641 -0.0987
  158DOPC  H12A18969   5.386   6.588  16.781 -1.2676 -1.7402 -0.1808
  158DOPC  H12B18970   5.504   6.487  16.703 -1.3103 -1.7420  0.5364
  158DOPC   C1318971   5.344   6.341  16.860  0.2729  0.2802 -0.1316
  158DOPC  H13A18972   5.329   6.253  16.922  1.5401  0.6677  0.7519
  158DOPC  H13B18973   5.255   6.401  16.873  0.2136  0.1716 -0.0298
  158DOPC  H13C18974   5.336   6.315  16.756 -2.4454 -0.1935  0.1057
  158DOPC   C1418975   5.445   6.471  17.040  0.4822  0.3004  0.5271
  158DOPC  H14A18976   5.367   6.544  17.054  1.3265  1.8069 -2.0028
  158DOPC  H14B18977   5.422   6.389  17.106  2.0522  1.0004  2.0418
  158DOPC  H14C18978   5.534   6.522  17.074 -0.4102  2.4835 -0.1923
  158DOPC   C1518979   5.572   6.326  16.894 -0.3483  0.6379 -0.0548
  158DOPC  H15A18980   5.664   6.374  16.922  0.5698  0.1099 -2.0435
  158DOPC  H15B18981   5.598   6.290  16.796 -0.2771  0.3823  0.0535
  158DOPC  H15C18982   5.564   6.243  16.964 -2.1660  1.2008  0.4800
  158DOPC   C1118983   5.589   6.634  16.827 -0.8030  0.2748  0.2890
  158DOPC  H11A18984   5.681   6.577  16.852 -1.2843 -0.7995 -0.3060
  158DOPC  H11B18985   5.608   6.692  16.734 -1.3970 -0.9302 -0.6070
  158DOPC     P18986   5.453   6.837  16.932 -0.1668 -0.1420 -0.0523
  158DOPC   O1318987   5.499   6.932  17.036  0.3937  0.4874 -0.6561
  158DOPC   O1418988   5.314   6.788  16.942  0.3837  0.1706 -0.0217
  158DOPC   O1218989   5.561   6.714  16.933 -0.2662  0.0999  0.4779
  158DOPC   O1118990   5.481   6.895  16.781  0.0433  0.7605  0.7600
  158DOPC    C118991   5.379   6.880  16.684 -0.5522 -0.1233  0.4922
  158DOPC    HA18992   5.289   6.940  16.710 -0.7391 -0.5406  0.8197
  158DOPC    HB18993   5.353   6.772  16.679 -0.2599 -0.4460  3.8159
  158DOPC    C218994   5.415   6.943  16.551 -0.3418 -0.1607  0.3113
  158DOPC    HS18995   5.336   6.923  16.476 -0.9956  0.1961  0.8965
  158DOPC   O2118996   5.539   6.878  16.499 -0.4955 -0.7226  0.0685
  158DOPC   C2118997   5.527   6.759  16.438 -0.6482  0.0555 -0.7226
  158DOPC   O2218998   5.425   6.700  16.416  0.0831 -0.2708 -0.6418
  158DOPC   C2218999   5.666   6.717  16.392 -0.0726 -0.3525 -0.0620
  158DOPC   H2R19000   5.713   6.673  16.484 -1.4311  0.6143  1.1362
  158DOPC   H2S19001   5.728   6.805  16.364  0.1910 -0.3626  0.4754
  158DOPC    C319002   5.439   7.096  16.566 -0.4567 -0.7956 -0.1673
  158DOPC    HX19003   5.518   7.097  16.644 -0.9553  0.1896  0.3413
  158DOPC    HY19004   5.348   7.147  16.606  1.3262  2.1071  0.4590
  158DOPC   O3119005   5.475   7.154  16.438  0.7204 -0.3293 -0.5771
  158DOPC   C3119006   5.602   7.158  16.409  0.4542  0.1541 -0.5992
  158DOPC   O3219007   5.700   7.132  16.475  0.4397 -0.0680  0.2260
  158DOPC   C3219008   5.618   7.207  16.266 -0.9019  0.1626  0.7508
  158DOPC   H2X19009   5.591   7.124  16.198 -1.6585 -1.5487  3.0266
  158DOPC   H2Y19010   5.552   7.293  16.242  1.8346  2.0394 -0.6512
  158DOPC   C2319011   5.661   6.609  16.282  1.0776  0.6763  0.1734
  158DOPC   H3R19012   5.601   6.644  16.195 -0.7675  1.0867  1.5466
  158DOPC   H3S19013   5.614   6.519  16.327 -0.7823  1.1926 -0.6442
  158DOPC   C2419014   5.799   6.572  16.235 -0.0939  0.2797  0.6994
  158DOPC   H4R19015   5.862   6.560  16.326  0.7153  1.0975  0.2615
  158DOPC   H4S19016   5.837   6.652  16.169  1.4187 -1.6661 -0.9277
  158DOPC   C2519017   5.787   6.442  16.148 -0.0332  0.3759  0.4741
  158DOPC   H5R19018   5.698   6.450  16.081 -1.0128 -2.7840  1.2226
  158DOPC   H5S19019   5.758   6.359  16.216 -0.7030  1.3633  1.4292
  158DOPC   C2619020   5.920   6.421  16.079 -0.2656 -0.0345 -0.3210
  158DOPC   H6R19021   6.006   6.451  16.143  0.1712 -1.4802 -0.1914
  158DOPC   H6S19022   5.930   6.479  15.984 -1.6369  1.9806  0.7087
  158DOPC   C2719023   5.953   6.273  16.041  0.4917  0.4794  0.4240
  158DOPC   H7R19024   5.939   6.223  16.139  0.8416  0.6027  0.5368
  158DOPC   H7S19025   6.062   6.259  16.025  0.6234  0.7205  1.0850
  158DOPC   C2819026   5.856   6.209  15.945 -0.2751  0.9823 -0.1847
  158DOPC   H8R19027   5.757   6.192  15.992 -1.3414  0.6131 -2.4033
  158DOPC   H8S19028   5.904   6.109  15.933 -0.1322  1.0000  0.2295
  158DOPC   C2919029   5.853   6.280  15.816 -0.0095 -0.1983 -0.2881
  158DOPC   H9R19030   5.754   6.325  15.799 -0.3970 -0.8775  0.0847
  158DOPC  C21019031   5.952   6.282  15.727  0.0421  0.4671  0.8605
  158DOPC  H10R19032   5.929   6.317  15.625 -1.8839  0.1535  1.1415
  158DOPC  C21119033   6.092   6.220  15.736  0.2506 -0.3517  0.0275
  158DOPC  H11R19034   6.121   6.176  15.638 -0.9325 -0.5427 -0.2469
  158DOPC  H11S19035   6.094   6.130  15.802  1.0812  1.0673  2.0222
  158DOPC  C21219036   6.201   6.319  15.768  0.1943  0.3769  0.0515
  158DOPC  H12R19037   6.211   6.335  15.877 -2.0289  2.4861  0.0232
  158DOPC  H12S19038   6.169   6.415  15.723  1.7854 -0.3964 -3.0529
  158DOPC  C21319039   6.333   6.292  15.695  0.5873  0.1032  0.1762
  158DOPC  H13R19040   6.361   6.185  15.699  0.8463  0.0724 -1.6040
  158DOPC  H13S19041   6.413   6.358  15.735 -0.7704  2.6670 -1.0455
  158DOPC  C21419042   6.335   6.327  15.553 -0.2098 -1.3096  0.0527
  158DOPC  H14R19043   6.299   6.433  15.552 -2.4789 -1.9619  2.2789
  158DOPC  H14S19044   6.266   6.268  15.490 -0.7083  1.6891 -2.4819
  158DOPC  C21519045   6.476   6.313  15.489  0.0930  0.3111 -0.7511
  158DOPC  H15R19046   6.522   6.214  15.510  0.2585  0.4659 -0.3801
  158DOPC  H15S19047   6.546   6.382  15.541 -0.4742 -1.0491  2.0471
  158DOPC  C21619048   6.471   6.339  15.343 -0.4696 -0.0272  0.6091
  158DOPC  H16R19049   6.411   6.429  15.321 -0.9100 -0.3841  0.3354
  158DOPC  H16S19050   6.405   6.257  15.309  1.0563 -0.6564 -0.9896
  158DOPC  C21719051   6.607   6.339  15.281 -0.3838 -0.7973 -0.4475
  158DOPC  H17R19052   6.657   6.246  15.315  1.7450  0.7415  0.8157
  158DOPC  H17S19053   6.671   6.422  15.318  0.2913 -1.2652 -0.5401
  158DOPC  C21819054   6.600   6.361  15.130  0.1018 -0.3808  0.7091
  158DOPC  H18R19055   6.560   6.463  15.111 -2.9515 -1.6610 -0.3586
  158DOPC  H18S19056   6.555   6.281  15.068  1.6380  0.2514 -1.3278
  158DOPC  H18T19057   6.706   6.366  15.098 -0.3602  0.3178 -0.8412
  158DOPC   C3319058   5.770   7.231  16.233 -0.2222 -0.1168 -0.0958
  158DOPC   H3X19059   5.821   7.289  16.313 -1.1865  0.2468  0.2687
  158DOPC   H3Y19060   5.774   7.289  16.138 -0.5723  1.7992  1.0252
  158DOPC   C3419061   5.843   7.101  16.210 -1.0641 -0.4909 -0.6142
  158DOPC   H4X19062   5.783   7.046  16.134 -1.1721 -0.5789 -0.4647
  158DOPC   H4Y19063   5.848   7.040  16.303  2.5759 -0.9218 -0.9788
  158DOPC   C3519064   5.988   7.128  16.158  0.1077 -0.3809 -0.2787
  158DOPC   H5X19065   6.053   7.171  16.237 -0.5756 -0.0383  0.1076
  158DOPC   H5Y19066   5.981   7.215  16.089  0.6708 -0.9373 -1.0538
  158DOPC   C3619067   6.052   7.018  16.079  0.1113  0.1862  0.2482
  158DOPC   H6X19068   6.096   6.950  16.155 -0.5380 -1.1408 -0.5363
  158DOPC   H6Y19069   5.969   6.966  16.026  0.5825 -1.0459  0.6835
  158DOPC   C3719070   6.137   7.066  15.961 -1.1489 -0.5828 -0.4731
  158DOPC   H7X19071   6.077   7.129  15.892 -0.8103 -1.4420 -1.5830
  158DOPC   H7Y19072   6.211   7.133  16.010 -1.6239 -0.2466 -0.2011
  158DOPC   C3819073   6.216   6.957  15.880 -0.2315  0.3893 -0.1433
  158DOPC   H8X19074   6.282   6.912  15.957  0.0770  2.2081  0.7083
  158DOPC   H8Y19075   6.268   7.031  15.816 -0.4131  0.5598 -0.0942
  158DOPC   C3919076   6.136   6.858  15.796 -0.4294 -0.3881  0.2224
  158DOPC   H9X19077   6.027   6.874  15.800 -0.7454 -1.7571 -1.5946
  158DOPC  C31019078   6.189   6.777  15.702  0.2003 -0.3323  0.4548
  158DOPC  H10X19079   6.118   6.733  15.631  2.2841 -1.3093 -1.1022
  158DOPC  C31119080   6.334   6.743  15.660  0.6877 -0.1145 -0.1957
  158DOPC  H11X19081   6.360   6.638  15.687  1.2609  0.1795  0.4576
  158DOPC  H11Y19082   6.411   6.798  15.719 -0.4359 -0.3795  1.5828
  158DOPC  C31219083   6.363   6.754  15.511 -0.0589 -0.7017  0.2356
  158DOPC  H12X19084   6.361   6.864  15.495  1.4641 -0.4453  1.5322
  158DOPC  H12Y19085   6.280   6.709  15.454  0.6315  0.5349 -1.8809
  158DOPC  C31319086   6.507   6.717  15.477 -0.2442 -0.2061  0.5948
  158DOPC  H13X19087   6.589   6.771  15.529  1.4734 -2.5613  0.5107
  158DOPC  H13Y19088   6.522   6.613  15.513  1.9048 -0.3047 -0.4044
  158DOPC  C31419089   6.544   6.723  15.329  0.7408 -0.3148 -0.3481
  158DOPC  H14X19090   6.640   6.669  15.312 -0.1450 -1.1239 -3.3895
  158DOPC  H14Y19091   6.477   6.655  15.273 -0.2489 -0.0569  0.4751
  158DOPC  C31519092   6.556   6.863  15.263 -1.1091  0.1917 -0.3408
  158DOPC  H15X19093   6.631   6.860  15.181 -0.7380 -1.4486  0.0089
  158DOPC  H15Y19094   6.579   6.925  15.352 -1.5785 -0.9750  0.6275
  158DOPC  C31619095   6.429   6.922  15.194  0.1914  0.0643  0.5770
  158DOPC  H16X19096   6.336   6.909  15.253 -1.0866  0.8130 -1.1791
  158DOPC  H16Y19097   6.441   7.031  15.178 -0.2532 -0.1057 -1.2083
  158DOPC  C31719098   6.399   6.862  15.052 -0.9855 -0.4834 -0.3918
  158DOPC  H17X19099   6.370   6.755  15.054 -0.5071 -0.6199 -0.5724
  158DOPC  H17Y19100   6.308   6.918  15.020 -1.0875  2.5947  4.3299
  158DOPC  C31819101   6.499   6.880  14.939 -0.1069  0.1022 -0.1849
  158DOPC  H18X19102   6.579   6.806  14.959  0.3273  0.5695 -0.1636
  158DOPC  H18Y19103   6.450   6.848  14.845  0.3644 -0.1188 -0.3580
  158DOPC  H18Z19104   6.545   6.981  14.932  0.2296 -0.0407 -0.0510
  159DOPC     N19105   6.485   1.665  17.465  0.5746 -0.0728 -1.2368
  159DOPC   C1219106   6.643   1.680  17.448  0.5084  0.1716  0.0596
  159DOPC  H12A19107   6.706   1.703  17.533  1.4968 -0.2594 -0.5319
  159DOPC  H12B19108   6.655   1.770  17.390  0.3544  1.2620  1.6592
  159DOPC   C1319109   6.420   1.635  17.342 -0.1649  0.4250 -0.2521
  159DOPC  H13A19110   6.402   1.728  17.289  0.6160 -0.7594 -2.7536
  159DOPC  H13B19111   6.493   1.591  17.276  1.0111  2.1665 -0.1798
  159DOPC  H13C19112   6.324   1.587  17.358 -0.5333  0.1421 -2.8924
  159DOPC   C1419113   6.430   1.802  17.515  0.2086 -0.5369  0.1524
  159DOPC  H14A19114   6.324   1.791  17.535 -0.2495  2.7760  0.1187
  159DOPC  H14B19115   6.475   1.839  17.606 -0.5442  0.1646  0.2563
  159DOPC  H14C19116   6.442   1.876  17.438 -3.0640 -1.9110 -1.9033
  159DOPC   C1519117   6.457   1.565  17.574 -0.5629  0.5379  0.3150
  159DOPC  H15A19118   6.351   1.544  17.586  0.0403 -2.8038  0.9651
  159DOPC  H15B19119   6.497   1.604  17.666 -1.2677  0.3624  0.7011
  159DOPC  H15C19120   6.509   1.472  17.556 -2.1790 -0.4333  0.4011
  159DOPC   C1119121   6.703   1.562  17.368 -0.4717 -0.3837 -0.2883
  159DOPC  H11A19122   6.674   1.462  17.409  0.4143 -0.6150 -0.2207
  159DOPC  H11B19123   6.649   1.562  17.271  0.4449  1.7584 -0.8405
  159DOPC     P19124   6.923   1.685  17.280 -0.1090 -0.3252 -0.2266
  159DOPC   O1319125   7.054   1.671  17.344 -0.2987  0.5519  0.4203
  159DOPC   O1419126   6.861   1.817  17.287  0.5363  0.1067  0.1151
  159DOPC   O1219127   6.841   1.575  17.351 -0.0923 -0.0235 -0.0515
  159DOPC   O1119128   6.940   1.645  17.129  0.5572  0.1928  0.1956
  159DOPC    C119129   6.977   1.509  17.098  0.5458 -0.4325 -0.3046
  159DOPC    HA19130   6.888   1.442  17.093  1.4104 -1.6165 -0.3578
  159DOPC    HB19131   7.053   1.479  17.173 -2.0020  0.6365  2.9316
  159DOPC    C219132   7.033   1.514  16.957  0.1576 -0.4024  0.8425
  159DOPC    HS19133   7.110   1.594  16.956 -1.6095  1.5545 -3.0529
  159DOPC   O2119134   6.924   1.532  16.861 -0.0786  0.5441  0.3074
  159DOPC   C2119135   6.969   1.586  16.745 -0.8131  0.2958  0.4053
  159DOPC   O2219136   7.081   1.619  16.716 -0.2602  0.5355  0.0669
  159DOPC   C2219137   6.847   1.592  16.648 -0.1350  0.2846  0.4926
  159DOPC   H2R19138   6.848   1.687  16.590 -2.1142 -1.3402 -2.4839
  159DOPC   H2S19139   6.755   1.578  16.708 -0.1644 -0.2342  0.3262
  159DOPC    C319140   7.108   1.379  16.933  0.0809 -0.2389  0.1749
  159DOPC    HX19141   7.026   1.304  16.935  1.8152 -2.2128  2.1162
  159DOPC    HY19142   7.176   1.359  17.019  0.1514 -1.1827 -0.0849
  159DOPC   O3119143   7.178   1.375  16.808  0.3635 -0.4103  0.6665
  159DOPC   C3119144   7.302   1.421  16.808 -0.6628  0.1108  0.0053
  159DOPC   O3219145   7.354   1.470  16.908  0.2528  0.2416  0.4040
  159DOPC   C3219146   7.377   1.371  16.687  0.1962  0.1461  0.3175
  159DOPC   H2X19147   7.485   1.387  16.705 -0.0595  2.4046  0.1560
  159DOPC   H2Y19148   7.347   1.265  16.671 -1.1565  0.3345  1.3947
  159DOPC   C2319149   6.847   1.463  16.558 -0.1106 -0.3887 -0.3552
  159DOPC   H3R19150   6.848   1.374  16.623  3.3528 -0.2074  0.0391
  159DOPC   H3S19151   6.943   1.467  16.502  1.2150  0.7312  1.8673
  159DOPC   C2419152   6.726   1.464  16.468 -0.2311 -0.7201  0.1613
  159DOPC   H4R19153   6.749   1.552  16.404  0.9240 -1.1645 -0.0515
  159DOPC   H4S19154   6.628   1.470  16.519 -0.9791  0.1817 -1.2911
  159DOPC   C2519155   6.729   1.343  16.372  0.4035 -0.3768  0.9229
  159DOPC   H5R19156   6.709   1.252  16.431  0.8881 -1.3522 -0.3773
  159DOPC   H5S19157   6.829   1.321  16.329  0.7773  1.3276  0.8371
  159DOPC   C2619158   6.633   1.349  16.257  0.4699  0.4575  0.0263
  159DOPC   H6R19159   6.526   1.368  16.280  0.1490 -0.0029 -1.0088
  159DOPC   H6S19160   6.624   1.252  16.204  1.7401  0.4995 -0.2989
  159DOPC   C2719161   6.692   1.434  16.138  0.4431 -0.4579 -0.1641
  159DOPC   H7R19162   6.799   1.451  16.165  0.4315 -3.4306  2.3324
  159DOPC   H7S19163   6.624   1.521  16.144 -1.2858 -1.8322  0.9384
  159DOPC   C2819164   6.687   1.380  15.998  0.4894 -0.2534  0.0025
  159DOPC   H8R19165   6.684   1.472  15.935  0.9634 -0.4193 -0.2628
  159DOPC   H8S19166   6.596   1.319  15.982  1.0738 -1.3271  0.6797
  159DOPC   C2919167   6.804   1.290  15.959  0.0449 -0.5596 -0.4237
  159DOPC   H9R19168   6.862   1.253  16.045  0.8647 -1.0273 -1.1606
  159DOPC  C21019169   6.816   1.245  15.835 -0.2314 -0.1366  0.7265
  159DOPC  H10R19170   6.906   1.186  15.815  0.0254  0.8550 -1.3032
  159DOPC  C21119171   6.732   1.290  15.714  0.6797 -0.2241  0.1473
  159DOPC  H11R19172   6.794   1.367  15.664 -1.2656  1.0101 -0.4809
  159DOPC  H11S19173   6.642   1.345  15.747  1.2429 -0.2275  1.7590
  159DOPC  C21219174   6.701   1.180  15.603  0.3711  0.2153 -0.3561
  159DOPC  H12R19175   6.618   1.116  15.638 -1.3990  0.3890 -3.7667
  159DOPC  H12S19176   6.789   1.113  15.603 -0.7427 -1.3370  1.1490
  159DOPC  C21319177   6.673   1.228  15.466  0.5195 -0.0502  0.3154
  159DOPC  H13R19178   6.761   1.283  15.426 -1.2995  1.1874 -2.2762
  159DOPC  H13S19179   6.590   1.302  15.463 -0.7735 -1.4654 -1.9259
  159DOPC  C21419180   6.618   1.117  15.368 -0.5267  0.3386 -0.0637
  159DOPC  H14R19181   6.514   1.087  15.393  0.0183 -0.7064  1.0311
  159DOPC  H14S19182   6.691   1.034  15.361  0.2814  1.0518 -0.1551
  159DOPC  C21519183   6.597   1.178  15.228  0.4435 -0.4529  0.5018
  159DOPC  H15R19184   6.701   1.196  15.192  1.0865  0.5400  2.7065
  159DOPC  H15S19185   6.531   1.267  15.224 -1.0502 -1.5279  0.2740
  159DOPC  C21619186   6.533   1.079  15.125 -0.0310  0.4105 -0.2454
  159DOPC  H16R19187   6.428   1.069  15.160  1.3567 -1.9919  3.9082
  159DOPC  H16S19188   6.585   0.981  15.120 -2.2637 -0.7834 -1.6058
  159DOPC  C21719189   6.534   1.138  14.981  0.3522  1.0904  0.5759
  159DOPC  H17R19190   6.640   1.147  14.948  0.6419 -1.5925  0.5787
  159DOPC  H17S19191   6.488   1.239  14.974 -3.3242 -0.5443 -1.8916
  159DOPC  C21819192   6.465   1.043  14.883  0.6060  0.2190  0.6544
  159DOPC  H18R19193   6.528   0.953  14.869 -0.7286 -0.6128 -0.3328
  159DOPC  H18S19194   6.450   1.086  14.781  0.2049 -0.3844  0.4494
  159DOPC  H18T19195   6.365   1.013  14.922  0.4177 -0.6842 -0.4574
  159DOPC   C3319196   7.344   1.455  16.566  0.5246 -0.0285 -0.1726
  159DOPC   H3X19197   7.358   1.557  16.606  0.5672 -1.2770  3.3522
  159DOPC   H3Y19198   7.237   1.439  16.544  0.0312  0.4033  1.7544
  159DOPC   C3419199   7.429   1.407  16.449 -0.1457 -0.2857 -0.0384
  159DOPC   H4X19200   7.370   1.413  16.355  1.0189  1.9270 -0.7300
  159DOPC   H4Y19201   7.443   1.300  16.476 -3.0209 -0.9276 -0.7619
  159DOPC   C3519202   7.546   1.500  16.449 -0.5956  0.0717 -0.0364
  159DOPC   H5X19203   7.595   1.498  16.549  1.1037  1.3033 -0.7904
  159DOPC   H5Y19204   7.525   1.608  16.430  0.8789  0.2081 -1.0722
  159DOPC   C3619205   7.647   1.461  16.344 -0.0436  0.2509  0.3613
  159DOPC   H6X19206   7.734   1.530  16.342 -0.8688  1.3137  0.1516
  159DOPC   H6Y19207   7.683   1.359  16.370  0.1023  0.1090 -0.3589
  159DOPC   C3719208   7.589   1.459  16.200  0.3151 -0.7199 -1.2436
  159DOPC   H7X19209   7.500   1.392  16.193 -0.0836 -0.4536  0.6458
  159DOPC   H7Y19210   7.550   1.562  16.194  1.0179 -0.3557  0.0992
  159DOPC   C3819211   7.693   1.424  16.099  0.8145 -0.8304  0.5258
  159DOPC   H8X19212   7.741   1.327  16.122  0.9898 -1.1072 -0.9042
  159DOPC   H8Y19213   7.774   1.500  16.108  0.5944 -0.0628 -2.6858
  159DOPC   C3919214   7.633   1.446  15.966 -0.4359  0.0217  0.9690
  159DOPC   H9X19215   7.584   1.545  15.963 -0.0025  0.2177 -0.3062
  159DOPC  C31019216   7.654   1.376  15.850  0.1614 -0.1284 -0.4538
  159DOPC  H10X19217   7.638   1.424  15.752 -1.2535 -1.1446 -0.7560
  159DOPC  C31119218   7.740   1.259  15.838 -0.0961  0.4378 -0.0680
  159DOPC  H11X19219   7.676   1.169  15.843 -1.3462  1.2900 -0.2771
  159DOPC  H11Y19220   7.817   1.259  15.918  0.2119  1.1408 -0.3557
  159DOPC  C31219221   7.818   1.259  15.707 -0.3256  0.3490  0.0189
  159DOPC  H12X19222   7.882   1.168  15.700  0.1700  0.5278  1.8002
  159DOPC  H12Y19223   7.879   1.351  15.693  1.5416 -0.9594 -0.9950
  159DOPC  C31319224   7.735   1.240  15.580  0.4076  0.0206  0.0530
  159DOPC  H13X19225   7.682   1.144  15.564 -0.5742  0.8679 -2.2544
  159DOPC  H13Y19226   7.643   1.303  15.585  0.3657 -0.1501  1.9641
  159DOPC  C31419227   7.798   1.275  15.443 -0.4752  0.0164 -0.6259
  159DOPC  H14X19228   7.841   1.377  15.439 -0.9218  0.1986 -4.2957
  159DOPC  H14Y19229   7.878   1.200  15.422 -0.8777 -1.0792  1.4531
  159DOPC  C31519230   7.703   1.266  15.327  0.2554 -0.0971 -0.9416
  159DOPC  H15X19231   7.615   1.327  15.357  2.1652  1.8510  1.1525
  159DOPC  H15Y19232   7.672   1.160  15.315  0.1099 -0.1238 -0.3400
  159DOPC  C31619233   7.764   1.323  15.195  0.4560  0.1570  0.1030
  159DOPC  H16X19234   7.781   1.433  15.199 -2.6249  0.6934  0.9727
  159DOPC  H16Y19235   7.865   1.280  15.179  0.9832  1.4087 -0.0927
  159DOPC  C31719236   7.680   1.282  15.069 -0.2314 -0.0009 -0.1109
  159DOPC  H17X19237   7.673   1.171  15.074  0.3132 -0.0243  0.3620
  159DOPC  H17Y19238   7.574   1.314  15.070  0.4289  2.3664  0.5452
  159DOPC  C31819239   7.735   1.331  14.936  0.0383 -0.1700 -0.3015
  159DOPC  H18X19240   7.661   1.325  14.853 -0.6628  1.3718  0.1774
  159DOPC  H18Y19241   7.760   1.439  14.930 -3.1050  0.5948 -2.8340
  159DOPC  H18Z19242   7.826   1.271  14.914  0.3029  0.2771 -0.4234
  160DOPC     N19243   3.124   0.112  16.877  0.3133  0.6038 -0.6803
  160DOPC   C1219244   3.033   0.103  16.755 -0.3611 -0.6798  0.7446
  160DOPC  H12A19245   3.077   0.169  16.681 -1.7276  1.0218  1.3935
  160DOPC  H12B19246   2.936   0.148  16.772 -0.6628 -0.6429 -0.8650
  160DOPC   C1319247   3.251   0.050  16.834  0.0506  0.4638 -0.2354
  160DOPC  H13A19248   3.291   0.110  16.753 -0.5170  0.8827 -0.2158
  160DOPC  H13B19249   3.329   0.041  16.908  1.1180  0.6063 -1.3165
  160DOPC  H13C19250   3.228  -0.050  16.800  3.0833 -0.4183  0.0490
  160DOPC   C1419251   3.076   0.042  16.999 -0.2279 -0.8088 -1.0479
  160DOPC  H14A19252   3.156   0.032  17.071 -0.7712  0.1256 -0.2965
  160DOPC  H14B19253   2.991   0.097  17.037  1.4400  0.4868  0.9533
  160DOPC  H14C19254   3.052  -0.063  16.987 -0.8075 -0.7492 -0.4732
  160DOPC   C1519255   3.140   0.254  16.919 -0.1967  0.4876 -0.5737
  160DOPC  H15A19256   3.050   0.299  16.957 -1.0007 -0.6524 -1.0873
  160DOPC  H15B19257   3.177   0.320  16.841  0.6100 -0.2354 -0.8310
  160DOPC  H15C19258   3.219   0.260  16.993 -1.3419 -0.6465  0.7775
  160DOPC   C1119259   3.004  -0.035  16.687  0.0776  0.2741 -0.3214
  160DOPC  H11A19260   2.927  -0.012  16.610  0.3074  4.1483  0.4123
  160DOPC  H11B19261   3.091  -0.083  16.637  0.3092  1.6604 -1.3225
  160DOPC     P19262   2.921  -0.286  16.741 -0.4441 -0.2501  0.0915
  160DOPC   O1319263   2.788  -0.329  16.792  0.2289  0.0041  0.0549
  160DOPC   O1419264   3.040  -0.366  16.784  0.6809  0.4796 -0.0354
  160DOPC   O1219265   2.938  -0.131  16.779 -0.4537  0.5495 -0.1258
  160DOPC   O1119266   2.916  -0.280  16.582  0.5885  0.4598 -0.1183
  160DOPC    C119267   2.917  -0.408  16.514  0.2313 -0.0245 -0.2562
  160DOPC    HA19268   3.004  -0.469  16.546 -0.2572  0.5097  2.2832
  160DOPC    HB19269   2.935  -0.380  16.408  0.6143 -2.0553 -0.7711
  160DOPC    C219270   2.784  -0.486  16.526 -0.3030  0.0525  0.4950
  160DOPC    HS19271   2.773  -0.528  16.627 -2.9665 -0.3474  0.1189
  160DOPC   O2119272   2.773  -0.600  16.437 -0.5383  0.5826  0.8047
  160DOPC   C2119273   2.859  -0.693  16.452 -0.3780 -0.3264 -0.0837
  160DOPC   O2219274   2.941  -0.711  16.538 -0.6638 -0.7362 -0.1828
  160DOPC   C2219275   2.863  -0.777  16.317 -0.3964 -0.9198  0.0948
  160DOPC   H2R19276   2.869  -0.708  16.231  1.7707  0.6952  1.4292
  160DOPC   H2S19277   2.775  -0.846  16.316 -1.3590  0.2591  0.7070
  160DOPC    C319278   2.654  -0.402  16.491 -0.0620  0.2402 -0.5972
  160DOPC    HX19279   2.644  -0.320  16.565  0.9140 -0.7467  0.6827
  160DOPC    HY19280   2.563  -0.465  16.493 -0.5246  0.9001 -0.6102
  160DOPC   O3119281   2.672  -0.348  16.364  0.6279 -0.0366  0.3563
  160DOPC   C3119282   2.561  -0.310  16.301 -0.5201 -1.0472 -0.0331
  160DOPC   O3219283   2.455  -0.297  16.356  0.5118 -0.3145 -0.1608
  160DOPC   C3219284   2.589  -0.279  16.155  0.0230 -0.6319 -0.2175
  160DOPC   H2X19285   2.638  -0.180  16.152  1.2770 -1.1873  0.9561
  160DOPC   H2Y19286   2.660  -0.353  16.111 -0.2147 -0.7153 -0.4668
  160DOPC   C2319287   2.990  -0.861  16.306  0.4404  0.6447  0.4018
  160DOPC   H3R19288   2.997  -0.939  16.385  0.3085  1.2573  1.0326
  160DOPC   H3S19289   3.078  -0.795  16.321  0.4552  0.9238 -0.8054
  160DOPC   C2419290   2.990  -0.930  16.165 -0.0753 -0.4465  0.4819
  160DOPC   H4R19291   2.996  -0.848  16.090 -1.0061  1.5588  2.4786
  160DOPC   H4S19292   2.893  -0.981  16.145 -1.7585  2.9469 -0.7310
  160DOPC   C2519293   3.100  -1.036  16.154  0.6593  0.4714  0.1221
  160DOPC   H5R19294   3.095  -1.102  16.243  0.6370 -0.2017 -0.3751
  160DOPC   H5S19295   3.198  -0.984  16.161  0.4785  0.7133  0.9216
  160DOPC   C2619296   3.091  -1.111  16.019  0.0467  0.2968 -0.2732
  160DOPC   H6R19297   3.110  -1.034  15.941 -1.0366  1.3193  0.4281
  160DOPC   H6S19298   2.985  -1.142  16.009  0.1497  0.4706 -2.3656
  160DOPC   C2719299   3.191  -1.224  16.006 -0.0605  0.2690 -0.2114
  160DOPC   H7R19300   3.145  -1.318  16.043 -1.8304  0.3117 -2.1263
  160DOPC   H7S19301   3.272  -1.186  16.071 -0.6727  2.6130 -0.7358
  160DOPC   C2819302   3.228  -1.248  15.861  0.2591 -0.0857 -0.0754
  160DOPC   H8R19303   3.319  -1.311  15.872  1.5246  1.6650  0.0029
  160DOPC   H8S19304   3.283  -1.155  15.834 -0.2598  0.6173  1.2223
  160DOPC   C2919305   3.122  -1.296  15.758 -0.0305  0.1647 -0.1503
  160DOPC   H9R19306   3.025  -1.244  15.752 -0.0679  0.0158 -1.0906
  160DOPC  C21019307   3.148  -1.392  15.670  0.1549  0.4608 -0.0674
  160DOPC  H10R19308   3.080  -1.405  15.585  1.3348 -2.4888 -0.6953
  160DOPC  C21119309   3.272  -1.481  15.650  0.3353 -0.2264  0.3777
  160DOPC  H11R19310   3.357  -1.433  15.703  2.0455 -1.7666 -0.8408
  160DOPC  H11S19311   3.289  -1.486  15.540 -2.0011 -1.4574  0.0222
  160DOPC  C21219312   3.242  -1.622  15.710 -1.0064 -0.4968 -0.0543
  160DOPC  H12R19313   3.335  -1.677  15.683 -0.5386  0.4689 -0.4876
  160DOPC  H12S19314   3.159  -1.670  15.654  1.1171 -2.3149 -1.8988
  160DOPC  C21319315   3.217  -1.629  15.862  0.3384 -0.4915 -0.5054
  160DOPC  H13R19316   3.138  -1.555  15.886  1.2645  0.1299  0.7057
  160DOPC  H13S19317   3.300  -1.585  15.920  0.3269  0.1756 -0.9810
  160DOPC  C21419318   3.162  -1.764  15.910  0.1324 -0.1826 -0.0990
  160DOPC  H14R19319   3.070  -1.792  15.853 -0.8301 -2.2996  2.3260
  160DOPC  H14S19320   3.123  -1.750  16.013 -1.2716  0.9377 -0.7437
  160DOPC  C21519321   3.268  -1.876  15.904 -0.3392 -0.0172 -0.2608
  160DOPC  H15R19322   3.354  -1.852  15.969 -1.0877  1.8708  0.0996
  160DOPC  H15S19323   3.296  -1.888  15.797 -3.2871 -0.7222 -1.0515
  160DOPC  C21619324   3.209  -2.005  15.945  0.6251  0.2851 -0.0026
  160DOPC  H16R19325   3.151  -2.040  15.857  0.8792  0.6122 -0.3058
  160DOPC  H16S19326   3.147  -1.996  16.037  1.3965 -0.3966  0.6000
  160DOPC  C21719327   3.318  -2.113  15.946 -0.5241 -0.4938  0.7750
  160DOPC  H17R19328   3.401  -2.077  16.011 -0.1085 -0.1491  0.0784
  160DOPC  H17S19329   3.349  -2.107  15.839  0.6736  1.4304  1.1814
  160DOPC  C21819330   3.277  -2.250  15.972 -0.2088  0.2777  0.3202
  160DOPC  H18R19331   3.242  -2.257  16.077 -0.6512  1.0336  0.2293
  160DOPC  H18S19332   3.353  -2.329  15.953  0.1287  0.0665  2.3361
  160DOPC  H18T19333   3.191  -2.279  15.909 -0.0806  1.8340 -0.6244
  160DOPC   C3319334   2.456  -0.266  16.079 -0.4092 -0.0134 -0.2116
  160DOPC   H3X19335   2.382  -0.203  16.132  3.1967  1.6160  3.4298
  160DOPC   H3Y19336   2.405  -0.365  16.085  1.4318 -0.9879  0.3428
  160DOPC   C3419337   2.473  -0.246  15.930 -0.2873 -0.0439 -0.2104
  160DOPC   H4X19338   2.505  -0.336  15.874  2.2935  0.8561 -0.3188
  160DOPC   H4Y19339   2.553  -0.174  15.904 -1.4586  1.5079  0.2845
  160DOPC   C3519340   2.340  -0.209  15.860 -0.0789 -0.3217  0.2867
  160DOPC   H5X19341   2.325  -0.100  15.874  0.2525  0.1338 -2.3840
  160DOPC   H5Y19342   2.259  -0.272  15.904  1.3440 -2.4709 -0.0092
  160DOPC   C3619343   2.341  -0.231  15.707  0.5161  0.4020  0.3102
  160DOPC   H6X19344   2.401  -0.157  15.650 -3.1079  2.6418 -0.9428
  160DOPC   H6Y19345   2.387  -0.330  15.686 -1.4069 -0.2982 -0.8902
  160DOPC   C3719346   2.194  -0.236  15.652  0.4460  0.3021  0.4394
  160DOPC   H7X19347   2.136  -0.296  15.726 -0.0928  1.3328  0.8813
  160DOPC   H7Y19348   2.145  -0.136  15.656  0.4554  0.2622  2.2996
  160DOPC   C3819349   2.177  -0.284  15.507  0.4735 -0.7839  0.9120
  160DOPC   H8X19350   2.069  -0.300  15.484  0.6964  0.2660 -1.1596
  160DOPC   H8Y19351   2.229  -0.378  15.482  0.4393 -0.8808  1.1965
  160DOPC   C3919352   2.218  -0.187  15.402 -0.7845 -0.2092 -0.9969
  160DOPC   H9X19353   2.279  -0.100  15.428 -0.1929  0.3923 -4.0061
  160DOPC  C31019354   2.162  -0.195  15.280  1.0499 -0.5707 -0.0169
  160DOPC  H10X19355   2.194  -0.118  15.208  0.3327 -1.3282 -1.1856
  160DOPC  C31119356   2.077  -0.302  15.216  0.8564 -0.1531 -0.5805
  160DOPC  H11X19357   1.977  -0.263  15.186  1.4732  1.1907 -0.9655
  160DOPC  H11Y19358   2.064  -0.383  15.291  0.1356 -1.8563 -2.4439
  160DOPC  C31219359   2.109  -0.392  15.100 -0.4381  0.6458  0.0202
  160DOPC  H12X19360   2.108  -0.329  15.008 -0.6308  1.0945  0.3255
  160DOPC  H12Y19361   2.033  -0.473  15.099  1.5601 -1.3218  0.6962
  160DOPC  C31319362   2.250  -0.457  15.122 -0.4241 -0.2823 -0.0687
  160DOPC  H13X19363   2.271  -0.453  15.231  0.9494  0.0000 -0.3179
  160DOPC  H13Y19364   2.253  -0.563  15.090 -1.9897 -0.2930 -0.2272
  160DOPC  C31419365   2.358  -0.375  15.046  0.3719  0.4161  0.0875
  160DOPC  H14X19366   2.327  -0.269  15.056 -1.0117 -0.0400  0.8874
  160DOPC  H14Y19367   2.462  -0.371  15.085  0.5797  0.8195 -0.4919
  160DOPC  C31519368   2.372  -0.400  14.897  0.3552  0.1234 -0.5622
  160DOPC  H15X19369   2.269  -0.391  14.855 -0.2075 -0.4897  0.6252
  160DOPC  H15Y19370   2.409  -0.501  14.870  0.8655  0.6742 -1.9844
  160DOPC  C31619371   2.464  -0.290  14.838 -0.3958 -0.2267 -0.1288
  160DOPC  H16X19372   2.453  -0.282  14.727 -4.0551  3.9033  0.2526
  160DOPC  H16Y19373   2.447  -0.185  14.870  1.5611 -0.5629  2.2527
  160DOPC  C31719374   2.616  -0.323  14.859 -0.7286 -0.0525 -0.1319
  160DOPC  H17X19375   2.646  -0.305  14.965  2.2286 -2.2481 -0.4795
  160DOPC  H17Y19376   2.623  -0.428  14.824  0.3448  0.1773 -0.6420
  160DOPC  C31819377   2.713  -0.238  14.772  0.0709  0.0189  0.4202
  160DOPC  H18X19378   2.676  -0.237  14.667  1.0571  1.2795  0.0521
  160DOPC  H18Y19379   2.712  -0.135  14.811  0.4625 -0.3173  1.3501
  160DOPC  H18Z19380   2.819  -0.273  14.769 -0.2303 -1.0373 -3.0140
  161DOPC     N19381   5.103   0.524  17.398  0.0252 -0.6819  0.5434
  161DOPC   C1219382   5.114   0.617  17.275 -0.0521 -0.1799 -0.5694
  161DOPC  H12A19383   5.170   0.703  17.307 -2.5649  2.1877 -2.0588
  161DOPC  H12B19384   5.018   0.652  17.241 -0.6792 -1.5743 -0.3271
  161DOPC   C1319385   5.056   0.609  17.515 -0.5740  0.3358  0.2882
  161DOPC  H13A19386   5.014   0.541  17.587  1.4531  0.7213  1.9125
  161DOPC  H13B19387   5.139   0.663  17.558 -0.4916  0.2391  0.2517
  161DOPC  H13C19388   4.981   0.677  17.476 -1.2231 -1.6202 -2.2044
  161DOPC   C1419389   5.239   0.462  17.433  0.0929 -0.7579 -0.0306
  161DOPC  H14A19390   5.236   0.378  17.501  0.2631  1.0201  2.3276
  161DOPC  H14B19391   5.294   0.416  17.353  1.5591 -2.1799  1.7200
  161DOPC  H14C19392   5.301   0.541  17.473 -0.9859 -0.5037  1.2465
  161DOPC   C1519393   5.015   0.412  17.355  0.5663  0.1755  0.1180
  161DOPC  H15A19394   5.014   0.338  17.433  1.3050  2.0809  2.0229
  161DOPC  H15B19395   5.050   0.383  17.257 -1.8326  1.4898 -1.2278
  161DOPC  H15C19396   4.915   0.443  17.329  0.7980  0.9847  0.1815
  161DOPC   C1119397   5.189   0.570  17.149  0.3341  0.3748 -0.0885
  161DOPC  H11A19398   5.225   0.654  17.086  2.4185 -0.2987  0.1211
  161DOPC  H11B19399   5.277   0.507  17.176  0.5293 -0.6414 -2.8253
  161DOPC     P19400   4.998   0.531  16.980  0.1803 -0.1250 -0.5076
  161DOPC   O1319401   4.915   0.631  17.053 -0.5149  0.3912 -0.4616
  161DOPC   O1419402   4.931   0.410  16.927 -0.2382  0.1649  0.1657
  161DOPC   O1219403   5.112   0.474  17.076 -1.1055  0.0110 -0.1078
  161DOPC   O1119404   5.072   0.619  16.867 -0.2314  0.3804  0.3373
  161DOPC    C119405   5.199   0.583  16.812 -0.0121  0.3785  0.8143
  161DOPC    HA19406   5.240   0.489  16.854 -0.3573 -0.7205 -1.2179
  161DOPC    HB19407   5.281   0.654  16.837  1.2283 -0.3990 -0.8818
  161DOPC    C219408   5.202   0.573  16.658  0.1152 -0.3380  0.0279
  161DOPC    HS19409   5.308   0.553  16.632  0.6940  2.3392  0.1205
  161DOPC   O2119410   5.155   0.692  16.586  0.3203 -0.1940 -0.5752
  161DOPC   C2119411   5.211   0.735  16.475  0.7106  0.4662  0.6063
  161DOPC   O2219412   5.320   0.692  16.433 -0.1640 -0.3216  0.5094
  161DOPC   C2219413   5.117   0.833  16.403  0.3319  0.4748  0.5003
  161DOPC   H2R19414   5.119   0.936  16.444  0.6468  2.5097 -4.0227
  161DOPC   H2S19415   5.013   0.792  16.408  0.4623  0.1187  0.3266
  161DOPC    C319416   5.123   0.448  16.608 -0.2616 -0.0851  0.0012
  161DOPC    HX19417   5.014   0.467  16.614  0.1371  2.8350 -0.6132
  161DOPC    HY19418   5.147   0.376  16.689 -1.4974  0.6684  1.0776
  161DOPC   O3119419   5.181   0.401  16.476  0.4207 -0.2506  0.0436
  161DOPC   C3119420   5.104   0.297  16.437 -0.6428 -0.0311  0.6529
  161DOPC   O3219421   5.011   0.253  16.503 -0.2370  0.0078 -0.2758
  161DOPC   C3219422   5.160   0.241  16.311  0.1716 -0.4547 -0.3833
  161DOPC   H2X19423   5.214   0.317  16.251  0.1317 -1.1527 -1.3318
  161DOPC   H2Y19424   5.219   0.150  16.337 -1.6864 -1.8399 -0.7288
  161DOPC   C2319425   5.153   0.832  16.250 -0.3906  0.6078  0.8807
  161DOPC   H3R19426   5.261   0.840  16.226 -0.5620 -0.8522 -0.5101
  161DOPC   H3S19427   5.112   0.923  16.202  0.2633  0.8699  0.8117
  161DOPC   C2419428   5.084   0.714  16.173  0.9288  0.2706  0.0260
  161DOPC   H4R19429   4.976   0.741  16.172  0.2058 -2.3638  0.0931
  161DOPC   H4S19430   5.094   0.613  16.218  0.7076 -0.4274 -1.4456
  161DOPC   C2519431   5.129   0.706  16.030  0.5998 -0.1594  0.3435
  161DOPC   H5R19432   5.240   0.707  16.021  0.4657 -0.2681 -1.8057
  161DOPC   H5S19433   5.093   0.798  15.979  1.2333 -0.2587 -0.3162
  161DOPC   C2619434   5.085   0.584  15.947  0.0341 -0.2617 -0.5674
  161DOPC   H6R19435   4.974   0.574  15.944 -0.4632  3.6933 -1.1924
  161DOPC   H6S19436   5.115   0.496  16.007  1.5263  0.6261  0.0423
  161DOPC   C2719437   5.139   0.602  15.801 -0.0472  0.3080  0.4042
  161DOPC   H7R19438   5.246   0.633  15.808 -0.8278  3.0433  1.3573
  161DOPC   H7S19439   5.088   0.686  15.749  1.2223  0.5783 -0.4547
  161DOPC   C2819440   5.125   0.470  15.716 -0.3472  0.7325  0.4936
  161DOPC   H8R19441   5.139   0.508  15.612  1.8867 -0.0545  0.4552
  161DOPC   H8S19442   5.026   0.425  15.735 -0.0721  0.6219  1.7268
  161DOPC   C2919443   5.229   0.366  15.752  0.2570 -0.2622 -0.1366
  161DOPC   H9R19444   5.268   0.378  15.854 -0.8111 -0.5701  0.3170
  161DOPC  C21019445   5.256   0.250  15.684  0.3557 -1.0096  0.3539
  161DOPC  H10R19446   5.297   0.162  15.736 -0.3593 -3.3292 -2.7132
  161DOPC  C21119447   5.190   0.213  15.553 -0.0156  0.8650 -0.1688
  161DOPC  H11R19448   5.140   0.294  15.496 -1.4055  0.5505  0.5570
  161DOPC  H11S19449   5.115   0.131  15.562  1.9324 -1.2877 -2.0450
  161DOPC  C21219450   5.300   0.147  15.460  0.8244 -0.0942 -0.4576
  161DOPC  H12R19451   5.347   0.062  15.514  2.2319  0.7462 -0.3305
  161DOPC  H12S19452   5.380   0.218  15.430 -0.0015  1.0409 -0.0477
  161DOPC  C21319453   5.237   0.098  15.322 -0.4219 -0.5665 -0.7347
  161DOPC  H13R19454   5.312   0.059  15.250 -0.7178 -1.3126 -0.6487
  161DOPC  H13S19455   5.192   0.193  15.286  1.8564  1.0342  0.3618
  161DOPC  C21419456   5.125  -0.001  15.345 -1.0082  0.4474  0.0133
  161DOPC  H14R19457   5.031   0.057  15.360 -0.1507  1.8341  0.2550
  161DOPC  H14S19458   5.143  -0.061  15.437 -0.0830 -1.0640 -1.1148
  161DOPC  C21519459   5.096  -0.098  15.226  0.1071  0.4890 -0.2290
  161DOPC  H15R19460   5.041  -0.176  15.283  0.8663  0.2003  0.1117
  161DOPC  H15S19461   5.191  -0.140  15.187  0.3247  0.7423  0.0219
  161DOPC  C21619462   5.001  -0.048  15.122 -0.9294 -0.3179 -0.4629
  161DOPC  H16R19463   5.034   0.054  15.093 -1.8897  0.1429  0.0026
  161DOPC  H16S19464   4.904  -0.035  15.175  0.3117 -0.1048  1.8724
  161DOPC  C21719465   4.993  -0.147  15.006  0.2287 -1.0605 -0.5256
  161DOPC  H17R19466   4.986  -0.249  15.050  1.5601 -0.7069  0.5888
  161DOPC  H17S19467   5.089  -0.140  14.950  0.5006 -0.9944 -0.0601
  161DOPC  C21819468   4.879  -0.118  14.908 -0.0825  0.3118 -0.0134
  161DOPC  H18R19469   4.903  -0.055  14.819  0.2865 -1.0493 -0.9068
  161DOPC  H18S19470   4.786  -0.097  14.965 -0.5417 -2.3150  0.3112
  161DOPC  H18T19471   4.847  -0.218  14.872  0.9454 -0.3965  0.9479
  161DOPC   C3319472   5.037   0.169  16.234 -0.1805  0.3133  0.3862
  161DOPC   H3X19473   4.950   0.237  16.220 -0.4298  0.4026  2.1481
  161DOPC   H3Y19474   5.005   0.083  16.297 -0.1293 -3.0107 -3.6834
  161DOPC   C3419475   5.080   0.117  16.096  0.1460  0.0330  0.6505
  161DOPC   H4X19476   5.187   0.089  16.111 -0.2439 -0.4998  2.8207
  161DOPC   H4Y19477   5.078   0.195  16.017  1.5131 -0.7697 -0.2166
  161DOPC   C3519478   4.991   0.005  16.049  0.4124  0.0519  0.1793
  161DOPC   H5X19479   4.886   0.040  16.060  0.3028 -0.7912  2.3124
  161DOPC   H5Y19480   5.001  -0.085  16.113 -2.0093 -0.9613 -0.7611
  161DOPC   C3619481   5.018  -0.038  15.898 -0.4941 -0.7646  0.1063
  161DOPC   H6X19482   4.942  -0.114  15.871 -1.6252  0.1870  0.5091
  161DOPC   H6Y19483   4.990   0.051  15.838  1.6839  0.2708  0.5277
  161DOPC   C3719484   5.155  -0.093  15.877  0.0355 -0.1006  0.1162
  161DOPC   H7X19485   5.231  -0.026  15.924 -2.8039  1.9433  2.1737
  161DOPC   H7Y19486   5.161  -0.189  15.932  2.7256 -1.0399 -1.6108
  161DOPC   C3819487   5.183  -0.122  15.726  0.3224  0.3212 -0.1722
  161DOPC   H8X19488   5.287  -0.161  15.724 -0.0008 -0.5778 -0.2286
  161DOPC   H8Y19489   5.190  -0.025  15.674  0.9107  0.0157 -0.6793
  161DOPC   C3919490   5.078  -0.218  15.663 -0.0699 -0.3665 -0.1205
  161DOPC   H9X19491   4.985  -0.162  15.645  0.6103  0.5682 -0.8112
  161DOPC  C31019492   5.084  -0.352  15.633  0.1874 -0.5679 -0.5852
  161DOPC  H10X19493   4.992  -0.396  15.591  2.7669 -5.2252 -2.1326
  161DOPC  C31119494   5.203  -0.442  15.638 -0.3515  0.3766  0.0340
  161DOPC  H11X19495   5.202  -0.528  15.708  1.6063 -0.3506 -0.7586
  161DOPC  H11Y19496   5.295  -0.387  15.668  0.5563 -0.6653 -0.7377
  161DOPC  C31219497   5.230  -0.507  15.493 -0.4117 -0.2345 -0.2752
  161DOPC  H12X19498   5.141  -0.572  15.479 -1.2830  0.8197  0.2154
  161DOPC  H12Y19499   5.313  -0.578  15.512 -0.6889 -0.4958 -0.0426
  161DOPC  C31319500   5.266  -0.420  15.375 -0.1167 -0.2486 -0.1812
  161DOPC  H13X19501   5.191  -0.338  15.363 -0.5172 -0.3434  1.3578
  161DOPC  H13Y19502   5.364  -0.373  15.399  0.6501 -0.2069 -3.0421
  161DOPC  C31419503   5.273  -0.487  15.239 -0.0900 -0.0930  0.2653
  161DOPC  H14X19504   5.192  -0.562  15.231  0.5169 -0.7163 -0.1447
  161DOPC  H14Y19505   5.252  -0.404  15.168  0.8591  1.2009  1.4442
  161DOPC  C31519506   5.412  -0.555  15.209 -0.5597 -0.4315 -0.7527
  161DOPC  H15X19507   5.415  -0.643  15.277 -1.2495 -1.6346 -2.2223
  161DOPC  H15Y19508   5.496  -0.489  15.239 -0.7215 -0.2874 -0.6174
  161DOPC  C31619509   5.426  -0.617  15.065 -0.1249 -0.3166  0.1337
  161DOPC  H16X19510   5.527  -0.664  15.067  0.0773  0.1220  0.5112
  161DOPC  H16Y19511   5.346  -0.693  15.051 -2.7413  2.2605  0.2545
  161DOPC  C31719512   5.426  -0.513  14.953  0.4748  0.0123  0.5115
  161DOPC  H17X19513   5.326  -0.465  14.954  0.6185  0.3645  2.5171
  161DOPC  H17Y19514   5.502  -0.436  14.978  1.0946 -0.3246 -0.2830
  161DOPC  C31819515   5.454  -0.566  14.804  0.1062 -0.2098 -0.5223
  161DOPC  H18X19516   5.485  -0.489  14.731 -0.0599 -0.4545 -0.8563
  161DOPC  H18Y19517   5.538  -0.637  14.818  0.5971  0.0309 -2.0105
  161DOPC  H18Z19518   5.369  -0.622  14.760 -1.0037 -1.8056  3.2385
  162DOPC     N19519   3.153   5.921  16.945  0.4653  0.4708 -0.2096
  162DOPC   C1219520   3.082   5.942  16.810 -0.0224  0.5680  0.4906
  162DOPC  H12A19521   2.994   6.003  16.827 -0.3906  0.8754 -2.0909
  162DOPC  H12B19522   3.028   5.854  16.781 -0.4945 -0.5229  4.2836
  162DOPC   C1319523   3.175   6.046  17.015 -0.0843 -0.0814  0.7724
  162DOPC  H13A19524   3.087   6.108  17.020 -0.8937 -1.2953  2.6117
  162DOPC  H13B19525   3.191   6.033  17.121 -0.2440  0.6318  0.8901
  162DOPC  H13C19526   3.255   6.102  16.968 -0.6710  1.5856  1.6466
  162DOPC   C1419527   3.283   5.844  16.927  0.4259 -0.8944  0.4991
  162DOPC  H14A19528   3.340   5.831  17.017 -0.1014  1.0227  1.1601
  162DOPC  H14B19529   3.258   5.746  16.890 -1.7267  0.2997 -1.4934
  162DOPC  H14C19530   3.350   5.891  16.857  0.6048 -1.8908 -0.0069
  162DOPC   C1519531   3.074   5.844  17.051 -0.9261 -1.3052  0.2885
  162DOPC  H15A19532   3.071   5.738  17.035 -0.4324 -1.1963 -0.5728
  162DOPC  H15B19533   2.970   5.875  17.045 -0.9783 -0.6929  2.9482
  162DOPC  H15C19534   3.110   5.871  17.150 -1.3411  1.3405 -0.1905
  162DOPC   C1119535   3.168   6.010  16.694  0.3638  0.1784  0.4319
  162DOPC  H11A19536   3.252   5.940  16.677 -1.1969 -1.4418 -1.0155
  162DOPC  H11B19537   3.105   6.009  16.602 -0.8307 -0.1345  1.2236
  162DOPC     P19538   3.117   6.263  16.737 -0.0178  0.4998  0.0445
  162DOPC   O1319539   3.175   6.349  16.842  0.2066  0.1373 -0.3275
  162DOPC   O1419540   2.980   6.223  16.770 -0.2021  0.4186 -0.1544
  162DOPC   O1219541   3.213   6.146  16.712  0.5246  0.1870 -0.1284
  162DOPC   O1119542   3.126   6.350  16.606  0.3261 -0.3441  0.2852
  162DOPC    C119543   3.061   6.315  16.486 -0.1514 -0.3497  0.3459
  162DOPC    HA19544   3.044   6.410  16.430  1.3141  0.2179  0.8006
  162DOPC    HB19545   2.966   6.262  16.507 -0.4819  0.4180  0.8253
  162DOPC    C219546   3.132   6.209  16.388  0.7005  0.3060  0.0159
  162DOPC    HS19547   3.159   6.118  16.447 -1.3439 -0.1668  0.2975
  162DOPC   O2119548   3.245   6.284  16.357 -0.2272 -0.6972  0.0682
  162DOPC   C2119549   3.347   6.219  16.291 -0.2693  0.4034  0.3248
  162DOPC   O2219550   3.354   6.098  16.270 -0.2617 -0.4049 -0.0609
  162DOPC   C2219551   3.459   6.318  16.249 -0.1174 -0.0793 -0.2020
  162DOPC   H2R19552   3.513   6.353  16.340 -1.9358 -0.2392  1.0025
  162DOPC   H2S19553   3.412   6.403  16.195 -0.7598 -0.2236  0.1183
  162DOPC    C319554   3.051   6.159  16.262 -0.4129  0.0389 -0.1602
  162DOPC    HX19555   3.114   6.086  16.208  2.6467  0.7703  2.1214
  162DOPC    HY19556   3.027   6.249  16.201 -3.1269 -1.3910 -1.3850
  162DOPC   O3119557   2.918   6.107  16.292  0.0726 -0.1057 -0.2561
  162DOPC   C3119558   2.921   5.986  16.343 -0.0714 -0.1713  0.0209
  162DOPC   O3219559   3.019   5.914  16.364 -0.2202  0.1660  0.1987
  162DOPC   C3219560   2.780   5.928  16.343  0.2566 -0.3200 -0.7092
  162DOPC   H2X19561   2.788   5.833  16.400  0.5440 -0.2902 -0.7002
  162DOPC   H2Y19562   2.708   5.996  16.393  1.6480 -0.5746  1.7859
  162DOPC   C2319563   3.555   6.247  16.150 -0.2623 -0.4470  0.1816
  162DOPC   H3R19564   3.504   6.166  16.093  1.4505 -2.2894  1.1071
  162DOPC   H3S19565   3.645   6.206  16.202  1.0366  0.3546 -1.3539
  162DOPC   C2419566   3.614   6.333  16.039  0.0434 -0.1257 -0.1792
  162DOPC   H4R19567   3.674   6.416  16.082 -1.3506  1.1072 -0.5239
  162DOPC   H4S19568   3.534   6.381  15.980  0.7147  3.3627  1.4997
  162DOPC   C2519569   3.689   6.256  15.938 -0.1643 -0.7130 -0.3864
  162DOPC   H5R19570   3.735   6.168  15.990  2.6277  1.9206  1.9939
  162DOPC   H5S19571   3.768   6.322  15.897 -0.4026  1.1967  2.0015
  162DOPC   C2619572   3.602   6.205  15.823 -0.4676  0.4672  0.0646
  162DOPC   H6R19573   3.557   6.281  15.755 -0.3387  0.6569  0.1907
  162DOPC   H6S19574   3.517   6.147  15.866 -0.8381  1.4501  0.7009
  162DOPC   C2719575   3.685   6.126  15.730  0.0282  0.0059 -0.1656
  162DOPC   H7R19576   3.761   6.068  15.787  0.4230  1.5485  0.9318
  162DOPC   H7S19577   3.747   6.190  15.664 -1.0502  1.8351  0.5315
  162DOPC   C2819578   3.601   6.029  15.649 -0.0063  0.1914  0.4912
  162DOPC   H8R19579   3.539   6.092  15.582 -0.4662 -1.8459 -1.0792
  162DOPC   H8S19580   3.534   5.966  15.711 -2.6537  2.2636 -0.0877
  162DOPC   C2919581   3.686   5.937  15.564 -0.5385  0.3945  0.2470
  162DOPC   H9R19582   3.794   5.944  15.585 -0.5148  0.1762  0.2000
  162DOPC  C21019583   3.643   5.864  15.458 -0.5176 -0.3600  0.4252
  162DOPC  H10R19584   3.714   5.825  15.384  0.8621  1.3849  0.7643
  162DOPC  C21119585   3.503   5.849  15.423  0.1953 -0.0715  0.0236
  162DOPC  H11R19586   3.436   5.851  15.512  1.4635  0.9991  1.0199
  162DOPC  H11S19587   3.480   5.758  15.365 -1.1957  0.0601  0.3285
  162DOPC  C21219588   3.445   5.977  15.349 -0.0651  0.3792  0.9845
  162DOPC  H12R19589   3.468   6.076  15.394 -0.7230  0.2850  1.5361
  162DOPC  H12S19590   3.338   5.950  15.342  0.5918 -2.1830 -1.9203
  162DOPC  C21319591   3.514   5.976  15.221 -0.0681  0.8621 -0.1960
  162DOPC  H13R19592   3.498   5.875  15.178  0.4949  0.7335 -0.1225
  162DOPC  H13S19593   3.625   5.978  15.217 -0.0744  1.4304 -3.7418
  162DOPC  C21419594   3.454   6.081  15.136 -0.9475  0.7823 -0.7099
  162DOPC  H14R19595   3.474   6.181  15.180  0.9593  1.3128 -2.6386
  162DOPC  H14S19596   3.345   6.063  15.127 -0.9484  0.6587 -0.4405
  162DOPC  C21519597   3.513   6.076  14.991 -0.4298 -0.3680  0.2746
  162DOPC  H15R19598   3.499   5.981  14.934 -0.8216 -0.4567  0.5198
  162DOPC  H15S19599   3.624   6.083  14.998  0.0444 -4.8129  0.1857
  162DOPC  C21619600   3.458   6.196  14.904  0.2182  0.0292  0.0326
  162DOPC  H16R19601   3.454   6.289  14.965  0.2721  0.6449 -0.8841
  162DOPC  H16S19602   3.352   6.183  14.873 -0.0609 -0.0729  0.9938
  162DOPC  C21719603   3.547   6.225  14.780 -0.4750 -0.8423  0.0329
  162DOPC  H17R19604   3.562   6.136  14.716 -2.4831 -0.2460 -1.3305
  162DOPC  H17S19605   3.642   6.271  14.815 -1.7345  0.0870  2.5131
  162DOPC  C21819606   3.476   6.329  14.689 -0.6432 -0.0326  0.1655
  162DOPC  H18R19607   3.444   6.413  14.755 -0.7322 -1.2769  1.7452
  162DOPC  H18S19608   3.385   6.290  14.638 -1.5613  2.0362  0.1262
  162DOPC  H18T19609   3.543   6.374  14.612 -0.3432  0.1189  0.5151
  162DOPC   C3319610   2.728   5.897  16.205  0.0722  0.0330 -0.5092
  162DOPC   H3X19611   2.720   5.986  16.138 -0.7714  0.8172  0.6007
  162DOPC   H3Y19612   2.624   5.862  16.227  0.6525  0.4439  3.7252
  162DOPC   C3419613   2.809   5.787  16.142 -0.1997  0.0185  0.1618
  162DOPC   H4X19614   2.814   5.689  16.193  3.4040 -0.3872 -0.6741
  162DOPC   H4Y19615   2.916   5.814  16.129  0.1754 -1.1011  0.8226
  162DOPC   C3519616   2.747   5.763  16.005  0.4683 -0.9270  0.0071
  162DOPC   H5X19617   2.765   5.854  15.944 -0.4508 -0.9426 -0.2997
  162DOPC   H5Y19618   2.638   5.756  16.027  0.2167  0.4211 -0.6709
  162DOPC   C3619619   2.789   5.638  15.936  0.3627 -0.1440  0.1593
  162DOPC   H6X19620   2.899   5.643  15.915  0.4781 -0.2460  0.7364
  162DOPC   H6Y19621   2.778   5.549  16.001  0.7591 -0.6952 -0.5057
  162DOPC   C3719622   2.709   5.603  15.808 -0.0928 -0.4121 -0.8452
  162DOPC   H7X19623   2.763   5.513  15.771  0.0257 -0.4778 -0.5200
  162DOPC   H7Y19624   2.609   5.562  15.835 -0.4407 -1.3588 -3.3579
  162DOPC   C3819625   2.711   5.702  15.696 -0.0171  0.0736 -0.6579
  162DOPC   H8X19626   2.656   5.793  15.727  0.5176  0.2108 -0.0862
  162DOPC   H8Y19627   2.647   5.677  15.608 -0.8060  2.3397 -0.7842
  162DOPC   C3919628   2.859   5.741  15.662 -0.1349 -0.7807  0.9842
  162DOPC   H9X19629   2.939   5.680  15.705  0.4417 -1.4536 -0.9485
  162DOPC  C31019630   2.892   5.867  15.626 -0.2635 -0.2790  0.1436
  162DOPC  H10X19631   2.998   5.895  15.616  0.0452 -0.8842  1.4127
  162DOPC  C31119632   2.802   5.971  15.576  0.5907 -0.7692 -0.2637
  162DOPC  H11X19633   2.702   5.925  15.590 -0.3608  1.5505  1.2553
  162DOPC  H11Y19634   2.808   5.982  15.465 -3.0471 -1.0411 -0.5891
  162DOPC  C31219635   2.812   6.107  15.647 -0.3570 -0.6674 -0.0645
  162DOPC  H12X19636   2.750   6.186  15.600  0.1923  1.8311  3.0760
  162DOPC  H12Y19637   2.917   6.144  15.654 -0.2026 -0.2633 -3.2039
  162DOPC  C31319638   2.772   6.097  15.797 -0.3135  0.5484 -0.4006
  162DOPC  H13X19639   2.677   6.040  15.798 -0.5332  0.9081 -0.4246
  162DOPC  H13Y19640   2.852   6.037  15.846 -0.1389 -0.5510 -1.9431
  162DOPC  C31419641   2.745   6.241  15.859  0.3336  0.2567  0.3760
  162DOPC  H14X19642   2.824   6.315  15.833 -0.0418  0.5496  0.0571
  162DOPC  H14Y19643   2.665   6.283  15.794 -0.4776  0.8494  1.7059
  162DOPC  C31519644   2.717   6.233  16.011  0.4413 -0.5161 -0.2155
  162DOPC  H15X19645   2.800   6.164  16.041 -0.0931 -2.1629 -2.2912
  162DOPC  H15Y19646   2.616   6.195  16.038  0.2101  1.2090  1.5804
  162DOPC  C31619647   2.733   6.373  16.071  0.0824 -0.6605  0.2625
  162DOPC  H16X19648   2.837   6.412  16.062  0.4909 -2.0749 -1.4992
  162DOPC  H16Y19649   2.666   6.436  16.010 -1.0909 -1.9653  0.1770
  162DOPC  C31719650   2.691   6.384  16.217 -0.0062  0.7289  0.2985
  162DOPC  H17X19651   2.581   6.365  16.222  0.4633 -2.6141  0.5552
  162DOPC  H17Y19652   2.732   6.298  16.275  1.4458  0.1289 -1.5167
  162DOPC  C31819653   2.712   6.510  16.289 -0.1909 -0.2881  0.1982
  162DOPC  H18X19654   2.676   6.602  16.237  4.0532  1.7961  0.5123
  162DOPC  H18Y19655   2.670   6.504  16.391  0.0071  2.3456  0.5054
  162DOPC  H18Z19656   2.819   6.532  16.306 -0.7680  1.7638  1.5053
  163DOPC     N19657   2.361   2.435  17.509  0.0488 -0.4316  0.0127
  163DOPC   C1219658   2.275   2.478  17.395 -0.2717  0.4289 -0.6975
  163DOPC  H12A19659   2.177   2.489  17.438 -0.3165 -0.3370 -0.5828
  163DOPC  H12B19660   2.286   2.406  17.315 -0.0668 -0.5859  0.2141
  163DOPC   C1319661   2.372   2.536  17.617 -0.1365 -0.2642 -0.5132
  163DOPC  H13A19662   2.282   2.560  17.672  1.6471  1.2280  1.9872
  163DOPC  H13B19663   2.444   2.505  17.692  0.2685  2.7168  0.4800
  163DOPC  H13C19664   2.421   2.624  17.577  3.0680 -1.6966 -0.0887
  163DOPC   C1419665   2.503   2.415  17.468 -0.2878  0.0184  0.2976
  163DOPC  H14A19666   2.540   2.510  17.434 -1.4238  0.4101  0.0962
  163DOPC  H14B19667   2.562   2.377  17.549 -0.3367 -1.6148 -0.3968
  163DOPC  H14C19668   2.495   2.351  17.381  1.5510  0.0784  0.0538
  163DOPC   C1519669   2.308   2.304  17.565 -0.8749  0.3454  0.5730
  163DOPC  H15A19670   2.269   2.331  17.662 -1.0331  0.8051  0.3845
  163DOPC  H15B19671   2.390   2.235  17.575 -2.2988 -1.3409  1.1242
  163DOPC  H15C19672   2.234   2.261  17.499 -0.0352  0.2879 -0.3486
  163DOPC   C1119673   2.295   2.628  17.343 -0.0971  0.2852  1.0395
  163DOPC  H11A19674   2.213   2.668  17.279  0.3673  1.0445  0.9099
  163DOPC  H11B19675   2.282   2.687  17.436 -0.5708 -0.4040  1.4215
  163DOPC     P19676   2.444   2.599  17.131  0.0044  0.1497 -0.0265
  163DOPC   O1319677   2.550   2.682  17.078  0.2767  0.0074  0.3216
  163DOPC   O1419678   2.315   2.592  17.060 -0.1053  0.3165 -0.1562
  163DOPC   O1219679   2.421   2.654  17.274 -0.5525  0.1521  0.0656
  163DOPC   O1119680   2.509   2.460  17.152  0.0706 -0.5205 -0.4745
  163DOPC    C119681   2.487   2.339  17.079 -0.2597 -0.7506 -0.5397
  163DOPC    HA19682   2.388   2.345  17.028  0.2041 -0.7153 -1.4506
  163DOPC    HB19683   2.479   2.254  17.150 -1.9145  0.9873  1.4787
  163DOPC    C219684   2.605   2.314  16.984  0.1084 -0.9109 -1.1127
  163DOPC    HS19685   2.697   2.341  17.040 -0.5461  2.3436 -1.4124
  163DOPC   O2119686   2.592   2.404  16.878  0.1141 -0.0757  0.5728
  163DOPC   C2119687   2.696   2.441  16.812 -0.2101  0.0507 -0.4596
  163DOPC   O2219688   2.808   2.395  16.824  0.6319  0.3761 -0.2704
  163DOPC   C2219689   2.652   2.546  16.712 -0.1306  0.1509  0.7394
  163DOPC   H2R19690   2.723   2.631  16.700  1.5807 -1.3862 -0.5471
  163DOPC   H2S19691   2.561   2.603  16.744 -0.1249  0.7673 -0.2901
  163DOPC    C319692   2.619   2.162  16.943 -0.0317 -0.5244 -0.4084
  163DOPC    HX19693   2.615   2.108  17.040  1.1129 -0.3755 -0.2687
  163DOPC    HY19694   2.712   2.147  16.885  1.1164 -0.3716  1.3405
  163DOPC   O3119695   2.511   2.124  16.853 -0.1516  0.3492  0.8572
  163DOPC   C3119696   2.406   2.058  16.907 -0.4798  0.2135 -0.0809
  163DOPC   O3219697   2.393   2.029  17.026  0.4910  0.2712  0.0482
  163DOPC   C3219698   2.300   2.030  16.801 -0.3262  0.9078  0.2725
  163DOPC   H2X19699   2.273   1.922  16.797 -2.1304  1.3677 -1.8286
  163DOPC   H2Y19700   2.206   2.083  16.827 -1.3857 -0.9671  0.4607
  163DOPC   C2319701   2.598   2.476  16.582 -0.1965  0.0675 -0.2964
  163DOPC   H3R19702   2.524   2.397  16.606  0.1016  0.0680  0.6968
  163DOPC   H3S19703   2.677   2.435  16.516 -0.3556  0.1194 -0.5192
  163DOPC   C2419704   2.519   2.584  16.502  0.3602  0.5886  0.0710
  163DOPC   H4R19705   2.582   2.671  16.470  0.7799 -0.2490 -1.4958
  163DOPC   H4S19706   2.430   2.618  16.558 -0.0396 -0.4186  0.0669
  163DOPC   C2519707   2.462   2.530  16.368 -0.3549 -0.1440  0.2165
  163DOPC   H5R19708   2.375   2.591  16.335 -1.4245 -1.0049  1.3164
  163DOPC   H5S19709   2.433   2.424  16.384 -1.2651 -0.3966 -2.5313
  163DOPC   C2619710   2.576   2.532  16.265  0.0772 -0.1003 -0.3544
  163DOPC   H6R19711   2.650   2.451  16.279  1.0923  0.9691  0.6171
  163DOPC   H6S19712   2.632   2.628  16.266  2.6066 -1.5036  0.5660
  163DOPC   C2719713   2.515   2.507  16.126 -0.5946 -0.6358  0.3241
  163DOPC   H7R19714   2.432   2.576  16.099  0.9698  0.6175 -1.5119
  163DOPC   H7S19715   2.462   2.410  16.129  0.7747 -1.4689 -1.0044
  163DOPC   C2819716   2.622   2.516  16.009  0.4089  0.6257  0.3462
  163DOPC   H8R19717   2.710   2.451  16.028 -0.4994 -0.7946 -0.2325
  163DOPC   H8S19718   2.658   2.620  15.992 -0.0407  1.0602  1.8530
  163DOPC   C2919719   2.560   2.461  15.878  0.2667  0.4812 -0.0119
  163DOPC   H9R19720   2.511   2.366  15.903  2.1602  0.1145  2.6769
  163DOPC  C21019721   2.554   2.517  15.757 -0.5599  0.2700  0.0781
  163DOPC  H10R19722   2.514   2.454  15.675 -0.3752 -1.2504  1.1052
  163DOPC  C21119723   2.598   2.649  15.709 -0.3515  0.4900  0.1251
  163DOPC  H11R19724   2.630   2.716  15.792 -0.7783 -0.0256  0.7093
  163DOPC  H11S19725   2.505   2.689  15.663 -1.5286 -0.6942  1.4108
  163DOPC  C21219726   2.721   2.644  15.603  0.7373  0.3975 -0.1407
  163DOPC  H12R19727   2.802   2.598  15.664  1.0538  0.1381 -0.7558
  163DOPC  H12S19728   2.757   2.742  15.565 -0.4156  0.9866  0.1937
  163DOPC  C21319729   2.687   2.568  15.475 -0.1460 -0.2276  0.2526
  163DOPC  H13R19730   2.599   2.605  15.417  0.5111 -1.6355 -1.7356
  163DOPC  H13S19731   2.666   2.462  15.500  2.4951 -0.7408  0.5113
  163DOPC  C21419732   2.809   2.563  15.381 -0.1496  0.0305  0.8745
  163DOPC  H14R19733   2.896   2.518  15.434  0.9028  0.5944 -0.3247
  163DOPC  H14S19734   2.845   2.667  15.361  1.3074 -0.6637 -0.3081
  163DOPC  C21519735   2.766   2.500  15.250 -0.6007  0.1242 -0.0641
  163DOPC  H15R19736   2.677   2.558  15.216 -0.0017  0.9334 -0.2804
  163DOPC  H15S19737   2.740   2.392  15.249 -0.1777  0.0073 -1.8728
  163DOPC  C21619738   2.869   2.513  15.142 -0.0705  0.2851  0.7045
  163DOPC  H16R19739   2.894   2.621  15.144  1.8674 -0.1063 -0.4498
  163DOPC  H16S19740   2.833   2.481  15.041  4.7415  0.0986 -1.2142
  163DOPC  C21719741   3.003   2.438  15.167  0.0434 -0.3916  0.5176
  163DOPC  H17R19742   2.975   2.331  15.176  2.9875 -1.1393  2.2370
  163DOPC  H17S19743   3.047   2.460  15.267  0.3395  1.8339 -0.0437
  163DOPC  C21819744   3.100   2.450  15.045 -0.2038  0.6092  0.0244
  163DOPC  H18R19745   3.055   2.458  14.943  1.3104  1.0573 -0.6390
  163DOPC  H18S19746   3.162   2.360  15.028 -3.6716 -1.7678 -1.0815
  163DOPC  H18T19747   3.168   2.534  15.072  2.2208 -1.7451  1.6464
  163DOPC   C3319748   2.337   2.085  16.660  0.2894  0.6768 -0.0622
  163DOPC   H3X19749   2.424   2.030  16.618 -0.4781 -1.6263  1.1602
  163DOPC   H3Y19750   2.363   2.192  16.675 -2.3403  1.0050  3.4940
  163DOPC   C3419751   2.224   2.071  16.560  0.2233 -0.2057  0.1993
  163DOPC   H4X19752   2.188   1.966  16.558  1.3301 -0.6171  0.7545
  163DOPC   H4Y19753   2.266   2.084  16.457 -2.6078 -1.2574 -1.1900
  163DOPC   C3519754   2.099   2.162  16.578 -0.5068 -0.3557  0.3957
  163DOPC   H5X19755   2.131   2.262  16.614  0.3851 -0.6753  0.5116
  163DOPC   H5Y19756   2.047   2.110  16.661  1.2673 -0.7595  1.2842
  163DOPC   C3619757   2.008   2.155  16.454 -0.2140 -0.3715 -0.3065
  163DOPC   H6X19758   2.075   2.191  16.373 -0.7823 -1.8261 -1.4640
  163DOPC   H6Y19759   1.986   2.046  16.447  1.3485 -0.8214  1.0140
  163DOPC   C3719760   1.884   2.240  16.466 -0.6038  0.3068 -0.6359
  163DOPC   H7X19761   1.813   2.187  16.533 -1.4200 -1.0184 -2.4613
  163DOPC   H7Y19762   1.906   2.340  16.507  0.3409 -0.5200  0.9644
  163DOPC   C3819763   1.802   2.255  16.334  0.0375 -0.3565 -0.1760
  163DOPC   H8X19764   1.778   2.156  16.290 -0.0881 -0.0600 -0.7844
  163DOPC   H8Y19765   1.879   2.309  16.275 -0.3686  1.5273  0.9398
  163DOPC   C3919766   1.683   2.344  16.341  0.1578 -0.3061 -0.4229
  163DOPC   H9X19767   1.709   2.444  16.379  1.3703 -1.6530  2.5824
  163DOPC  C31019768   1.567   2.334  16.280  1.0615  0.6999  0.4006
  163DOPC  H10X19769   1.489   2.410  16.294  0.0197 -0.5729  1.8584
  163DOPC  C31119770   1.524   2.220  16.186  0.7491  0.9861  0.3317
  163DOPC  H11X19771   1.423   2.183  16.214  0.4119  0.7427 -1.1302
  163DOPC  H11Y19772   1.599   2.138  16.184 -0.0245  0.2757 -0.3837
  163DOPC  C31219773   1.519   2.270  16.036 -0.3089  0.7162 -0.5605
  163DOPC  H12X19774   1.462   2.365  16.029 -1.2992  0.1011 -1.0263
  163DOPC  H12Y19775   1.464   2.191  15.981  1.6420 -0.1902 -1.3116
  163DOPC  C31319776   1.656   2.273  15.963 -0.1350 -0.4678 -0.5173
  163DOPC  H13X19777   1.720   2.354  16.004 -0.5927 -0.1634 -0.3988
  163DOPC  H13Y19778   1.712   2.180  15.986  0.8108  0.3598  0.6415
  163DOPC  C31419779   1.643   2.292  15.815 -0.1601  0.6405 -0.1807
  163DOPC  H14X19780   1.581   2.208  15.780  0.1560  1.1457 -2.0616
  163DOPC  H14Y19781   1.584   2.385  15.800  0.1903  1.2484  1.7832
  163DOPC  C31519782   1.781   2.305  15.735  0.4443 -0.4271 -0.1718
  163DOPC  H15X19783   1.846   2.217  15.753 -0.3838 -1.3738 -1.6356
  163DOPC  H15Y19784   1.828   2.397  15.777 -0.6272  1.1755 -2.2231
  163DOPC  C31619785   1.775   2.333  15.587  0.5011  0.3938 -0.1159
  163DOPC  H16X19786   1.740   2.242  15.534  0.2120  0.4436 -0.0087
  163DOPC  H16Y19787   1.694   2.407  15.575  0.1116  0.0203  0.2077
  163DOPC  C31719788   1.907   2.393  15.544 -1.0073 -0.1869 -0.6123
  163DOPC  H17X19789   1.919   2.475  15.618 -0.1697 -1.0923  0.2875
  163DOPC  H17Y19790   1.977   2.310  15.571  1.0399  1.8502  0.7560
  163DOPC  C31819791   1.917   2.429  15.399 -0.0408  0.2416 -0.6593
  163DOPC  H18X19792   2.008   2.486  15.371 -0.7486  0.4200 -2.7919
  163DOPC  H18Y19793   1.918   2.336  15.338  3.9621 -0.0922 -0.3544
  163DOPC  H18Z19794   1.836   2.499  15.373  0.8515  1.6367  0.2049
  164DOPC     N19795   2.578   0.525  17.526 -0.4455 -0.3455 -0.5876
  164DOPC   C1219796   2.627   0.544  17.384 -0.1421  0.1372 -0.2354
  164DOPC  H12A19797   2.552   0.506  17.316 -1.0386 -2.4101  2.0077
  164DOPC  H12B19798   2.711   0.476  17.371  1.5978  1.6702  2.1023
  164DOPC   C1319799   2.482   0.635  17.565  0.1945  0.6852  0.2941
  164DOPC  H13A19800   2.524   0.730  17.595  0.5814  0.0936  1.6597
  164DOPC  H13B19801   2.414   0.655  17.483  1.1777  0.8182 -0.5023
  164DOPC  H13C19802   2.412   0.604  17.641 -1.0114  2.5533  0.0280
  164DOPC   C1419803   2.689   0.504  17.629  0.4709 -0.9116  0.6219
  164DOPC  H14A19804   2.755   0.589  17.619  1.8369 -1.7722  1.9956
  164DOPC  H14B19805   2.655   0.492  17.731  0.2665 -0.4658  0.6131
  164DOPC  H14C19806   2.746   0.415  17.605  2.0627  0.2037  0.1133
  164DOPC   C1519807   2.493   0.404  17.520  0.0376  0.0861 -0.1643
  164DOPC  H15A19808   2.447   0.380  17.615  2.4248 -0.6762  0.8721
  164DOPC  H15B19809   2.554   0.320  17.490 -1.6085 -0.8064 -1.1214
  164DOPC  H15C19810   2.416   0.427  17.448 -0.7627  4.2351  1.6960
  164DOPC   C1119811   2.662   0.688  17.336  0.3658  0.0540  0.3118
  164DOPC  H11A19812   2.687   0.668  17.230  1.4028 -0.5954  0.6632
  164DOPC  H11B19813   2.583   0.766  17.339  0.3852  0.0432  1.7168
  164DOPC     P19814   2.921   0.747  17.346 -0.0887  0.3072 -0.4144
  164DOPC   O1319815   3.012   0.649  17.409 -0.5527  0.0152 -0.2307
  164DOPC   O1419816   2.951   0.892  17.360 -0.5705  0.5469  0.1270
  164DOPC   O1219817   2.778   0.727  17.408 -0.0183 -0.1658 -0.3105
  164DOPC   O1119818   2.905   0.716  17.192 -0.4281  0.1519  0.0476
  164DOPC    C119819   2.999   0.629  17.123  0.2586  0.0126  0.1834
  164DOPC    HA19820   2.960   0.606  17.021 -0.8041  1.4643  0.2253
  164DOPC    HB19821   3.022   0.532  17.172  0.7517 -0.1341 -0.3389
  164DOPC    C219822   3.132   0.701  17.097  0.1259  0.0467 -0.2184
  164DOPC    HS19823   3.181   0.707  17.196 -0.1386  0.5334 -0.1171
  164DOPC   O2119824   3.105   0.838  17.060  0.0474 -0.0585 -0.0170
  164DOPC   C2119825   3.208   0.913  17.062  0.1297 -0.2037 -0.4869
  164DOPC   O2219826   3.322   0.880  17.093 -0.3747 -0.8670 -0.1853
  164DOPC   C2219827   3.160   1.057  17.055  0.6096  0.2339 -0.1854
  164DOPC   H2R19828   3.146   1.095  17.158  0.7673 -0.3647  0.0642
  164DOPC   H2S19829   3.055   1.050  17.019  0.3747  0.3616  0.4598
  164DOPC    C319830   3.226   0.625  16.997 -0.8103 -0.0909 -0.2215
  164DOPC    HX19831   3.234   0.522  17.039 -1.1074 -0.1811 -0.3826
  164DOPC    HY19832   3.327   0.670  17.001  0.2988 -2.4251  3.3281
  164DOPC   O3119833   3.170   0.621  16.866  0.1031 -0.2208 -0.0766
  164DOPC   C3119834   3.202   0.707  16.774 -0.4764 -0.4946  0.3551
  164DOPC   O3219835   3.291   0.792  16.770  0.2650  0.2522  0.1142
  164DOPC   C3219836   3.116   0.681  16.648  0.7803  1.0744  0.2676
  164DOPC   H2X19837   3.164   0.595  16.597  0.9689  2.3552 -1.8150
  164DOPC   H2Y19838   3.021   0.643  16.691 -0.1497  0.5825 -2.0748
  164DOPC   C2319839   3.239   1.159  16.973  0.1692  0.2645 -0.5214
  164DOPC   H3R19840   3.344   1.162  17.008 -0.6583  1.2876  2.0844
  164DOPC   H3S19841   3.202   1.262  16.988  0.0126  0.4230 -1.8693
  164DOPC   C2419842   3.217   1.134  16.827 -0.6119 -0.0814  0.8761
  164DOPC   H4R19843   3.202   1.026  16.807 -1.9440  0.1165  0.6897
  164DOPC   H4S19844   3.299   1.174  16.764  1.0272 -1.4645  2.0362
  164DOPC   C2519845   3.083   1.192  16.773 -0.1172  0.2428  0.1847
  164DOPC   H5R19846   3.083   1.297  16.811  2.5043  0.5521 -0.4739
  164DOPC   H5S19847   2.993   1.144  16.816 -0.4402 -1.2436 -2.0073
  164DOPC   C2619848   3.080   1.169  16.615 -0.0469 -0.4272 -0.1121
  164DOPC   H6R19849   3.110   1.063  16.606 -0.2630 -0.6089  1.0671
  164DOPC   H6S19850   3.154   1.238  16.568 -0.4584 -0.3488 -0.6555
  164DOPC   C2719851   2.937   1.198  16.556 -0.3075  0.0673 -0.8447
  164DOPC   H7R19852   2.904   1.301  16.579 -0.5015  0.3929 -2.4760
  164DOPC   H7S19853   2.873   1.122  16.606  1.8250 -0.0545  1.9800
  164DOPC   C2819854   2.932   1.172  16.403 -0.2339  0.1264 -0.1102
  164DOPC   H8R19855   2.826   1.193  16.376  0.1486  0.4386 -1.4392
  164DOPC   H8S19856   2.959   1.067  16.375 -1.7878 -0.3047 -0.1072
  164DOPC   C2919857   3.009   1.271  16.323  0.2106 -0.2539 -0.6470
  164DOPC   H9R19858   3.087   1.321  16.383 -1.6331  0.5581  1.2177
  164DOPC  C21019859   2.975   1.318  16.204 -0.5036  0.6405 -0.0786
  164DOPC  H10R19860   3.039   1.394  16.158 -0.6535  0.7484 -0.1085
  164DOPC  C21119861   2.853   1.265  16.126  0.7294  0.0018  0.0578
  164DOPC  H11R19862   2.753   1.289  16.169 -0.3882  0.5494 -2.6698
  164DOPC  H11S19863   2.865   1.155  16.122  1.6659  0.1219 -1.0444
  164DOPC  C21219864   2.856   1.309  15.981 -1.1270 -0.0631  0.1212
  164DOPC  H12R19865   2.917   1.232  15.930  0.5057  0.9965  0.4065
  164DOPC  H12S19866   2.908   1.404  15.956 -0.3527 -0.2393  1.0394
  164DOPC  C21319867   2.721   1.292  15.903 -0.2141 -0.4278  0.4280
  164DOPC  H13R19868   2.652   1.370  15.940 -0.5116 -1.3499  1.8935
  164DOPC  H13S19869   2.686   1.189  15.927 -1.1839 -0.8092 -2.2559
  164DOPC  C21419870   2.736   1.308  15.746  0.1772 -0.2994  0.7152
  164DOPC  H14R19871   2.811   1.239  15.702 -1.4352 -0.1046 -2.7124
  164DOPC  H14S19872   2.759   1.415  15.730 -3.0964  0.5325  0.8355
  164DOPC  C21519873   2.599   1.275  15.680 -0.2266 -0.4157 -0.1796
  164DOPC  H15R19874   2.518   1.342  15.715  0.0437 -0.4175  0.4543
  164DOPC  H15S19875   2.579   1.166  15.687 -1.0391 -0.2158  0.8512
  164DOPC  C21619876   2.601   1.306  15.531  0.7694  0.2981  0.2851
  164DOPC  H16R19877   2.691   1.264  15.481 -0.6966 -1.6782 -0.8053
  164DOPC  H16S19878   2.604   1.417  15.517 -0.5072  0.2902 -0.1332
  164DOPC  C21719879   2.474   1.256  15.465  0.2555 -0.0662  0.5358
  164DOPC  H17R19880   2.386   1.303  15.514  1.0189 -1.2029  3.2042
  164DOPC  H17S19881   2.466   1.149  15.496  2.8205 -0.0912  1.3158
  164DOPC  C21819882   2.464   1.273  15.308  0.5712  0.3366 -0.3173
  164DOPC  H18R19883   2.553   1.238  15.251 -1.7456 -1.0224 -3.3910
  164DOPC  H18S19884   2.452   1.380  15.279  0.1645  0.3740 -0.0126
  164DOPC  H18T19885   2.367   1.229  15.278  0.0528  1.5605 -0.4798
  164DOPC   C3319886   3.103   0.791  16.547  0.4876 -0.5105  0.2327
  164DOPC   H3X19887   3.204   0.814  16.509 -0.3894  1.9605 -0.8007
  164DOPC   H3Y19888   3.057   0.877  16.599  1.3287  2.5631 -3.6553
  164DOPC   C3419889   3.020   0.744  16.428  0.3071  0.5674 -0.4011
  164DOPC   H4X19890   3.068   0.648  16.398 -1.1635 -0.9366  1.7534
  164DOPC   H4Y19891   3.051   0.807  16.341 -0.1563 -1.4864 -2.1361
  164DOPC   C3519892   2.880   0.709  16.451  0.8190  0.5836  0.0544
  164DOPC   H5X19893   2.820   0.784  16.508  2.0029 -0.4553  2.8205
  164DOPC   H5Y19894   2.883   0.624  16.522  0.1915 -0.1966 -0.8248
  164DOPC   C3619895   2.798   0.669  16.325 -0.0551 -0.0013 -0.5976
  164DOPC   H6X19896   2.812   0.754  16.254  0.5320  0.2877 -0.1484
  164DOPC   H6Y19897   2.843   0.588  16.264 -0.0955 -1.0831  0.7842
  164DOPC   C3719898   2.654   0.634  16.366 -0.7648 -0.0945  0.7787
  164DOPC   H7X19899   2.647   0.525  16.389 -0.6548 -0.0809  0.8779
  164DOPC   H7Y19900   2.637   0.684  16.463 -2.2728 -0.5099  0.7515
  164DOPC   C3819901   2.545   0.668  16.265  0.0554 -0.3395 -0.4206
  164DOPC   H8X19902   2.451   0.632  16.312  0.1916  0.3870  0.4447
  164DOPC   H8Y19903   2.565   0.609  16.173  1.6057 -0.9639  0.2722
  164DOPC   C3919904   2.528   0.814  16.246  0.4359  0.6856  0.3152
  164DOPC   H9X19905   2.480   0.865  16.331 -0.5529 -0.7419  0.6480
  164DOPC  C31019906   2.546   0.892  16.138 -0.4028  0.6005 -0.1091
  164DOPC  H10X19907   2.517   0.998  16.145  2.2457  1.2851  1.5368
  164DOPC  C31119908   2.584   0.841  16.004 -0.0094 -0.2474  0.0389
  164DOPC  H11X19909   2.659   0.760  16.016  1.5184  0.8755 -1.4853
  164DOPC  H11Y19910   2.628   0.926  15.949  0.5379 -0.3320  0.3310
  164DOPC  C31219911   2.469   0.778  15.936  0.4092 -0.0003 -0.0197
  164DOPC  H12X19912   2.370   0.827  15.946 -0.8299 -2.0796 -1.3220
  164DOPC  H12Y19913   2.459   0.670  15.960 -0.7457  0.5178  2.0124
  164DOPC  C31319914   2.499   0.788  15.787 -0.0828  0.0540  0.1571
  164DOPC  H13X19915   2.517   0.892  15.754  2.0904  0.1440  1.4374
  164DOPC  H13Y19916   2.595   0.747  15.752  0.5094 -0.1448  1.9076
  164DOPC  C31419917   2.383   0.742  15.700  0.0251  0.2457 -0.8180
  164DOPC  H14X19918   2.293   0.783  15.750 -1.5333 -2.7355 -0.9148
  164DOPC  H14Y19919   2.360   0.633  15.703 -1.4319  0.4662 -2.7799
  164DOPC  C31519920   2.386   0.770  15.550 -1.1362 -0.6205  0.3245
  164DOPC  H15X19921   2.424   0.875  15.541  2.0959 -1.7604 -0.6231
  164DOPC  H15Y19922   2.283   0.760  15.511 -1.9110 -1.5908  2.4792
  164DOPC  C31619923   2.483   0.675  15.480  0.0809 -0.2094  0.1026
  164DOPC  H16X19924   2.472   0.706  15.373 -1.5502  0.9207  0.5476
  164DOPC  H16Y19925   2.586   0.689  15.517 -0.6570  1.0708  1.8127
  164DOPC  C31719926   2.445   0.526  15.484 -0.0920 -0.1244 -0.0512
  164DOPC  H17X19927   2.480   0.473  15.575  0.0729 -1.9495 -1.1379
  164DOPC  H17Y19928   2.334   0.532  15.484 -0.1427 -0.9086 -0.5176
  164DOPC  C31819929   2.492   0.449  15.350  0.4440  0.0156 -0.9102
  164DOPC  H18X19930   2.457   0.344  15.343 -0.7604  0.4592 -1.9285
  164DOPC  H18Y19931   2.457   0.503  15.259 -0.1873 -0.2189 -0.8107
  164DOPC  H18Z19932   2.602   0.464  15.351  0.2061  2.6066  1.4973
  165DOPC     N19933   6.958   0.721  17.200 -0.8355  0.2429 -0.1239
  165DOPC   C1219934   6.995   0.846  17.123 -0.4567 -0.3396  0.0108
  165DOPC  H12A19935   7.094   0.830  17.084  1.1397  1.7410  2.9037
  165DOPC  H12B19936   7.004   0.927  17.194  1.5959  0.5469 -1.1721
  165DOPC   C1319937   6.836   0.736  17.283 -0.6953  0.1060  0.3782
  165DOPC  H13A19938   6.799   0.637  17.308  0.1924 -0.3620 -0.1035
  165DOPC  H13B19939   6.859   0.788  17.375 -0.6533 -0.3797  0.6509
  165DOPC  H13C19940   6.764   0.788  17.223  1.2427  1.6480 -0.7111
  165DOPC   C1419941   7.068   0.691  17.306  0.0375  0.5121 -0.2055
  165DOPC  H14A19942   7.050   0.593  17.347 -1.4456  0.5868 -0.6192
  165DOPC  H14B19943   7.164   0.701  17.259 -0.3679  1.6221 -0.8561
  165DOPC  H14C19944   7.048   0.759  17.388 -1.8868 -0.4035  0.1547
  165DOPC   C1519945   6.938   0.600  17.117 -0.0100  0.3681 -0.3169
  165DOPC  H15A19946   6.854   0.614  17.052 -2.2936 -2.4563  1.7721
  165DOPC  H15B19947   6.917   0.513  17.177 -1.7153  1.1916  0.3348
  165DOPC  H15C19948   7.023   0.581  17.053  0.9307 -1.3322  1.3338
  165DOPC   C1119949   6.901   0.887  17.014  0.2428  0.3133 -0.4516
  165DOPC  H11A19950   6.936   0.987  16.981  0.8799  0.7463  1.4345
  165DOPC  H11B19951   6.918   0.827  16.922  0.2081 -0.1357 -0.1699
  165DOPC     P19952   6.650   0.833  16.970 -0.1747 -0.4581 -0.4235
  165DOPC   O1319953   6.522   0.886  17.016  0.1672 -0.3564 -0.5968
  165DOPC   O1419954   6.666   0.683  16.969  0.1173 -0.3915 -0.5121
  165DOPC   O1219955   6.766   0.906  17.055  0.2314  0.0962  0.2072
  165DOPC   O1119956   6.675   0.881  16.820 -0.2794  0.2953 -0.1636
  165DOPC    C119957   6.649   1.018  16.784 -0.0620 -0.2992  0.7917
  165DOPC    HA19958   6.684   1.092  16.859 -0.4236  0.2742  0.4099
  165DOPC    HB19959   6.539   1.029  16.776 -0.0871 -0.8383  0.3280
  165DOPC    C219960   6.731   1.067  16.656 -0.2633  1.0940  0.0867
  165DOPC    HS19961   6.703   1.171  16.631 -0.2413  1.0889  0.0410
  165DOPC   O2119962   6.720   0.968  16.547  0.0910 -0.1866  0.4476
  165DOPC   C2119963   6.604   0.960  16.477 -0.8648 -0.3182 -0.4151
  165DOPC   O2219964   6.508   1.037  16.491  0.2085  0.4934  0.0121
  165DOPC   C2219965   6.600   0.835  16.388  0.3568 -0.8644  0.0464
  165DOPC   H2R19966   6.497   0.794  16.394  0.4384 -0.9150  1.4015
  165DOPC   H2S19967   6.665   0.765  16.445  1.3716 -1.5733 -1.8931
  165DOPC    C319968   6.880   1.081  16.694 -0.3882 -0.6915 -0.3869
  165DOPC    HX19969   6.912   0.977  16.718  0.4684 -0.9737 -2.4929
  165DOPC    HY19970   6.891   1.156  16.775  3.3868  2.4365 -3.4422
  165DOPC   O3119971   6.953   1.142  16.583 -0.6018 -0.6728 -0.1094
  165DOPC   C3119972   7.080   1.101  16.559 -0.4096  0.1328 -0.3742
  165DOPC   O3219973   7.144   1.029  16.633  0.1240 -0.0775 -0.2864
  165DOPC   C3219974   7.115   1.163  16.428  0.2877 -0.3298  0.4152
  165DOPC   H2X19975   7.023   1.211  16.388  0.5262  0.2729  0.5743
  165DOPC   H2Y19976   7.203   1.230  16.441  0.5965 -0.5446 -0.5183
  165DOPC   C2319977   6.647   0.848  16.247 -0.1071 -0.2136 -0.1661
  165DOPC   H3R19978   6.664   0.749  16.199 -1.9495 -0.0866 -1.1673
  165DOPC   H3S19979   6.747   0.896  16.244 -0.6013  0.8653  0.2036
  165DOPC   C2419980   6.540   0.923  16.163 -0.2696  0.7451  0.3689
  165DOPC   H4R19981   6.509   1.021  16.205  0.7002  0.9607  0.6061
  165DOPC   H4S19982   6.451   0.857  16.159 -0.3268  0.6975  1.8834
  165DOPC   C2519983   6.600   0.949  16.024 -0.0701  0.4688  0.4527
  165DOPC   H5R19984   6.679   1.028  16.024 -1.1948  1.6214  1.1911
  165DOPC   H5S19985   6.511   0.972  15.961  0.4059 -0.5816 -0.6590
  165DOPC   C2619986   6.650   0.822  15.953 -0.2153  0.1873 -0.6087
  165DOPC   H6R19987   6.578   0.745  15.987 -0.5836  0.9225  0.3171
  165DOPC   H6S19988   6.754   0.811  15.991 -0.1182  0.7205 -0.7143
  165DOPC   C2719989   6.669   0.823  15.800  0.3403  1.0262  0.1993
  165DOPC   H7R19990   6.709   0.722  15.775 -0.9576  0.5381 -0.0025
  165DOPC   H7S19991   6.732   0.905  15.761 -0.3225  0.5752 -1.9499
  165DOPC   C2819992   6.538   0.804  15.718 -0.0817 -0.1400  0.1374
  165DOPC   H8R19993   6.451   0.852  15.767 -0.0592 -0.8599  0.9172
  165DOPC   H8S19994   6.506   0.697  15.722 -0.8272  0.0906  0.5108
  165DOPC   C2919995   6.544   0.849  15.570  0.0188  0.6855 -0.4257
  165DOPC   H9R19996   6.591   0.948  15.557  0.6086  0.5098  0.2897
  165DOPC  C21019997   6.502   0.792  15.456  0.1068  1.1924  0.2923
  165DOPC  H10R19998   6.497   0.838  15.356  0.5269  2.8402  0.9970
  165DOPC  C21119999   6.455   0.647  15.450 -0.1694 -0.1265 -0.3465
  165DOPC  H11R20000   6.368   0.629  15.516 -1.1874  0.6220 -1.4373
  165DOPC  H11S20001   6.541   0.591  15.492 -0.2378 -0.8862 -1.1736
  165DOPC  C21220002   6.425   0.616  15.301 -0.0555 -0.7658  0.5118
  165DOPC  H12R20003   6.354   0.696  15.271 -0.7074 -1.7131 -0.5733
  165DOPC  H12S20004   6.370   0.520  15.297 -1.3471 -0.0523  0.4407
  165DOPC  C21320005   6.544   0.605  15.205  0.6076  0.1502 -0.0927
  165DOPC  H13R20006   6.634   0.552  15.242  0.3691 -1.2243 -1.3966
  165DOPC  H13S20007   6.580   0.710  15.192  0.9482  0.2346  1.3461
  165DOPC  C21420008   6.496   0.530  15.076  0.1345 -0.6066  0.0121
  165DOPC  H14R20009   6.417   0.590  15.027 -0.1298  0.2305  1.4178
  165DOPC  H14S20010   6.441   0.444  15.120 -1.6577 -0.2654 -1.4128
  165DOPC  C21520011   6.615   0.498  14.981 -0.3425 -0.7384 -0.2302
  165DOPC  H15R20012   6.671   0.593  14.972 -0.6917 -0.4631  0.4174
  165DOPC  H15S20013   6.567   0.472  14.884  0.0191 -1.5569 -0.2038
  165DOPC  C21620014   6.705   0.380  15.004  0.4468  0.3336 -0.1618
  165DOPC  H16R20015   6.644   0.288  14.990  3.6799 -1.9539 -0.4256
  165DOPC  H16S20016   6.731   0.363  15.111  0.0572 -0.8035 -0.2305
  165DOPC  C21720017   6.828   0.379  14.910  0.0592  0.3389 -0.4818
  165DOPC  H17R20018   6.783   0.403  14.811  0.4370  0.3195 -0.6614
  165DOPC  H17S20019   6.857   0.272  14.906 -0.8959  0.1077 -2.7985
  165DOPC  C21820020   6.948   0.469  14.940 -0.0785  0.4172  0.4248
  165DOPC  H18R20021   7.033   0.428  14.882  0.4839  3.0789 -0.7757
  165DOPC  H18S20022   6.971   0.463  15.049  0.8169 -1.6235  0.1648
  165DOPC  H18T20023   6.949   0.573  14.902 -0.1714  0.0153 -0.7083
  165DOPC   C3320024   7.157   1.056  16.323 -1.0682 -0.4955 -0.6586
  165DOPC   H3X20025   7.234   0.988  16.365 -1.1758 -0.4700 -0.4149
  165DOPC   H3Y20026   7.218   1.109  16.247 -1.3663 -2.1829 -2.1259
  165DOPC   C3420027   7.039   0.981  16.263 -0.1354  0.4472 -0.0733
  165DOPC   H4X20028   6.974   1.058  16.214 -2.6490 -0.7043  1.2849
  165DOPC   H4Y20029   6.990   0.931  16.348 -1.0129  0.4854 -0.5436
  165DOPC   C3520030   7.097   0.872  16.165 -0.0200  0.7127 -0.3326
  165DOPC   H5X20031   7.025   0.836  16.088 -0.6186  0.9271  0.1177
  165DOPC   H5Y20032   7.107   0.777  16.222  1.1518  0.1616 -1.4122
  165DOPC   C3620033   7.230   0.891  16.089 -0.0463 -0.0592 -0.6511
  165DOPC   H6X20034   7.220   0.984  16.029 -0.0025  0.2831 -0.1355
  165DOPC   H6Y20035   7.301   0.909  16.173  0.5605  1.0018 -1.3778
  165DOPC   C3720036   7.276   0.771  16.013  0.6110 -0.6390 -0.3011
  165DOPC   H7X20037   7.185   0.731  15.963 -0.2495  0.0736  0.6367
  165DOPC   H7Y20038   7.291   0.690  16.087 -0.0832 -0.0531  0.5078
  165DOPC   C3820039   7.388   0.805  15.912 -0.1115  0.4463 -0.7861
  165DOPC   H8X20040   7.466   0.849  15.978 -0.1709 -1.8077  0.8771
  165DOPC   H8Y20041   7.347   0.883  15.844  0.5235  1.2484 -0.2653
  165DOPC   C3920042   7.445   0.686  15.839 -0.2128 -0.6276 -0.0598
  165DOPC   H9X20043   7.454   0.599  15.905 -1.4741 -0.0317  0.9302
  165DOPC  C31020044   7.484   0.682  15.714 -0.0330  0.8988 -0.4487
  165DOPC  H10X20045   7.515   0.584  15.675 -2.3877 -0.4306  0.7969
  165DOPC  C31120046   7.460   0.785  15.606  1.1909  0.2346 -0.8809
  165DOPC  H11X20047   7.531   0.870  15.606  2.3540 -0.6039  1.9314
  165DOPC  H11Y20048   7.363   0.835  15.624  0.3307 -1.4634 -0.5929
  165DOPC  C31220049   7.450   0.718  15.472  0.2563  0.1995  0.1356
  165DOPC  H12X20050   7.359   0.657  15.454  0.0939  0.6096 -0.4690
  165DOPC  H12Y20051   7.537   0.651  15.460 -0.0375 -0.2735  0.6193
  165DOPC  C31320052   7.446   0.821  15.354 -0.3481  0.4794  0.1614
  165DOPC  H13X20053   7.343   0.862  15.363 -0.2850  1.3841 -2.3767
  165DOPC  H13Y20054   7.524   0.899  15.367  1.6713 -1.4099 -0.0425
  165DOPC  C31420055   7.472   0.756  15.213 -0.1415 -0.2933  0.4804
  165DOPC  H14X20056   7.482   0.847  15.150  2.3704  0.4141  1.7402
  165DOPC  H14Y20057   7.568   0.699  15.212  0.7036  1.0917  0.3748
  165DOPC  C31520058   7.360   0.673  15.152  0.0136 -0.2410  0.0468
  165DOPC  H15X20059   7.388   0.659  15.046  0.0739  2.3253 -0.3467
  165DOPC  H15Y20060   7.270   0.737  15.138  2.0491  2.5340 -1.3750
  165DOPC  C31620061   7.347   0.536  15.214  0.3647  0.1863 -0.1055
  165DOPC  H16X20062   7.445   0.516  15.262  0.6154  1.3903 -0.0746
  165DOPC  H16Y20063   7.268   0.531  15.292  1.9613 -1.7837  1.4839
  165DOPC  C31720064   7.323   0.427  15.110 -0.1876 -0.4470 -0.1133
  165DOPC  H17X20065   7.266   0.351  15.167 -2.1347  0.4163 -0.8225
  165DOPC  H17Y20066   7.257   0.460  15.027  2.1819 -1.8829 -2.7298
  165DOPC  C31820067   7.458   0.383  15.046 -0.1884  0.7204 -0.0472
  165DOPC  H18X20068   7.443   0.277  15.017  1.6883  0.0313  1.2823
  165DOPC  H18Y20069   7.492   0.450  14.964 -0.9098  0.1339 -0.8459
  165DOPC  H18Z20070   7.531   0.364  15.128  0.2542 -1.7079 -0.9132
  166DOPC     N20071   7.238   2.039  17.388 -0.7563  0.2358 -0.0954
  166DOPC   C1220072   7.333   2.143  17.330  0.6000  0.1763  0.2027
  166DOPC  H12A20073   7.412   2.147  17.403  0.0333 -1.8737  1.0000
  166DOPC  H12B20074   7.279   2.237  17.337  0.0226 -0.1491  0.1867
  166DOPC   C1320075   7.307   1.903  17.389  0.3547 -0.2123  0.5631
  166DOPC  H13A20076   7.238   1.832  17.434 -3.0706  1.6762 -1.2568
  166DOPC  H13B20077   7.321   1.869  17.287  0.8578 -0.9866  0.8751
  166DOPC  H13C20078   7.400   1.907  17.443 -0.7986 -1.5781  2.8066
  166DOPC   C1420079   7.111   2.025  17.314  0.2413  0.2429 -0.4128
  166DOPC  H14A20080   7.143   2.005  17.212  2.0969 -0.8402  0.3350
  166DOPC  H14B20081   7.044   1.948  17.348  0.1064 -0.4216 -2.0502
  166DOPC  H14C20082   7.065   2.123  17.313  0.2175  0.2346 -0.0893
  166DOPC   C1520083   7.198   2.090  17.527  0.4312 -0.3112  0.9155
  166DOPC  H15A20084   7.286   2.123  17.582  0.7287  0.2739  0.1087
  166DOPC  H15B20085   7.165   2.005  17.586 -0.0242  0.5065  1.8657
  166DOPC  H15C20086   7.116   2.160  17.524 -0.7165 -1.6504 -0.5427
  166DOPC   C1120087   7.389   2.109  17.187  0.0558  0.0553 -0.1658
  166DOPC  H11A20088   7.459   2.186  17.148 -1.4082  0.6012 -1.8761
  166DOPC  H11B20089   7.451   2.018  17.200  0.7214  0.5923  0.5181
  166DOPC     P20090   7.225   2.187  16.994  0.2783 -0.5014  0.3304
  166DOPC   O1320091   7.160   2.304  17.061 -0.0151 -0.0172  0.0172
  166DOPC   O1420092   7.142   2.116  16.894  0.2857  0.5515 -0.4996
  166DOPC   O1220093   7.286   2.085  17.100  0.0001  0.1977  0.1793
  166DOPC   O1120094   7.354   2.240  16.919  0.3709  0.5194 -0.4307
  166DOPC    C120095   7.453   2.143  16.884  0.0294 -0.5994  0.3301
  166DOPC    HA20096   7.425   2.036  16.897  2.1472 -1.2590 -0.1304
  166DOPC    HB20097   7.544   2.141  16.947  1.1883 -0.5739 -1.2799
  166DOPC    C220098   7.515   2.163  16.742 -0.4173 -0.0409 -0.8906
  166DOPC    HS20099   7.557   2.066  16.706  0.4232 -0.0647  0.1037
  166DOPC   O2120100   7.624   2.261  16.750  0.8353 -0.4321 -0.3270
  166DOPC   C2120101   7.740   2.226  16.806  0.1928 -0.0709  0.2849
  166DOPC   O2220102   7.761   2.110  16.847  0.4131 -0.2943  1.1623
  166DOPC   C2220103   7.836   2.344  16.793 -0.0992  0.6641 -0.1527
  166DOPC   H2R20104   7.901   2.334  16.883 -0.7454 -1.6405  0.1119
  166DOPC   H2S20105   7.782   2.442  16.796 -0.7406  0.3391 -0.9740
  166DOPC    C320106   7.408   2.217  16.634 -0.5780 -0.0024 -0.6394
  166DOPC    HX20107   7.388   2.322  16.662  0.0311  0.5818 -2.2663
  166DOPC    HY20108   7.313   2.161  16.651 -0.4883  0.2462  0.8000
  166DOPC   O3120109   7.458   2.204  16.505  0.1601  0.5020  0.0062
  166DOPC   C3120110   7.385   2.271  16.410  0.4026  0.4827 -0.1514
  166DOPC   O3220111   7.283   2.334  16.436  0.0591  0.5150  0.2689
  166DOPC   C3220112   7.430   2.230  16.271  0.3933 -0.0467 -0.1036
  166DOPC   H2X20113   7.527   2.274  16.243 -0.1450  1.2371  0.0030
  166DOPC   H2Y20114   7.443   2.119  16.276 -1.0189 -0.2058  1.0554
  166DOPC   C2320115   7.920   2.355  16.666  0.0592  0.5573  0.7918
  166DOPC   H3R20116   7.972   2.257  16.657 -1.7721 -0.5810  1.9472
  166DOPC   H3S20117   7.999   2.432  16.680  2.4955 -1.8122  0.8675
  166DOPC   C2420118   7.839   2.375  16.537 -0.4860  0.1815 -0.3077
  166DOPC   H4R20119   7.810   2.482  16.542 -2.4620 -0.3562  0.9468
  166DOPC   H4S20120   7.752   2.308  16.518 -1.2168  1.8591 -3.7015
  166DOPC   C2520121   7.928   2.360  16.418 -0.0302  0.0059  0.3062
  166DOPC   H5R20122   7.956   2.254  16.401 -2.2605 -0.6404  0.4653
  166DOPC   H5S20123   8.027   2.407  16.436 -0.2976 -0.5028  3.6481
  166DOPC   C2620124   7.846   2.422  16.299  0.1110  0.3252  0.5732
  166DOPC   H6R20125   7.844   2.533  16.300 -0.8023  0.3352 -0.3335
  166DOPC   H6S20126   7.739   2.393  16.312  0.0337  0.9645  1.5091
  166DOPC   C2720127   7.913   2.381  16.166  0.0653 -0.7595 -0.1532
  166DOPC   H7R20128   7.928   2.272  16.155 -2.7894 -1.1139 -1.1884
  166DOPC   H7S20129   8.014   2.427  16.171 -0.9031  1.3968  0.7593
  166DOPC   C2820130   7.842   2.454  16.053  0.3294 -0.3896  0.4624
  166DOPC   H8R20131   7.877   2.559  16.044 -0.5934 -0.1778 -0.8511
  166DOPC   H8S20132   7.734   2.448  16.080  0.1382  1.4123  0.2061
  166DOPC   C2920133   7.870   2.381  15.921  0.6194  0.4919 -0.4652
  166DOPC   H9R20134   7.888   2.273  15.933 -2.3134  0.1250  1.7429
  166DOPC  C21020135   7.842   2.428  15.795 -0.3745  1.1895  0.2353
  166DOPC  H10R20136   7.849   2.369  15.702  1.6928  1.6130  0.0639
  166DOPC  C21120137   7.782   2.561  15.764  0.2510 -0.2310  0.0009
  166DOPC  H11R20138   7.858   2.638  15.738 -0.2441  0.3977  0.4009
  166DOPC  H11S20139   7.726   2.592  15.855 -0.5964 -1.1618 -0.1761
  166DOPC  C21220140   7.674   2.560  15.651 -0.2129 -0.1206 -0.7225
  166DOPC  H12R20141   7.625   2.660  15.651  2.6337  1.3693 -1.1410
  166DOPC  H12S20142   7.597   2.483  15.672  0.3753 -0.4139  0.4808
  166DOPC  C21320143   7.739   2.530  15.516 -0.3433  0.5541  1.0815
  166DOPC  H13R20144   7.757   2.421  15.511  1.7862  0.7680  2.4536
  166DOPC  H13S20145   7.840   2.576  15.526  0.1091  0.0285 -0.6594
  166DOPC  C21420146   7.675   2.584  15.387  0.9219 -0.7916  0.1847
  166DOPC  H14R20147   7.649   2.693  15.387 -4.0175 -1.7128  0.5812
  166DOPC  H14S20148   7.576   2.539  15.363 -0.0495  2.1666 -2.0435
  166DOPC  C21520149   7.757   2.553  15.265  0.7329  0.1838  0.4761
  166DOPC  H15R20150   7.759   2.447  15.234  0.5898 -0.1392  1.5251
  166DOPC  H15S20151   7.862   2.584  15.283  0.1237  2.1830  0.8678
  166DOPC  C21620152   7.726   2.639  15.142  0.2734  0.5458 -0.1860
  166DOPC  H16R20153   7.768   2.741  15.157 -0.4203  0.6423  1.2560
  166DOPC  H16S20154   7.616   2.649  15.137  0.1318 -0.6492  0.3250
  166DOPC  C21720155   7.782   2.581  15.014 -0.2207  0.1127 -0.3307
  166DOPC  H17R20156   7.745   2.478  14.992 -0.4356  0.1760 -0.2663
  166DOPC  H17S20157   7.893   2.576  15.022 -0.2818 -1.9019 -0.2104
  166DOPC  C21820158   7.749   2.677  14.898  0.0589  0.3694 -0.6718
  166DOPC  H18R20159   7.642   2.707  14.898 -1.1129 -3.2825 -1.2751
  166DOPC  H18S20160   7.770   2.639  14.796 -1.3249  1.4229 -1.3813
  166DOPC  H18T20161   7.806   2.772  14.908 -0.3440  0.5059  0.4806
  166DOPC   C3320162   7.329   2.260  16.155 -0.3867 -0.0857  0.3381
  166DOPC   H3X20163   7.279   2.358  16.171  0.4488  0.6909 -1.4704
  166DOPC   H3Y20164   7.247   2.185  16.160 -2.4086  2.0036 -0.0886
  166DOPC   C3420165   7.393   2.285  16.018 -0.6835 -0.4800 -0.2059
  166DOPC   H4X20166   7.487   2.344  16.024 -0.7540 -0.3898  0.0143
  166DOPC   H4Y20167   7.325   2.344  15.953 -0.7950  0.7717  0.9925
  166DOPC   C3520168   7.440   2.155  15.952 -0.5785 -0.2717  0.6460
  166DOPC   H5X20169   7.361   2.080  15.937 -1.2922  0.2107  1.8194
  166DOPC   H5Y20170   7.508   2.113  16.030  0.9613  1.7652  0.5184
  166DOPC   C3620171   7.524   2.179  15.829 -0.3011  0.1835 -0.8181
  166DOPC   H6X20172   7.601   2.258  15.844  0.7292 -1.1200  1.3408
  166DOPC   H6Y20173   7.579   2.084  15.811 -2.2663 -0.7682 -2.1389
  166DOPC   C3720174   7.441   2.210  15.702  0.0355  0.1367 -0.1366
  166DOPC   H7X20175   7.352   2.146  15.720  0.7307 -0.6730  0.5126
  166DOPC   H7Y20176   7.411   2.317  15.706 -1.2263  0.1407 -4.6174
  166DOPC   C3820177   7.510   2.164  15.576  0.3589  0.7770  0.3486
  166DOPC   H8X20178   7.547   2.059  15.583 -0.0393  0.7193  2.1217
  166DOPC   H8Y20179   7.608   2.217  15.573  0.7837  0.0004  0.2650
  166DOPC   C3920180   7.417   2.168  15.461 -0.3296  0.0694  0.4138
  166DOPC   H9X20181   7.313   2.196  15.483 -0.5348 -0.4868  0.1535
  166DOPC  C31020182   7.463   2.138  15.336 -0.0543  0.7081 -0.1745
  166DOPC  H10X20183   7.401   2.149  15.246  0.2227  2.5830 -0.1795
  166DOPC  C31120184   7.607   2.110  15.303 -0.5252 -0.0796  0.6650
  166DOPC  H11X20185   7.625   2.001  15.295 -2.2551 -0.3531  0.0308
  166DOPC  H11Y20186   7.676   2.161  15.373  0.2664 -0.0343 -0.1350
  166DOPC  C31220187   7.642   2.171  15.166  0.0693  0.7766  0.0354
  166DOPC  H12X20188   7.604   2.276  15.163 -0.2945  0.6369 -0.3386
  166DOPC  H12Y20189   7.583   2.107  15.096  1.1265 -0.8404  0.5824
  166DOPC  C31320190   7.797   2.160  15.141  0.5022  0.1740  0.0513
  166DOPC  H13X20191   7.814   2.195  15.037 -0.3221  1.1152  0.2168
  166DOPC  H13Y20192   7.845   2.226  15.217 -0.7035 -0.5794  1.5101
  166DOPC  C31420193   7.857   2.021  15.155 -0.5613  0.2866  1.0223
  166DOPC  H14X20194   7.965   2.020  15.128 -0.6995  1.0881  0.3651
  166DOPC  H14Y20195   7.834   1.987  15.258 -2.6823  1.2189  0.9347
  166DOPC  C31520196   7.799   1.914  15.061  0.7093 -0.0654 -0.2136
  166DOPC  H15X20197   7.693   1.894  15.087 -0.3744  1.4341 -2.9814
  166DOPC  H15Y20198   7.866   1.826  15.072 -1.4224 -1.5751  1.4812
  166DOPC  C31620199   7.789   1.959  14.913  0.6940  0.4669  0.4303
  166DOPC  H16X20200   7.709   2.034  14.896 -0.1031 -0.9159 -2.6420
  166DOPC  H16Y20201   7.887   1.994  14.875 -0.3615  0.6644 -2.3592
  166DOPC  C31720202   7.759   1.835  14.828 -0.0256  0.8656  0.8170
  166DOPC  H17X20203   7.739   1.857  14.721 -0.0284 -0.0709  0.6163
  166DOPC  H17Y20204   7.845   1.766  14.819  0.2675  1.3986 -0.7135
  166DOPC  C31820205   7.635   1.744  14.870  1.2625 -0.1089  0.1167
  166DOPC  H18X20206   7.660   1.687  14.962 -1.8193 -1.0793  0.4415
  166DOPC  H18Y20207   7.554   1.819  14.880  2.0776  0.6047  1.7105
  166DOPC  H18Z20208   7.607   1.673  14.789  0.8273 -1.1023  1.1079
  167DOPC     N20209   0.080   0.112  17.331 -0.3590 -0.2473 -0.3308
  167DOPC   C1220210   0.082   0.172  17.195 -0.3598 -0.1015  0.5563
  167DOPC  H12A20211   0.111   0.276  17.204 -1.2773  0.1966  0.2322
  167DOPC  H12B20212  -0.020   0.174  17.158 -0.0818 -3.1710 -0.5878
  167DOPC   C1320213   0.212   0.134  17.399 -0.3074  0.5561 -0.1773
  167DOPC  H13A20214   0.228   0.237  17.427 -0.1103  1.4457 -3.1912
  167DOPC  H13B20215   0.234   0.076  17.488  0.2316  0.3002 -0.4741
  167DOPC  H13C20216   0.290   0.115  17.327 -0.7740  1.1457 -0.8632
  167DOPC   C1420217   0.048  -0.042  17.343 -0.0517 -0.5204 -0.5239
  167DOPC  H14A20218  -0.057  -0.055  17.323 -0.7763  0.3487  2.3211
  167DOPC  H14B20219   0.112  -0.091  17.270  0.5140  1.7891 -1.6743
  167DOPC  H14C20220   0.074  -0.075  17.443  0.1435  1.0166 -0.0428
  167DOPC   C1520221  -0.032   0.177  17.410 -0.5651 -0.0368 -0.2410
  167DOPC  H15A20222  -0.024   0.282  17.434  0.4951  0.1187 -1.1762
  167DOPC  H15B20223  -0.040   0.130  17.507  1.1716  1.0632  0.4960
  167DOPC  H15C20224  -0.126   0.154  17.362 -0.8123 -0.6048  0.4986
  167DOPC   C1120225   0.179   0.105  17.096  0.4399  0.8364  0.2954
  167DOPC  H11A20226   0.157  -0.004  17.103  1.9286  0.3496 -1.7539
  167DOPC  H11B20227   0.150   0.141  16.995 -0.0004  0.6918  0.3693
  167DOPC     P20228   0.370   0.263  17.073  0.0343  0.2387  0.0448
  167DOPC   O1320229   0.507   0.280  17.121  0.0361 -0.2997  0.3715
  167DOPC   O1420230   0.272   0.372  17.098 -0.4735 -0.1809 -0.0102
  167DOPC   O1220231   0.319   0.126  17.127  0.4895  0.3475  0.5153
  167DOPC   O1120232   0.361   0.242  16.922  0.0693  0.1522 -0.0360
  167DOPC    C120233   0.470   0.163  16.851  0.4980  0.0863  0.0301
  167DOPC    HA20234   0.421   0.078  16.797  0.6181  0.8200 -1.2730
  167DOPC    HB20235   0.550   0.120  16.915  1.1224 -0.1723 -0.9093
  167DOPC    C220236   0.551   0.249  16.746  0.6412 -0.2723  0.2548
  167DOPC    HS20237   0.636   0.302  16.794 -0.8205  1.5455  0.9483
  167DOPC   O2120238   0.474   0.349  16.669 -0.2412 -0.2319  0.0568
  167DOPC   C2120239   0.447   0.457  16.738 -0.4225  0.3942  1.0288
  167DOPC   O2220240   0.498   0.494  16.840  0.0604 -0.5406 -0.8023
  167DOPC   C2220241   0.344   0.537  16.657  0.4422 -0.0382 -0.3143
  167DOPC   H2R20242   0.248   0.482  16.645  0.5098 -0.2766  0.2176
  167DOPC   H2S20243   0.379   0.560  16.555 -0.2612  0.1531 -0.5221
  167DOPC    C320244   0.617   0.152  16.641 -0.3200 -0.6307 -0.1412
  167DOPC    HX20245   0.547   0.098  16.573 -1.8744  0.6653  0.3595
  167DOPC    HY20246   0.668   0.082  16.710  0.9667  0.9116  0.5519
  167DOPC   O3120247   0.722   0.228  16.575 -0.6778  0.7846 -0.0349
  167DOPC   C3120248   0.817   0.165  16.516 -0.3430  0.2339  0.4623
  167DOPC   O3220249   0.852   0.050  16.539  0.5869 -0.2290 -0.0047
  167DOPC   C3220250   0.893   0.246  16.410 -0.0915  0.1603  0.2651
  167DOPC   H2X20251   0.822   0.271  16.329  0.3570  0.5605 -0.0128
  167DOPC   H2Y20252   0.938   0.336  16.457  3.0325 -1.7984  1.3667
  167DOPC   C2320253   0.323   0.676  16.720 -0.2844  0.3512 -0.0187
  167DOPC   H3R20254   0.423   0.709  16.754  0.0979  0.4368 -1.1701
  167DOPC   H3S20255   0.257   0.654  16.807 -0.4639 -3.3364 -0.9102
  167DOPC   C2420256   0.263   0.781  16.637 -0.0416  0.0769  0.0250
  167DOPC   H4R20257   0.197   0.740  16.557  1.0306 -1.0889 -0.2862
  167DOPC   H4S20258   0.339   0.835  16.576  2.1188 -2.0369  0.7056
  167DOPC   C2520259   0.180   0.878  16.719 -0.6229 -0.6804  0.2768
  167DOPC   H5R20260   0.244   0.955  16.768 -0.4964  0.0674 -1.0231
  167DOPC   H5S20261   0.128   0.831  16.805  0.6575  0.6738  1.8713
  167DOPC   C2620262   0.079   0.951  16.641 -0.3053  0.0478 -0.5785
  167DOPC   H6R20263   0.061   0.895  16.546  1.9390 -1.0177 -0.4236
  167DOPC   H6S20264   0.119   1.043  16.594 -2.6410  1.0620 -0.7661
  167DOPC   C2720265  -0.054   0.990  16.708  0.5668  0.1188 -0.4360
  167DOPC   H7R20266  -0.030   1.050  16.799 -0.6277 -1.5880  1.0915
  167DOPC   H7S20267  -0.107   0.899  16.745 -1.3289  1.2813 -0.1456
  167DOPC   C2820268  -0.146   1.068  16.612  0.6164 -1.1720 -0.3354
  167DOPC   H8R20269  -0.104   1.167  16.584 -2.4654  0.9083  1.6499
  167DOPC   H8S20270  -0.234   1.105  16.670  1.4401  0.7907 -0.2620
  167DOPC   C2920271  -0.203   0.978  16.507  0.0264  0.5980 -0.2887
  167DOPC   H9R20272  -0.263   0.893  16.545 -0.7365  1.2082 -0.1147
  167DOPC  C21020273  -0.170   0.986  16.372  0.4181  0.2040 -0.1059
  167DOPC  H10R20274  -0.225   0.917  16.307 -1.8815  1.8208  0.0001
  167DOPC  C21120275  -0.078   1.077  16.300 -0.0102 -0.1514  0.8132
  167DOPC  H11R20276  -0.006   1.112  16.377 -0.3239 -1.1190  1.5713
  167DOPC  H11S20277  -0.147   1.161  16.274 -1.0504 -1.0235  0.6697
  167DOPC  C21220278  -0.007   1.023  16.172  0.0410 -0.3146  0.4513
  167DOPC  H12R20279  -0.078   1.000  16.090 -2.7900 -2.8772  3.3746
  167DOPC  H12S20280   0.077   1.089  16.140  0.0425 -0.0312  1.0255
  167DOPC  C21320281   0.060   0.885  16.193 -0.2179 -0.0046  0.8102
  167DOPC  H13R20282  -0.014   0.802  16.199  2.7297 -2.8834  0.1947
  167DOPC  H13S20283   0.115   0.892  16.289  1.1027  1.1971 -0.0026
  167DOPC  C21420284   0.160   0.841  16.076 -0.3482 -0.5281 -0.3433
  167DOPC  H14R20285   0.197   0.740  16.104  0.1315 -0.4066 -0.5385
  167DOPC  H14S20286   0.240   0.917  16.069  0.6919 -1.5471  0.0901
  167DOPC  C21520287   0.106   0.831  15.933  0.0931  0.0722  0.4950
  167DOPC  H15R20288   0.034   0.914  15.921 -0.9244 -0.7585  0.6932
  167DOPC  H15S20289   0.033   0.747  15.929 -0.2349  0.3874 -0.4059
  167DOPC  C21620290   0.211   0.834  15.815  0.4220 -0.3378  1.1276
  167DOPC  H16R20291   0.266   0.738  15.814  0.3547 -0.4032  2.0984
  167DOPC  H16S20292   0.291   0.908  15.837 -0.8079  0.8878  1.6092
  167DOPC  C21720293   0.151   0.856  15.675 -0.6821 -0.0708  0.3143
  167DOPC  H17R20294   0.096   0.952  15.684 -0.7433 -0.1668  1.0498
  167DOPC  H17S20295   0.070   0.783  15.652 -1.0558  0.4137  0.0853
  167DOPC  C21820296   0.250   0.853  15.562 -0.5344  0.0150  0.2892
  167DOPC  H18R20297   0.293   0.751  15.552 -1.5958 -0.6449  1.9613
  167DOPC  H18S20298   0.322   0.938  15.565 -1.4272  0.8201 -0.6812
  167DOPC  H18T20299   0.191   0.873  15.470  0.0921  0.3615 -0.0450
  167DOPC   C3320300   0.997   0.170  16.329  0.2792  0.5532 -0.2115
  167DOPC   H3X20301   0.982   0.060  16.322 -1.9838  0.7862  0.1431
  167DOPC   H3Y20302   1.095   0.173  16.382  0.0751  1.9424  0.1211
  167DOPC   C3420303   1.017   0.234  16.187  0.4461  0.2064 -0.4960
  167DOPC   H4X20304   1.028   0.342  16.210 -0.3812  0.1177  0.4025
  167DOPC   H4Y20305   0.937   0.231  16.110 -0.3901  1.4762  0.2932
  167DOPC   C3520306   1.149   0.197  16.120 -0.2986  0.1400 -0.0224
  167DOPC   H5X20307   1.139   0.098  16.069  0.8904  0.6056 -1.2461
  167DOPC   H5Y20308   1.231   0.188  16.194  1.2348  0.0048 -1.6542
  167DOPC   C3620309   1.193   0.315  16.029 -0.1364  0.1484  0.7658
  167DOPC   H6X20310   1.201   0.406  16.091  0.7253  0.7126 -0.1362
  167DOPC   H6Y20311   1.296   0.300  15.988 -0.1308  0.6390  0.5989
  167DOPC   C3720312   1.106   0.335  15.904  0.5854 -0.6040  0.0633
  167DOPC   H7X20313   1.092   0.243  15.844  0.5961 -1.9371  2.0387
  167DOPC   H7Y20314   1.007   0.367  15.944 -0.2039 -1.6270 -0.9807
  167DOPC   C3820315   1.156   0.448  15.817 -0.7635  0.0006  0.7472
  167DOPC   H8X20316   1.266   0.440  15.806 -0.7494 -1.1362  1.5248
  167DOPC   H8Y20317   1.143   0.552  15.854  1.0141 -0.2389  2.1912
  167DOPC   C3920318   1.086   0.442  15.691  0.1879  0.2761  0.7755
  167DOPC   H9X20319   0.986   0.487  15.699  1.1001  2.5940  0.0350
  167DOPC  C31020320   1.125   0.384  15.573 -0.0947  0.2889 -0.0265
  167DOPC  H10X20321   1.054   0.378  15.489 -1.2121 -1.3948  0.9668
  167DOPC  C31120322   1.255   0.313  15.563 -0.2439 -0.0841  0.3085
  167DOPC  H11X20323   1.234   0.217  15.511 -0.9295 -0.9596  2.1147
  167DOPC  H11Y20324   1.286   0.272  15.661 -0.5956 -1.7320 -0.2398
  167DOPC  C31220325   1.363   0.398  15.500 -0.7702 -0.9849 -0.4919
  167DOPC  H12X20326   1.462   0.347  15.509 -0.1255 -0.1332 -2.1821
  167DOPC  H12Y20327   1.380   0.496  15.550 -2.7830  1.5052 -4.2436
  167DOPC  C31320328   1.350   0.439  15.353 -0.7050  0.6683 -0.0215
  167DOPC  H13X20329   1.243   0.463  15.333 -0.0411  4.7644  0.5739
  167DOPC  H13Y20330   1.411   0.530  15.338  0.7758 -0.4835 -1.4054
  167DOPC  C31420331   1.392   0.319  15.261  1.1550  0.2815  0.1549
  167DOPC  H14X20332   1.498   0.307  15.291  0.2301 -1.0805  3.2595
  167DOPC  H14Y20333   1.337   0.227  15.290  0.6845 -0.1517 -1.9290
  167DOPC  C31520334   1.385   0.368  15.108  0.1706 -0.2186  0.4478
  167DOPC  H15X20335   1.461   0.449  15.098 -1.0301  0.9755  0.6144
  167DOPC  H15Y20336   1.288   0.421  15.100  0.5405  0.4176  0.0469
  167DOPC  C31620337   1.425   0.265  15.005 -0.1394  0.2281  0.1165
  167DOPC  H16X20338   1.522   0.217  15.029  0.1104  0.3300 -0.6465
  167DOPC  H16Y20339   1.353   0.180  15.004  1.1654 -0.9117 -0.8276
  167DOPC  C31720340   1.443   0.322  14.865 -0.1973 -0.1388  0.1551
  167DOPC  H17X20341   1.348   0.365  14.828 -0.3095  1.4050  2.0523
  167DOPC  H17Y20342   1.511   0.409  14.874  1.1839 -0.8993 -2.1939
  167DOPC  C31820343   1.504   0.232  14.762  0.6631  0.5656 -0.0598
  167DOPC  H18X20344   1.610   0.211  14.789  0.0679 -2.6097  0.1639
  167DOPC  H18Y20345   1.447   0.137  14.750 -0.3424  1.1507 -0.0476
  167DOPC  H18Z20346   1.483   0.272  14.660 -2.0418  0.2817  0.3264
  168DOPC     N20347   4.007   0.073  17.087 -0.1938 -0.3512  0.4510
  168DOPC   C1220348   4.100   0.050  16.966  0.9076 -0.2048 -0.4433
  168DOPC  H12A20349   4.202   0.042  17.001  0.4234  0.9422  1.3708
  168DOPC  H12B20350   4.095   0.139  16.906  2.6167  0.0455 -0.2661
  168DOPC   C1320351   4.063   0.191  17.164 -0.1047 -0.0520  0.0214
  168DOPC  H13A20352   4.061   0.275  17.096 -1.7409 -1.5647 -1.9563
  168DOPC  H13B20353   4.016   0.223  17.256 -0.4922 -1.5836  0.3831
  168DOPC  H13C20354   4.163   0.165  17.193 -0.2813  0.6472  1.3196
  168DOPC   C1420355   4.000  -0.047  17.179  0.9701  0.1885  0.0564
  168DOPC  H14A20356   3.936  -0.030  17.264  0.8958  0.4658 -0.0525
  168DOPC  H14B20357   3.948  -0.129  17.131  1.1232 -2.2060  3.5944
  168DOPC  H14C20358   4.100  -0.081  17.202  1.4355 -1.8290 -4.0483
  168DOPC   C1520359   3.871   0.105  17.046 -0.5791  0.1316  0.5713
  168DOPC  H15A20360   3.823   0.019  17.001  1.3611 -1.5499  1.5339
  168DOPC  H15B20361   3.863   0.183  16.972 -1.7294 -0.6401 -0.1557
  168DOPC  H15C20362   3.818   0.141  17.133  1.8415  2.8480  1.0456
  168DOPC   C1120363   4.066  -0.078  16.881 -0.2213 -0.2395 -0.4035
  168DOPC  H11A20364   4.140  -0.076  16.799 -3.2048  1.9482 -3.3117
  168DOPC  H11B20365   4.076  -0.170  16.942 -0.2036 -1.5422 -2.3025
  168DOPC     P20366   3.881  -0.209  16.749 -0.3044 -0.3608 -0.3513
  168DOPC   O1320367   3.819  -0.289  16.856  0.8086 -1.5584  0.2958
  168DOPC   O1420368   3.989  -0.273  16.675  0.2020  0.2673  0.1736
  168DOPC   O1220369   3.942  -0.070  16.810  0.7553  0.0893  0.2880
  168DOPC   O1120370   3.771  -0.148  16.656  0.4063 -0.9649  0.1265
  168DOPC    C120371   3.661  -0.229  16.611  0.2321  0.0923 -0.2036
  168DOPC    HA20372   3.580  -0.158  16.583 -0.3525 -1.3202 -2.2816
  168DOPC    HB20373   3.626  -0.280  16.703  0.3526 -0.2924 -0.3703
  168DOPC    C220374   3.698  -0.315  16.494 -0.0039 -0.1438 -0.4195
  168DOPC    HS20375   3.758  -0.393  16.545  1.7370  1.4178  0.0546
  168DOPC   O2120376   3.781  -0.246  16.401 -0.0659  0.1711  0.3909
  168DOPC   C2120377   3.842  -0.324  16.317 -0.6198  0.4365  0.3595
  168DOPC   O2220378   3.848  -0.448  16.317  0.5512 -0.4267 -0.0280
  168DOPC   C2220379   3.895  -0.244  16.209 -0.5122 -0.3643  0.4710
  168DOPC   H2R20380   4.006  -0.242  16.217 -0.4843 -0.1310  0.0680
  168DOPC   H2S20381   3.866  -0.137  16.217 -0.7116 -0.3178 -0.6444
  168DOPC    C320382   3.565  -0.369  16.429 -0.2409  0.0755 -0.2145
  168DOPC    HX20383   3.503  -0.423  16.503 -1.2782  2.5449  0.8007
  168DOPC    HY20384   3.591  -0.441  16.348 -0.4017  0.5805 -0.7235
  168DOPC   O3120385   3.488  -0.262  16.372  0.5763  0.0474 -0.0202
  168DOPC   C3120386   3.355  -0.288  16.342  0.2717 -0.6211 -0.4967
  168DOPC   O3220387   3.306  -0.392  16.374 -0.1768 -0.1689 -0.6158
  168DOPC   C3220388   3.289  -0.168  16.283 -0.0939  0.0035  0.4297
  168DOPC   H2X20389   3.295  -0.082  16.353  2.3482  0.5217 -0.3568
  168DOPC   H2Y20390   3.344  -0.149  16.188  0.6644  0.5493  0.9682
  168DOPC   C2320391   3.852  -0.289  16.071  0.2769  1.1447 -0.4823
  168DOPC   H3R20392   3.887  -0.393  16.056  0.7219  0.9051  1.7839
  168DOPC   H3S20393   3.907  -0.226  15.998  0.2073 -0.8074 -2.3113
  168DOPC   C2420394   3.699  -0.289  16.053 -0.3588  0.3899  0.0787
  168DOPC   H4R20395   3.668  -0.183  16.054  1.9994  1.1525  1.1944
  168DOPC   H4S20396   3.651  -0.347  16.135  2.6888 -2.1527  0.2739
  168DOPC   C2520397   3.665  -0.347  15.910 -0.8362  1.1189  0.6094
  168DOPC   H5R20398   3.695  -0.454  15.902 -0.5418  1.3021 -1.0993
  168DOPC   H5S20399   3.726  -0.289  15.838  0.1984  1.1520  1.5006
  168DOPC   C2620400   3.518  -0.334  15.875  0.3431 -0.5661 -0.0134
  168DOPC   H6R20401   3.450  -0.358  15.960 -0.1849  0.2164 -0.2036
  168DOPC   H6S20402   3.492  -0.409  15.798 -2.0649  2.3571 -2.3129
  168DOPC   C2720403   3.477  -0.196  15.814  0.1194 -0.2586 -0.2920
  168DOPC   H7R20404   3.545  -0.172  15.730  1.1414  3.1264  1.3258
  168DOPC   H7S20405   3.484  -0.111  15.886 -0.1466  0.3529 -0.9741
  168DOPC   C2820406   3.330  -0.189  15.758  0.0904  0.1700  0.2121
  168DOPC   H8R20407   3.298  -0.083  15.760  1.0685  0.5925 -2.4786
  168DOPC   H8S20408   3.268  -0.231  15.839  0.0193  0.8019  0.4917
  168DOPC   C2920409   3.317  -0.256  15.619  0.4145 -0.2832  0.5464
  168DOPC   H9R20410   3.260  -0.349  15.623  1.6126 -1.1510 -1.2572
  168DOPC  C21020411   3.348  -0.201  15.495  0.7448 -0.3300 -0.1554
  168DOPC  H10R20412   3.339  -0.270  15.411  1.2590  1.1353 -1.4756
  168DOPC  C21120413   3.418  -0.070  15.475  0.0440 -0.4080 -0.2618
  168DOPC  H11R20414   3.419  -0.007  15.567  2.0178 -1.8203  0.7603
  168DOPC  H11S20415   3.363  -0.009  15.401 -1.1183  0.2560  1.1106
  168DOPC  C21220416   3.568  -0.089  15.422  0.4190  0.0959 -0.1402
  168DOPC  H12R20417   3.568  -0.135  15.321 -1.8295 -3.0289  1.1183
  168DOPC  H12S20418   3.615  -0.153  15.500 -0.2088  0.2259  0.3618
  168DOPC  C21320419   3.652   0.035  15.392 -0.0607 -0.6487  0.6477
  168DOPC  H13R20420   3.606   0.079  15.301  1.1236 -1.0365 -0.1525
  168DOPC  H13S20421   3.753   0.001  15.361 -0.2162 -1.4410  0.9702
  168DOPC  C21420422   3.666   0.130  15.512 -0.2135 -0.3318  0.5596
  168DOPC  H14R20423   3.572   0.172  15.554  0.5846  1.0083  1.0810
  168DOPC  H14S20424   3.738   0.211  15.487 -0.5383 -0.3961 -0.6261
  168DOPC  C21520425   3.731   0.063  15.634  0.5729  0.2662  0.2298
  168DOPC  H15R20426   3.807  -0.009  15.595  0.2915  0.0129  0.1478
  168DOPC  H15S20427   3.650   0.006  15.685  1.5219 -1.7432 -0.3865
  168DOPC  C21620428   3.799   0.162  15.742  1.0090 -0.5658 -0.4389
  168DOPC  H16R20429   3.734   0.251  15.757  1.7077 -0.3453  1.7606
  168DOPC  H16S20430   3.892   0.195  15.691  2.3401 -0.1312  2.1108
  168DOPC  C21720431   3.836   0.095  15.879 -0.1608 -0.3606 -0.5801
  168DOPC  H17R20432   3.906   0.166  15.929 -1.3752 -1.2644  2.6695
  168DOPC  H17S20433   3.900   0.007  15.852  1.2263  0.6025 -0.5307
  168DOPC  C21820434   3.722   0.064  15.980 -0.9372 -0.2245  0.5854
  168DOPC  H18R20435   3.648  -0.005  15.933 -1.0770 -1.3215  2.3240
  168DOPC  H18S20436   3.671   0.159  16.007 -0.6437  0.4592 -1.1206
  168DOPC  H18T20437   3.757   0.019  16.075  0.6365 -0.3270 -0.0151
  168DOPC   C3320438   3.138  -0.189  16.248 -0.2745 -0.4056 -0.3963
  168DOPC   H3X20439   3.079  -0.172  16.341 -1.1532  0.5625 -1.1063
  168DOPC   H3Y20440   3.111  -0.294  16.226 -0.6617 -0.8368  1.8841
  168DOPC   C3420441   3.096  -0.115  16.119  0.0738  0.4218  0.5389
  168DOPC   H4X20442   3.136  -0.177  16.036  0.0023 -0.5568  1.2135
  168DOPC   H4Y20443   3.143  -0.015  16.109 -0.8888  0.7727 -0.7619
  168DOPC   C3520444   2.942  -0.101  16.097  0.4390  0.2356 -0.7173
  168DOPC   H5X20445   2.890  -0.057  16.184  0.0860 -3.4024  1.1209
  168DOPC   H5Y20446   2.901  -0.204  16.091 -2.4109  1.3047 -0.9462
  168DOPC   C3620447   2.900  -0.039  15.969 -0.9385  0.5468  0.3314
  168DOPC   H6X20448   2.793  -0.015  15.953 -0.7957  0.3311 -1.0724
  168DOPC   H6Y20449   2.948   0.059  15.948 -0.7136  0.5830  0.9785
  168DOPC   C3720450   2.951  -0.131  15.852 -0.1470 -0.4335 -0.0224
  168DOPC   H7X20451   3.061  -0.127  15.840 -0.1119  1.0214  0.5644
  168DOPC   H7Y20452   2.910  -0.234  15.866 -1.8384  0.4028  1.4944
  168DOPC   C3820453   2.903  -0.078  15.713  0.5079 -0.3463  0.3577
  168DOPC   H8X20454   2.937   0.026  15.696 -2.0444  0.2051 -1.9381
  168DOPC   H8Y20455   2.793  -0.066  15.706  0.5532 -0.6397 -0.9985
  168DOPC   C3920456   2.953  -0.157  15.596  0.5286 -0.3845  0.5089
  168DOPC   H9X20457   3.063  -0.151  15.594  0.5013  0.4015  1.1943
  168DOPC  C31020458   2.889  -0.253  15.522  0.0809  0.2161 -0.4835
  168DOPC  H10X20459   2.943  -0.297  15.437 -0.4803  0.5000 -0.9935
  168DOPC  C31120460   2.746  -0.302  15.552 -0.5958 -0.1865 -0.3998
  168DOPC  H11X20461   2.708  -0.265  15.649 -1.5144 -2.1981  0.0573
  168DOPC  H11Y20462   2.738  -0.413  15.554  0.6041 -0.3401 -1.8641
  168DOPC  C31220463   2.656  -0.264  15.437 -0.9945  0.3237 -0.5545
  168DOPC  H12X20464   2.553  -0.301  15.460 -1.2000  0.4602 -1.2541
  168DOPC  H12Y20465   2.691  -0.316  15.345  0.7552  1.4947 -0.5971
  168DOPC  C31320466   2.644  -0.112  15.412  0.3995  0.2139  0.3349
  168DOPC  H13X20467   2.585  -0.073  15.498  0.7574 -0.3892  0.8568
  168DOPC  H13Y20468   2.741  -0.058  15.419  0.8184 -0.5666  0.6563
  168DOPC  C31420469   2.565  -0.078  15.282  0.1124 -0.5215 -0.3735
  168DOPC  H14X20470   2.614  -0.128  15.196  1.1406 -0.5828  0.2292
  168DOPC  H14Y20471   2.466  -0.125  15.299 -0.7022  1.6768  1.6216
  168DOPC  C31520472   2.556   0.071  15.259 -0.3110 -0.3346  0.0758
  168DOPC  H15X20473   2.650   0.128  15.279 -0.2472 -0.3710 -0.1161
  168DOPC  H15Y20474   2.486   0.104  15.338 -1.2090 -2.0112  0.0396
  168DOPC  C31620475   2.493   0.103  15.125 -0.6278  0.1715 -0.1280
  168DOPC  H16X20476   2.389   0.062  15.124 -0.4572 -0.3816 -2.5776
  168DOPC  H16Y20477   2.468   0.211  15.117 -0.1598  0.2874 -0.0331
  168DOPC  C31720478   2.563   0.053  14.996 -0.3604 -0.0190 -1.4442
  168DOPC  H17X20479   2.672   0.075  15.000 -0.2074 -0.5283  3.3539
  168DOPC  H17Y20480   2.553  -0.057  14.992  0.6269 -0.0768 -4.3477
  168DOPC  C31820481   2.497   0.124  14.876  0.0633 -0.5471  1.0343
  168DOPC  H18X20482   2.516   0.234  14.869 -0.6536 -0.4170  0.9938
  168DOPC  H18Y20483   2.540   0.081  14.783  2.5253  0.4752  1.6027
  168DOPC  H18Z20484   2.389   0.101  14.884 -0.0300 -0.3787  0.3533
  169DOPC     N20485   0.801   1.399  17.524  0.4944  0.1652  0.2100
  169DOPC   C1220486   0.935   1.454  17.564 -0.3509 -0.6822  0.6533
  169DOPC  H12A20487   1.005   1.376  17.537  1.9522  1.8790 -1.2941
  169DOPC  H12B20488   0.950   1.479  17.668 -0.8276 -0.3498  0.6497
  169DOPC   C1320489   0.813   1.329  17.390  0.5694  0.0771 -0.8027
  169DOPC  H13A20490   0.729   1.268  17.360  0.9236 -1.2041  0.6528
  169DOPC  H13B20491   0.850   1.400  17.318  2.1940  2.7720  2.4271
  169DOPC  H13C20492   0.887   1.251  17.399 -1.5980 -2.0349  0.0182
  169DOPC   C1420493   0.699   1.511  17.500 -0.2556 -0.1474  0.3540
  169DOPC  H14A20494   0.743   1.584  17.433  1.5900  0.8002  2.4735
  169DOPC  H14B20495   0.601   1.478  17.467  0.2694 -0.4111 -1.0287
  169DOPC  H14C20496   0.674   1.562  17.592 -0.1294 -0.7425  0.7227
  169DOPC   C1520497   0.741   1.307  17.624 -0.1877 -0.4419  0.0989
  169DOPC  H15A20498   0.644   1.272  17.593 -0.5623  0.4460  0.2260
  169DOPC  H15B20499   0.717   1.363  17.713  2.0479 -0.1795  0.6114
  169DOPC  H15C20500   0.792   1.216  17.652  0.2264 -0.4172 -0.5703
  169DOPC   C1120501   0.983   1.580  17.489 -0.4658 -0.3193 -0.7734
  169DOPC  H11A20502   1.093   1.591  17.502 -0.6671  0.4736  0.3509
  169DOPC  H11B20503   0.973   1.558  17.381 -3.9961 -1.4532 -0.3327
  169DOPC     P20504   0.968   1.837  17.482 -0.1118 -0.4730 -0.1967
  169DOPC   O1320505   1.092   1.865  17.556  0.1019 -0.5550  0.0864
  169DOPC   O1420506   0.862   1.937  17.495  0.3759 -0.8174  0.0707
  169DOPC   O1220507   0.913   1.694  17.533  0.0558 -0.4441  0.6376
  169DOPC   O1120508   1.002   1.807  17.333  0.5501  0.0568  0.1012
  169DOPC    C120509   0.887   1.798  17.245 -0.4732 -0.3891  0.3675
  169DOPC    HA20510   0.861   1.903  17.219  0.3508  0.3685  2.4502
  169DOPC    HB20511   0.805   1.748  17.301  0.0166 -0.5797  0.9265
  169DOPC    C220512   0.923   1.714  17.120 -0.2552  0.2378  0.5710
  169DOPC    HS20513   0.951   1.611  17.151  0.6168  0.2036 -0.2730
  169DOPC   O2120514   1.028   1.778  17.038  0.1894 -0.5894 -0.1127
  169DOPC   C2120515   1.109   1.701  16.971 -0.3369  0.4882 -0.7242
  169DOPC   O2220516   1.113   1.580  16.980  0.1580 -0.4786 -0.5700
  169DOPC   C2220517   1.201   1.787  16.885 -0.5734  1.1737  0.1017
  169DOPC   H2R20518   1.298   1.804  16.937 -0.6393  0.5393  0.4449
  169DOPC   H2S20519   1.146   1.882  16.867  0.3106  2.0333  1.7107
  169DOPC    C320520   0.799   1.692  17.030 -0.3312 -0.4493  0.5826
  169DOPC    HX20521   0.774   1.794  16.994  0.2969 -0.1544  0.9543
  169DOPC    HY20522   0.713   1.654  17.088 -1.4243 -1.3628 -1.5197
  169DOPC   O3120523   0.817   1.612  16.914 -0.2097  0.6299 -0.1520
  169DOPC   C3120524   0.830   1.479  16.926  0.1413  0.1658 -0.1773
  169DOPC   O3220525   0.811   1.414  17.029 -0.2460  0.1163  0.6195
  169DOPC   C3220526   0.852   1.423  16.789  0.2693 -0.6920 -0.3008
  169DOPC   H2X20527   0.752   1.384  16.762  0.0835  0.6111 -1.5907
  169DOPC   H2Y20528   0.893   1.499  16.719 -2.5388  1.3351  0.0951
  169DOPC   C2320529   1.247   1.715  16.754 -0.2077 -0.3284  0.0150
  169DOPC   H3R20530   1.302   1.623  16.782 -2.4607 -2.0694 -0.9950
  169DOPC   H3S20531   1.316   1.792  16.712 -0.4071 -0.0598  0.1813
  169DOPC   C2420532   1.133   1.684  16.652 -0.0469  0.0302 -0.4285
  169DOPC   H4R20533   1.049   1.749  16.686  0.7006  1.3144 -0.9575
  169DOPC   H4S20534   1.104   1.577  16.653  2.4697 -0.6974 -0.5201
  169DOPC   C2520535   1.159   1.730  16.505 -0.1293  0.9363 -0.2676
  169DOPC   H5R20536   1.249   1.677  16.467 -0.3087  1.1722 -1.0481
  169DOPC   H5S20537   1.188   1.838  16.508 -0.0733  0.9999 -2.1300
  169DOPC   C2620538   1.046   1.714  16.405 -0.2124  0.1012 -0.1841
  169DOPC   H6R20539   1.078   1.749  16.305 -1.6835  1.0078 -0.3502
  169DOPC   H6S20540   0.959   1.775  16.437 -0.3758 -1.2992  2.3058
  169DOPC   C2720541   1.000   1.566  16.399 -0.4584  0.2375  0.0227
  169DOPC   H7R20542   0.955   1.542  16.498 -0.4872 -1.7640 -0.4374
  169DOPC   H7S20543   1.088   1.499  16.391 -1.7135 -1.6229  1.1981
  169DOPC   C2820544   0.888   1.544  16.292 -0.0902  0.1009  0.0204
  169DOPC   H8R20545   0.788   1.584  16.320 -1.3677 -2.8346 -0.0160
  169DOPC   H8S20546   0.868   1.435  16.296  1.0713 -0.1187  0.0022
  169DOPC   C2920547   0.944   1.578  16.155  0.3414 -0.4470 -0.1104
  169DOPC   H9R20548   1.040   1.529  16.135  1.8852  0.9885  2.9780
  169DOPC  C21020549   0.879   1.659  16.067 -0.4873  0.1177 -0.8840
  169DOPC  H10R20550   0.928   1.660  15.969  0.8990 -0.9260 -0.2426
  169DOPC  C21120551   0.744   1.726  16.085  0.2250  0.4212 -0.4343
  169DOPC  H11R20552   0.760   1.836  16.094  1.3209  0.3491 -1.2837
  169DOPC  H11S20553   0.678   1.703  16.171 -2.8338  1.2597 -2.4126
  169DOPC  C21220554   0.662   1.709  15.953 -0.1469  0.4628  0.3727
  169DOPC  H12R20555   0.557   1.743  15.968 -0.0084  0.3624  1.6693
  169DOPC  H12S20556   0.663   1.600  15.935 -1.1656  0.2069  1.7379
  169DOPC  C21320557   0.714   1.779  15.823 -0.0903 -0.4811 -0.3160
  169DOPC  H13R20558   0.823   1.768  15.811 -0.2092 -2.5452  0.1521
  169DOPC  H13S20559   0.703   1.885  15.853  0.3152  0.3692 -2.9655
  169DOPC  C21420560   0.629   1.735  15.705  0.6900  0.5358  0.0979
  169DOPC  H14R20561   0.519   1.732  15.714  0.5947 -2.1667 -0.9417
  169DOPC  H14S20562   0.659   1.632  15.674  0.3583 -0.4456  2.8102
  169DOPC  C21520563   0.653   1.828  15.582  0.1137  0.0922 -0.1711
  169DOPC  H15R20564   0.758   1.806  15.553 -0.8909 -0.6374 -3.8307
  169DOPC  H15S20565   0.646   1.936  15.607 -0.8687  0.5999 -2.3419
  169DOPC  C21620566   0.570   1.796  15.463 -0.1863  0.4074 -0.0741
  169DOPC  H16R20567   0.462   1.809  15.485 -0.7453 -0.6012 -1.9378
  169DOPC  H16S20568   0.579   1.689  15.432 -1.5649  0.4858 -0.8380
  169DOPC  C21720569   0.608   1.871  15.329  0.5351 -0.4838  1.0765
  169DOPC  H17R20570   0.715   1.849  15.306  0.4209  1.2096 -1.4835
  169DOPC  H17S20571   0.603   1.981  15.344  0.2006 -0.4733  0.8879
  169DOPC  C21820572   0.521   1.831  15.209 -0.5163 -0.6143  0.2825
  169DOPC  H18R20573   0.563   1.869  15.114  0.1925  0.4254  0.9844
  169DOPC  H18S20574   0.416   1.864  15.227  0.1795  1.4157  0.8050
  169DOPC  H18T20575   0.535   1.721  15.206  2.0420 -0.4595  2.6078
  169DOPC   C3320576   0.944   1.298  16.791 -0.2415 -0.0156  0.5597
  169DOPC   H3X20577   0.914   1.218  16.862  0.1403 -0.5979  0.0689
  169DOPC   H3Y20578   1.041   1.338  16.825  0.5416 -2.0438  0.8481
  169DOPC   C3420579   0.967   1.223  16.659  0.5321 -0.2415  0.0296
  169DOPC   H4X20580   1.066   1.175  16.676 -1.2623 -3.6507  1.8344
  169DOPC   H4Y20581   0.968   1.296  16.576 -1.2261 -0.8367 -0.5735
  169DOPC   C3520582   0.856   1.130  16.621  0.9901  0.0637  0.0440
  169DOPC   H5X20583   0.757   1.179  16.607  1.0615  0.0031 -0.6696
  169DOPC   H5Y20584   0.847   1.058  16.706 -3.4049 -1.8781 -1.7664
  169DOPC   C3620585   0.881   1.051  16.492  0.3774  0.4703 -0.1573
  169DOPC   H6X20586   0.988   1.020  16.498  0.0606 -0.8232 -0.9099
  169DOPC   H6Y20587   0.809   0.967  16.499  0.1982  0.4780 -1.6333
  169DOPC   C3720588   0.849   1.121  16.364  0.3036  0.7023 -0.6168
  169DOPC   H7X20589   0.740   1.139  16.378  0.9528  3.4084  1.9633
  169DOPC   H7Y20590   0.901   1.219  16.367 -0.0176  0.8696 -0.5311
  169DOPC   C3820591   0.898   1.052  16.236 -0.1533 -0.0485 -0.2761
  169DOPC   H8X20592   0.915   1.137  16.166  2.7564 -1.7496 -1.7832
  169DOPC   H8Y20593   0.812   0.991  16.200 -0.7696  0.1982  0.7322
  169DOPC   C3920594   1.022   0.965  16.255  0.0585 -1.1643  0.0752
  169DOPC   H9X20595   1.099   1.010  16.319  0.2669 -1.0348 -0.2667
  169DOPC  C31020596   1.046   0.851  16.194  0.2835  0.6959 -0.2902
  169DOPC  H10X20597   1.137   0.802  16.229 -1.0206 -1.2598  0.5551
  169DOPC  C31120598   0.964   0.773  16.087  0.3579 -0.1406 -0.1879
  169DOPC  H11X20599   0.856   0.774  16.113  0.2153 -1.9892 -0.5491
  169DOPC  H11Y20600   0.999   0.669  16.101 -1.0127 -0.5716  0.2123
  169DOPC  C31220601   0.985   0.796  15.936 -0.1421  0.8490  0.5860
  169DOPC  H12X20602   0.920   0.730  15.875  2.4213  1.3557 -2.9914
  169DOPC  H12Y20603   1.090   0.765  15.923 -0.5592  0.2475 -1.6953
  169DOPC  C31320604   0.973   0.940  15.895  0.6589 -0.0541 -0.4472
  169DOPC  H13X20605   0.872   0.968  15.934  0.9067  1.6634 -0.9698
  169DOPC  H13Y20606   1.052   1.008  15.934 -0.6755  1.2058  0.1921
  169DOPC  C31420607   0.957   0.962  15.746  0.1509 -0.8957  0.2216
  169DOPC  H14X20608   0.868   0.900  15.721 -0.4695 -0.0290  0.2501
  169DOPC  H14Y20609   0.939   1.068  15.718  0.0677 -0.2533  2.5599
  169DOPC  C31520610   1.075   0.918  15.667 -1.1265  0.2091  0.1917
  169DOPC  H15X20611   1.097   0.810  15.674  0.4660  0.3574 -1.7607
  169DOPC  H15Y20612   1.160   0.977  15.708 -2.4198  2.0019  0.4307
  169DOPC  C31620613   1.064   0.952  15.515 -0.5263 -0.7369 -0.3268
  169DOPC  H16X20614   1.137   0.891  15.457 -0.0441  0.9108 -1.5159
  169DOPC  H16Y20615   0.967   0.907  15.484  1.1678 -4.0294 -1.3529
  169DOPC  C31720616   1.073   1.105  15.492 -0.1837 -0.1525  0.4101
  169DOPC  H17X20617   0.978   1.157  15.516  0.1604  1.1828 -0.9406
  169DOPC  H17Y20618   1.143   1.150  15.567  0.4639  0.6552 -0.6378
  169DOPC  C31820619   1.100   1.143  15.347  0.6130  0.2296  0.1483
  169DOPC  H18X20620   1.204   1.118  15.317  0.2949  1.2856 -2.0185
  169DOPC  H18Y20621   1.051   1.066  15.284 -0.0760  0.2334  0.6651
  169DOPC  H18Z20622   1.074   1.249  15.325 -0.0308  0.1151  0.3387
  170DOPC     N20623   0.603   7.147  16.984 -0.1800 -0.4243 -0.6324
  170DOPC   C1220624   0.479   7.061  17.032 -0.0987 -0.3380 -0.1782
  170DOPC  H12A20625   0.524   6.986  17.094 -0.5877  0.9442  1.8411
  170DOPC  H12B20626   0.445   7.009  16.945 -0.3919  0.1743 -0.3777
  170DOPC   C1320627   0.590   7.208  16.850 -0.0480 -0.5853 -0.7386
  170DOPC  H13A20628   0.678   7.259  16.814  2.4577 -3.3368  1.0769
  170DOPC  H13B20629   0.558   7.144  16.769 -3.3765 -0.2292  0.1324
  170DOPC  H13C20630   0.509   7.280  16.860 -0.7223 -1.5538  1.3833
  170DOPC   C1420631   0.723   7.062  16.984  0.1191  0.4269 -0.6282
  170DOPC  H14A20632   0.718   6.976  16.919  0.1846 -0.1958  0.1651
  170DOPC  H14B20633   0.816   7.110  16.957  2.4209 -2.0107  2.1927
  170DOPC  H14C20634   0.742   7.017  17.081  0.2858 -1.0502 -1.3170
  170DOPC   C1520635   0.619   7.259  17.085 -0.2255  0.3204 -0.1994
  170DOPC  H15A20636   0.639   7.220  17.184  1.1874  0.2443 -0.4849
  170DOPC  H15B20637   0.539   7.330  17.096  0.5591  1.0493  1.0383
  170DOPC  H15C20638   0.707   7.319  17.068 -1.1338  2.4663  2.1173
  170DOPC   C1120639   0.349   7.126  17.074 -0.3961  0.5545  0.0772
  170DOPC  H11A20640   0.288   7.046  17.122 -0.2481 -1.0031 -2.1572
  170DOPC  H11B20641   0.382   7.199  17.151  0.2015  0.3694  0.0045
  170DOPC     P20642   0.254   7.332  16.960  0.0854  0.1127 -0.5318
  170DOPC   O1320643   0.374   7.413  16.937  0.4350  0.3188  0.4638
  170DOPC   O1420644   0.168   7.359  17.081 -0.4974  0.1440 -0.3319
  170DOPC   O1220645   0.282   7.172  16.961 -0.3551  0.0533 -0.0011
  170DOPC   O1120646   0.162   7.340  16.832 -0.4809 -0.3735  0.5505
  170DOPC    C120647   0.181   7.272  16.710 -0.1043 -0.7333 -0.8102
  170DOPC    HA20648   0.088   7.232  16.664  0.9328 -2.9188 -1.1489
  170DOPC    HB20649   0.246   7.184  16.729  0.8418  0.1685  0.3437
  170DOPC    C220650   0.261   7.367  16.621  0.4065 -0.1160  0.2918
  170DOPC    HS20651   0.358   7.381  16.674  0.7827 -1.3098 -0.0574
  170DOPC   O2120652   0.174   7.486  16.608  0.3759  0.0704 -0.0580
  170DOPC   C2120653   0.238   7.605  16.612  0.2052  0.2201  0.0876
  170DOPC   O2220654   0.362   7.609  16.620  0.1311 -0.5438  0.2035
  170DOPC   C2220655   0.141   7.718  16.609 -0.4784 -0.1981 -1.0128
  170DOPC   H2R20656   0.110   7.720  16.715 -1.1854  0.8568 -1.2161
  170DOPC   H2S20657   0.057   7.696  16.539  0.1462 -1.6837 -1.3261
  170DOPC    C320658   0.284   7.315  16.475  0.6261 -0.3927 -0.0573
  170DOPC    HX20659   0.182   7.293  16.436  0.6332  1.4162 -1.2093
  170DOPC    HY20660   0.353   7.228  16.488 -0.0705 -0.8007  0.9947
  170DOPC   O3120661   0.349   7.414  16.387 -0.0751  0.4979  0.2609
  170DOPC   C3120662   0.475   7.436  16.409  0.4394 -0.2393 -0.5627
  170DOPC   O3220663   0.535   7.392  16.507 -0.3900  0.4535  0.0739
  170DOPC   C3220664   0.528   7.525  16.295  0.0995  0.6550 -0.6226
  170DOPC   H2X20665   0.457   7.541  16.211 -0.0894  2.4537 -0.1549
  170DOPC   H2Y20666   0.540   7.629  16.333  1.7568  0.5372 -0.7385
  170DOPC   C2320667   0.216   7.845  16.558  0.6639 -0.3606 -0.2239
  170DOPC   H3R20668   0.314   7.856  16.609 -0.8995 -1.0740  3.2194
  170DOPC   H3S20669   0.157   7.931  16.594  0.6054  0.0537 -1.2720
  170DOPC   C2420670   0.221   7.833  16.403  0.0164  1.0293 -0.2701
  170DOPC   H4R20671   0.130   7.880  16.359 -0.5796 -0.0797 -0.2698
  170DOPC   H4S20672   0.218   7.727  16.371  1.4477  1.4656 -1.9686
  170DOPC   C2520673   0.355   7.883  16.347 -0.4572 -1.4054  0.6549
  170DOPC   H5R20674   0.433   7.826  16.401  1.9369 -0.1150 -1.2676
  170DOPC   H5S20675   0.364   7.992  16.362 -0.1533 -1.3324 -0.0352
  170DOPC   C2620676   0.366   7.860  16.196 -0.5557 -0.3761  0.2703
  170DOPC   H6R20677   0.314   7.939  16.137  0.5995  0.8385  0.8034
  170DOPC   H6S20678   0.330   7.757  16.177  1.2378 -0.6239 -2.2950
  170DOPC   C2720679   0.507   7.875  16.138  0.0553 -0.4597 -0.4316
  170DOPC   H7R20680   0.578   7.821  16.203 -0.6628 -0.4227  0.4041
  170DOPC   H7S20681   0.534   7.982  16.150  1.1793 -0.7166 -0.5969
  170DOPC   C2820682   0.524   7.821  15.992  0.3985 -0.0075  0.4718
  170DOPC   H8R20683   0.444   7.854  15.922  0.1984 -3.7946 -1.3121
  170DOPC   H8S20684   0.506   7.713  16.005 -2.6550  0.3560 -0.0640
  170DOPC   C2920685   0.661   7.845  15.946 -0.1558 -0.1798  0.0268
  170DOPC   H9R20686   0.733   7.898  16.010 -0.2999 -0.8402  0.7360
  170DOPC  C21020687   0.704   7.822  15.822  0.4434 -0.0196 -0.0192
  170DOPC  H10R20688   0.805   7.857  15.795 -0.6171  2.3188 -1.2401
  170DOPC  C21120689   0.626   7.750  15.721 -0.3287 -0.1080  1.3162
  170DOPC  H11R20690   0.527   7.707  15.749 -0.6167 -0.0214  0.4678
  170DOPC  H11S20691   0.683   7.657  15.700  2.3294  1.1210  2.5975
  170DOPC  C21220692   0.605   7.841  15.599  0.0027  0.6086  0.7077
  170DOPC  H12R20693   0.709   7.856  15.562  0.0089 -1.0162 -0.0328
  170DOPC  H12S20694   0.549   7.936  15.612 -0.4163  0.4172  0.3387
  170DOPC  C21320695   0.534   7.766  15.477 -0.1466 -0.2993  0.5105
  170DOPC  H13R20696   0.600   7.687  15.435 -0.7563  0.3989 -1.8844
  170DOPC  H13S20697   0.519   7.833  15.390 -0.4974 -1.8781 -0.6861
  170DOPC  C21420698   0.410   7.693  15.518 -0.0538  0.6621  0.8277
  170DOPC  H14R20699   0.367   7.752  15.602  2.0571  2.7564  0.5134
  170DOPC  H14S20700   0.423   7.590  15.559 -0.1465  0.0856 -0.5324
  170DOPC  C21520701   0.323   7.683  15.383  0.4564  0.4329 -0.2998
  170DOPC  H15R20702   0.322   7.782  15.333 -0.7754  0.5262 -0.1315
  170DOPC  H15S20703   0.218   7.662  15.412 -0.0965  1.1772 -1.6500
  170DOPC  C21620704   0.365   7.568  15.291 -0.3670  0.1458  0.2617
  170DOPC  H16R20705   0.381   7.480  15.357  1.2402  0.7740  0.7768
  170DOPC  H16S20706   0.465   7.599  15.252  0.0300  2.4082  2.7526
  170DOPC  C21720707   0.261   7.533  15.188  0.2254 -0.0787 -0.1731
  170DOPC  H17R20708   0.163   7.524  15.240 -0.5661  0.5314 -1.5267
  170DOPC  H17S20709   0.283   7.434  15.144  0.9482 -1.0361  2.1728
  170DOPC  C21820710   0.236   7.636  15.075  0.1199  0.1419 -0.3514
  170DOPC  H18R20711   0.227   7.742  15.107 -1.2042 -0.7318  2.5092
  170DOPC  H18S20712   0.142   7.614  15.020  0.1038  0.7927 -0.5860
  170DOPC  H18T20713   0.319   7.620  15.002 -0.4601 -0.6643 -0.8594
  170DOPC   C3320714   0.669   7.483  16.242 -0.5062  0.4570 -0.0874
  170DOPC   H3X20715   0.748   7.492  16.319 -0.6389  1.6983 -0.0663
  170DOPC   H3Y20716   0.691   7.559  16.164  1.1455  0.7443  0.6190
  170DOPC   C3420717   0.666   7.349  16.163  0.3002  0.3691 -0.6767
  170DOPC   H4X20718   0.593   7.352  16.079 -0.0308 -0.2461 -0.4248
  170DOPC   H4Y20719   0.629   7.275  16.238 -3.4269  3.3820  0.8516
  170DOPC   C3520720   0.805   7.318  16.093 -0.2096 -0.3590 -0.8705
  170DOPC   H5X20721   0.884   7.304  16.170 -1.8856 -1.3291  0.7481
  170DOPC   H5Y20722   0.841   7.404  16.033 -0.8711  0.5851  0.0575
  170DOPC   C3620723   0.803   7.195  15.997 -0.1858 -0.2578 -0.3281
  170DOPC   H6X20724   0.735   7.218  15.912  0.0082  0.7167 -0.2357
  170DOPC   H6Y20725   0.905   7.172  15.960 -0.3829 -2.2348  0.2611
  170DOPC   C3720726   0.747   7.066  16.060 -0.4238 -0.5727 -0.2510
  170DOPC   H7X20727   0.791   7.044  16.159  0.4273 -1.0674 -0.7238
  170DOPC   H7Y20728   0.638   7.079  16.073 -0.2211  2.0904 -0.5111
  170DOPC   C3820729   0.770   6.952  15.966 -0.3124  0.1832 -0.3417
  170DOPC   H8X20730   0.880   6.943  15.948 -0.1739  0.2243  0.4641
  170DOPC   H8Y20731   0.723   6.973  15.867 -1.1844 -1.3978 -0.3021
  170DOPC   C3920732   0.722   6.817  16.015  0.1198 -0.0059  0.5341
  170DOPC   H9X20733   0.764   6.800  16.115 -0.4074  1.1807  0.9817
  170DOPC  C31020734   0.638   6.725  15.959 -0.5323  0.2517  0.4953
  170DOPC  H10X20735   0.618   6.630  16.011  1.3660  0.6749  2.1534
  170DOPC  C31120736   0.571   6.750  15.823  0.1882  0.5834  0.0354
  170DOPC  H11X20737   0.578   6.859  15.803 -0.8063  0.1591 -3.1562
  170DOPC  H11Y20738   0.467   6.713  15.814 -0.3680  2.4160 -1.6863
  170DOPC  C31220739   0.656   6.678  15.709 -0.5064 -0.4017  0.5772
  170DOPC  H12X20740   0.656   6.570  15.731  2.5562 -0.5595  0.2027
  170DOPC  H12Y20741   0.760   6.716  15.718 -0.5960 -0.3506  1.4545
  170DOPC  C31320742   0.597   6.695  15.569 -0.1622  0.5557  0.0675
  170DOPC  H13X20743   0.492   6.660  15.568 -0.6729  2.0196  0.2810
  170DOPC  H13Y20744   0.593   6.804  15.547  2.8158  0.7515  0.0382
  170DOPC  C31420745   0.665   6.607  15.464 -0.4932  0.6693 -0.4573
  170DOPC  H14X20746   0.764   6.652  15.440  0.0211 -0.6842 -0.9841
  170DOPC  H14Y20747   0.688   6.508  15.509 -0.1059 -0.1826 -2.4314
  170DOPC  C31520748   0.581   6.573  15.339 -0.0614  0.7415 -0.0778
  170DOPC  H15X20749   0.587   6.655  15.264 -1.3010 -0.9552 -2.1655
  170DOPC  H15Y20750   0.476   6.569  15.375  0.3142 -1.9111  0.9973
  170DOPC  C31620751   0.610   6.439  15.272  0.1176  0.4946 -0.6531
  170DOPC  H16X20752   0.619   6.357  15.347 -1.3288  0.6918 -0.2348
  170DOPC  H16Y20753   0.521   6.399  15.218  1.0176 -1.3184 -0.8635
  170DOPC  C31720754   0.735   6.451  15.191 -0.5807  0.4851  0.0262
  170DOPC  H17X20755   0.803   6.505  15.261  0.3418 -1.1712  0.4643
  170DOPC  H17Y20756   0.781   6.351  15.178 -0.6127  0.4332  0.3136
  170DOPC  C31820757   0.713   6.520  15.061  0.3660  0.2229 -0.6950
  170DOPC  H18X20758   0.683   6.622  15.094  1.0237  0.4732 -0.8500
  170DOPC  H18Y20759   0.812   6.533  15.013  0.1531 -0.9967 -1.5019
  170DOPC  H18Z20760   0.642   6.463  14.998  0.1480 -1.5481  1.0282
  171DOPC     N20761   4.229   3.056  12.991 -0.8575 -0.1461  0.5853
  171DOPC   C1220762   4.374   3.014  13.009 -0.2365 -0.2550  0.5449
  171DOPC  H12A20763   4.442   3.097  12.999 -0.2118 -0.5801 -3.7326
  171DOPC  H12B20764   4.407   2.962  12.920  1.6843  3.2189 -0.9757
  171DOPC   C1320765   4.212   3.142  12.871  0.1613  0.4248  0.0553
  171DOPC  H13A20766   4.109   3.174  12.868  0.4026  1.2708  0.3289
  171DOPC  H13B20767   4.277   3.228  12.884  1.8570 -1.1769  3.6344
  171DOPC  H13C20768   4.231   3.097  12.775  0.5224 -0.1576  0.3983
  171DOPC   C1420769   4.179   3.129  13.111 -0.3737 -0.0648 -0.2282
  171DOPC  H14A20770   4.224   3.226  13.124  0.4761 -0.4252 -0.4053
  171DOPC  H14B20771   4.075   3.154  13.091  0.5205  2.0208 -2.8522
  171DOPC  H14C20772   4.187   3.069  13.201 -0.9459  0.8502  0.4547
  171DOPC   C1520773   4.148   2.932  12.968  0.9311 -1.0527 -0.3792
  171DOPC  H15A20774   4.180   2.876  12.882  1.8243  0.1442 -0.8537
  171DOPC  H15B20775   4.042   2.949  12.975  1.0597 -0.0055 -0.8554
  171DOPC  H15C20776   4.164   2.865  13.052  0.0833 -0.8583 -0.0511
  171DOPC   C1120777   4.419   2.931  13.129 -0.1229 -0.4558 -0.2475
  171DOPC  H11A20778   4.530   2.927  13.122  0.0871  3.0668 -1.0064
  171DOPC  H11B20779   4.388   2.985  13.222  0.5362 -0.3294 -0.0958
  171DOPC     P20780   4.430   2.677  13.076 -0.2492 -0.1599 -0.0863
  171DOPC   O1320781   4.549   2.716  12.991 -0.0608 -0.3771  0.1889
  171DOPC   O1420782   4.325   2.586  13.019 -0.0410  0.5095  0.6770
  171DOPC   O1220783   4.354   2.805  13.135 -0.3264 -0.5402  0.1707
  171DOPC   O1120784   4.476   2.609  13.211  0.0033 -0.1042  0.1237
  171DOPC    C120785   4.585   2.664  13.288 -0.3460  0.2090  0.4429
  171DOPC    HA20786   4.621   2.762  13.251 -1.1562  0.9733  1.5776
  171DOPC    HB20787   4.672   2.595  13.291  0.9046  1.7414  1.6471
  171DOPC    C220788   4.544   2.681  13.439 -0.5027 -0.6894  0.2657
  171DOPC    HS20789   4.636   2.718  13.489 -0.6483 -1.5201  1.1765
  171DOPC   O2120790   4.484   2.562  13.498 -0.2222 -0.2271 -0.6140
  171DOPC   C2120791   4.584   2.487  13.562  0.0257 -0.1505  0.8008
  171DOPC   O2220792   4.700   2.503  13.536  0.8210 -0.3572 -0.2038
  171DOPC   C2220793   4.526   2.375  13.651  0.1163 -0.1509  0.0406
  171DOPC   H2R20794   4.565   2.276  13.621 -1.7477 -0.1615 -2.6911
  171DOPC   H2S20795   4.417   2.382  13.635  0.1850  0.1874 -0.2937
  171DOPC    C320796   4.451   2.803  13.456 -0.0394 -0.4701  0.1758
  171DOPC    HX20797   4.345   2.781  13.433 -0.1913  1.8668 -1.7813
  171DOPC    HY20798   4.481   2.880  13.381  0.5708  0.5176  1.4009
  171DOPC   O3120799   4.458   2.869  13.588  0.8649 -0.3551  0.0156
  171DOPC   C3120800   4.371   2.966  13.605  0.2079  0.0324 -0.2484
  171DOPC   O3220801   4.285   3.002  13.528 -0.3935  0.2515  0.8578
  171DOPC   C3220802   4.381   3.007  13.751  0.2218 -0.0313 -0.3548
  171DOPC   H2X20803   4.370   2.916  13.814 -0.7454 -0.0323 -0.5205
  171DOPC   H2Y20804   4.483   3.048  13.767  1.1272 -0.6056 -3.7673
  171DOPC   C2320805   4.544   2.399  13.809 -0.4268  0.7231 -0.7943
  171DOPC   H3R20806   4.644   2.447  13.816 -0.9413  1.6466  0.6751
  171DOPC   H3S20807   4.551   2.305  13.868  0.8594  1.7778  0.8302
  171DOPC   C2420808   4.436   2.494  13.866  0.7961  0.0169  0.2530
  171DOPC   H4R20809   4.345   2.432  13.855  0.6534  0.0515  1.2038
  171DOPC   H4S20810   4.432   2.583  13.800 -1.8242  0.0201  0.3401
  171DOPC   C2520811   4.457   2.534  14.009 -0.1498 -0.1289  0.1932
  171DOPC   H5R20812   4.430   2.639  14.030  0.4673  0.6196 -2.3543
  171DOPC   H5S20813   4.561   2.514  14.041 -0.3653 -3.2835 -0.6804
  171DOPC   C2620814   4.382   2.445  14.114  0.0401  0.1303  0.2772
  171DOPC   H6R20815   4.406   2.337  14.112  0.4644  0.0763  3.0992
  171DOPC   H6S20816   4.272   2.441  14.097 -0.0735 -1.1215  1.1852
  171DOPC   C2720817   4.407   2.497  14.250  0.6284  0.1471 -0.4980
  171DOPC   H7R20818   4.394   2.607  14.260  1.7082  0.1192  1.7897
  171DOPC   H7S20819   4.515   2.488  14.274  0.8279 -1.6501 -1.9038
  171DOPC   C2820820   4.310   2.436  14.358  0.6277  0.2712  0.9051
  171DOPC   H8R20821   4.208   2.461  14.322  0.8904 -0.7878 -0.6987
  171DOPC   H8S20822   4.331   2.493  14.451  2.4891 -1.9576  1.9369
  171DOPC   C2920823   4.338   2.299  14.390 -0.2619  0.4216 -0.4402
  171DOPC   H9R20824   4.323   2.230  14.306  1.2094 -0.5933  0.0900
  171DOPC  C21020825   4.405   2.257  14.500 -0.4914  0.0331  0.3720
  171DOPC  H10R20826   4.415   2.148  14.510  0.8774 -0.0620 -1.3469
  171DOPC  C21120827   4.471   2.336  14.610  0.2273 -0.2878  0.2768
  171DOPC  H11R20828   4.469   2.447  14.610 -1.0934 -0.2964  0.6170
  171DOPC  H11S20829   4.578   2.314  14.592  0.2244 -0.0488 -0.0393
  171DOPC  C21220830   4.424   2.303  14.755  0.8614  0.0111 -0.6076
  171DOPC  H12R20831   4.435   2.195  14.777  1.2567 -0.0299 -0.9818
  171DOPC  H12S20832   4.319   2.339  14.754  0.7848 -0.2052 -1.2168
  171DOPC  C21320833   4.495   2.382  14.869 -0.4242 -0.2137 -0.1091
  171DOPC  H13R20834   4.442   2.357  14.964 -0.6883 -1.6193 -0.6088
  171DOPC  H13S20835   4.490   2.491  14.850 -1.1741  0.3565  2.8381
  171DOPC  C21420836   4.643   2.340  14.870 -0.6897  0.3621 -0.4685
  171DOPC  H14R20837   4.685   2.387  14.779  1.3208 -0.7823 -0.2078
  171DOPC  H14S20838   4.641   2.229  14.857 -2.5740  0.2968  0.1519
  171DOPC  C21520839   4.712   2.391  14.993 -0.4488 -0.1964  0.2785
  171DOPC  H15R20840   4.644   2.370  15.078 -0.1029  0.2539  0.6720
  171DOPC  H15S20841   4.720   2.502  14.990  0.3541 -0.2159  1.1202
  171DOPC  C21620842   4.851   2.339  15.022 -0.6832 -0.2252 -0.5212
  171DOPC  H16R20843   4.923   2.391  14.956 -0.4433  0.4606  0.2626
  171DOPC  H16S20844   4.862   2.230  15.004  0.7447 -0.0057 -1.0683
  171DOPC  C21720845   4.878   2.354  15.179  0.0063  0.0449 -0.2142
  171DOPC  H17R20846   4.969   2.299  15.209  0.5411  0.5083 -0.9482
  171DOPC  H17S20847   4.801   2.306  15.244 -0.0748 -0.7545 -0.8836
  171DOPC  C21820848   4.886   2.500  15.235  0.6973  0.3648  0.0603
  171DOPC  H18R20849   4.882   2.582  15.161 -0.7007 -0.7204 -1.1098
  171DOPC  H18S20850   4.979   2.512  15.294  0.5477 -1.9438  0.8991
  171DOPC  H18T20851   4.798   2.515  15.302  0.6295 -0.6329  0.2210
  171DOPC   C3320852   4.271   3.106  13.790  0.2809 -0.0269  0.2251
  171DOPC   H3X20853   4.172   3.055  13.792  0.0540  0.3432 -1.1740
  171DOPC   H3Y20854   4.266   3.194  13.723 -0.1893  1.7358  2.4400
  171DOPC   C3420855   4.303   3.162  13.935 -0.2468  0.3670 -0.3539
  171DOPC   H4X20856   4.405   3.205  13.939 -0.4491  1.2535 -3.0880
  171DOPC   H4Y20857   4.308   3.071  13.999 -1.4053 -1.1461 -2.2732
  171DOPC   C3520858   4.195   3.253  13.986  0.6318 -0.0694 -0.2475
  171DOPC   H5X20859   4.094   3.207  13.979  0.7204 -0.1758 -0.8989
  171DOPC   H5Y20860   4.204   3.341  13.919  2.9046 -0.5734 -0.6920
  171DOPC   C3620861   4.209   3.294  14.131 -0.5977 -0.3068  0.0365
  171DOPC   H6X20862   4.206   3.199  14.189 -0.1778  0.8051  1.9570
  171DOPC   H6Y20863   4.314   3.327  14.148 -1.1826  0.7522  1.7404
  171DOPC   C3720864   4.105   3.393  14.172  0.1905  0.2097 -0.0547
  171DOPC   H7X20865   4.126   3.490  14.121 -0.5971  1.5295  1.9993
  171DOPC   H7Y20866   4.006   3.364  14.131  0.1068  0.7204 -0.2241
  171DOPC   C3820867   4.090   3.430  14.322  0.2505 -0.6324  0.2113
  171DOPC   H8X20868   4.069   3.335  14.376  1.7221 -1.1737 -0.1286
  171DOPC   H8Y20869   4.001   3.496  14.336  0.9146  0.3816 -0.2735
  171DOPC   C3920870   4.210   3.500  14.369  0.2346 -0.4260  0.3924
  171DOPC   H9X20871   4.240   3.592  14.318 -2.0950 -0.4720 -1.2225
  171DOPC  C31020872   4.286   3.474  14.475 -0.3226 -0.5785  0.7461
  171DOPC  H10X20873   4.351   3.556  14.506  1.6417 -0.9988 -1.9061
  171DOPC  C31120874   4.257   3.373  14.586  0.1569 -0.3252  1.0233
  171DOPC  H11X20875   4.327   3.288  14.572  1.7503  0.7434  2.2454
  171DOPC  H11Y20876   4.153   3.334  14.586 -0.5828  1.4211  3.1957
  171DOPC  C31220877   4.288   3.412  14.734  0.5126  0.2265 -0.3876
  171DOPC  H12X20878   4.218   3.483  14.783 -0.8684 -1.1230 -0.3203
  171DOPC  H12Y20879   4.392   3.451  14.736  1.0516 -1.1322 -0.7498
  171DOPC  C31320880   4.282   3.288  14.827 -0.1533 -0.1279 -0.0906
  171DOPC  H13X20881   4.176   3.260  14.838  0.0189  0.0241  2.8291
  171DOPC  H13Y20882   4.350   3.219  14.773  0.4205 -0.8017  1.4246
  171DOPC  C31420883   4.320   3.331  14.966 -0.1072  0.1145  0.3359
  171DOPC  H14X20884   4.414   3.390  14.960 -1.4137  2.1660 -1.7505
  171DOPC  H14Y20885   4.250   3.410  15.001 -0.0387  0.1568  0.3781
  171DOPC  C31520886   4.307   3.205  15.062  0.0797  0.0779 -0.1779
  171DOPC  H15X20887   4.370   3.121  15.026 -2.7606 -2.1599 -0.2889
  171DOPC  H15Y20888   4.203   3.166  15.063  0.1216 -0.0335  0.4897
  171DOPC  C31620889   4.352   3.251  15.202 -0.1423 -0.7078  0.4519
  171DOPC  H16X20890   4.283   3.326  15.246  1.0864 -0.6276  2.3467
  171DOPC  H16Y20891   4.339   3.164  15.269  0.3478 -0.5727  0.7215
  171DOPC  C31720892   4.497   3.303  15.199 -0.6074 -0.0509  0.3325
  171DOPC  H17X20893   4.546   3.231  15.131 -1.8666 -1.2323  0.6211
  171DOPC  H17Y20894   4.502   3.406  15.157 -0.4149  0.4162  1.4673
  171DOPC  C31820895   4.571   3.296  15.332 -0.6287 -0.0048 -0.3599
  171DOPC  H18X20896   4.545   3.368  15.412  1.5917 -1.0929  1.4499
  171DOPC  H18Y20897   4.560   3.197  15.382  1.7216 -0.3269 -0.3844
  171DOPC  H18Z20898   4.679   3.300  15.306 -0.7047  0.3986 -0.6089
  172DOPC     N20899   4.031   4.503  12.450 -0.2526 -0.1307 -0.0336
  172DOPC   C1220900   4.045   4.600  12.569 -0.8172 -0.0592  0.0054
  172DOPC  H12A20901   4.110   4.680  12.536  1.0098 -2.5622 -3.0523
  172DOPC  H12B20902   4.105   4.544  12.639 -2.7297 -0.0402  1.7468
  172DOPC   C1320903   3.980   4.571  12.333 -0.7044 -0.6757 -0.3045
  172DOPC  H13A20904   3.881   4.607  12.355  0.4130  2.5791 -0.0871
  172DOPC  H13B20905   4.045   4.653  12.306 -0.2463 -1.4849 -1.7472
  172DOPC  H13C20906   3.970   4.508  12.246 -0.1241 -1.2149  0.0046
  172DOPC   C1420907   3.930   4.390  12.473 -0.2243 -0.2887  0.3254
  172DOPC  H14A20908   3.922   4.321  12.391  3.1287 -0.1343 -0.2549
  172DOPC  H14B20909   3.956   4.332  12.561 -0.8540 -2.5671 -0.9044
  172DOPC  H14C20910   3.830   4.418  12.505 -0.3792  0.7025 -0.9452
  172DOPC   C1520911   4.162   4.434  12.427 -0.0695  0.2083  0.1618
  172DOPC  H15A20912   4.160   4.353  12.356 -3.7560 -0.4912  0.8391
  172DOPC  H15B20913   4.190   4.378  12.514 -0.8463 -2.5780 -1.2725
  172DOPC  H15C20914   4.247   4.495  12.400 -0.4925  1.0712  0.7159
  172DOPC   C1120915   3.917   4.652  12.645  0.3762  0.6902 -0.5060
  172DOPC  H11A20916   3.947   4.723  12.725 -0.8832  0.8172 -0.1193
  172DOPC  H11B20917   3.846   4.710  12.582 -0.5039  1.7415  1.3628
  172DOPC     P20918   3.911   4.485  12.842 -0.3172  0.0727 -0.0317
  172DOPC   O1320919   4.060   4.456  12.841  0.7395 -0.1159  0.0474
  172DOPC   O1420920   3.817   4.377  12.879  0.7922 -0.0656 -0.2794
  172DOPC   O1220921   3.855   4.542  12.707 -0.7461  0.1276  0.1323
  172DOPC   O1120922   3.881   4.613  12.933 -0.6524  1.3674 -0.0960
  172DOPC    C120923   3.847   4.595  13.076  0.1183 -0.3517 -0.0909
  172DOPC    HA20924   3.768   4.517  13.077 -0.2458  0.0115  1.4093
  172DOPC    HB20925   3.796   4.687  13.111  0.2163 -0.3025 -0.0781
  172DOPC    C220926   3.964   4.587  13.169  0.3289 -0.1479 -0.2797
  172DOPC    HS20927   4.018   4.491  13.154  0.0693 -0.1802 -1.0210
  172DOPC   O2120928   3.919   4.597  13.305 -0.1978 -0.4177  0.2442
  172DOPC   C2120929   3.857   4.491  13.354 -0.6762  0.9331  0.6781
  172DOPC   O2220930   3.836   4.384  13.295  0.1968 -0.5815 -0.3674
  172DOPC   C2220931   3.812   4.512  13.497 -0.0735 -0.3277  0.3151
  172DOPC   H2R20932   3.701   4.505  13.502 -0.1742  1.4376  1.2658
  172DOPC   H2S20933   3.853   4.605  13.541  0.9777  0.2638 -1.7926
  172DOPC    C320934   4.069   4.700  13.132  0.4752  0.1182  0.1579
  172DOPC    HX20935   4.006   4.791  13.124  1.9621  1.3067  1.2338
  172DOPC    HY20936   4.108   4.678  13.031  0.8568 -0.5436  0.4417
  172DOPC   O3120937   4.174   4.730  13.225 -0.2609 -0.0631 -0.0567
  172DOPC   C3120938   4.279   4.639  13.226  0.4653 -0.2977  0.4995
  172DOPC   O3220939   4.290   4.551  13.142  0.2921  0.2419 -0.5328
  172DOPC   C3220940   4.377   4.674  13.341  0.4814  0.0618  0.1581
  172DOPC   H2X20941   4.480   4.653  13.305  0.2419 -1.5395  0.2971
  172DOPC   H2Y20942   4.359   4.776  13.379  1.8278  1.3688 -2.4526
  172DOPC   C2320943   3.858   4.401  13.590  0.1355  0.3577 -0.4772
  172DOPC   H3R20944   3.964   4.370  13.584 -0.3497 -1.2348 -1.5213
  172DOPC   H3S20945   3.807   4.306  13.565  0.0440 -0.2180  1.6824
  172DOPC   C2420946   3.812   4.426  13.735  0.2438 -0.0587  0.5325
  172DOPC   H4R20947   3.701   4.418  13.746  0.1926  1.1261  0.9840
  172DOPC   H4S20948   3.837   4.530  13.763 -1.3912  0.4778  0.1424
  172DOPC   C2520949   3.892   4.336  13.831 -0.0093 -0.2966 -0.6259
  172DOPC   H5R20950   3.999   4.359  13.813 -0.1250  0.3377 -0.5280
  172DOPC   H5S20951   3.869   4.230  13.805  1.5623 -0.9867  0.6446
  172DOPC   C2620952   3.861   4.371  13.978  0.3117  0.1141 -0.3503
  172DOPC   H6R20953   3.753   4.348  13.988  0.4253  0.1577  1.2347
  172DOPC   H6S20954   3.880   4.479  14.001  1.3389 -0.4771  1.9588
  172DOPC   C2720955   3.942   4.285  14.088 -0.6881  0.6873  0.1725
  172DOPC   H7R20956   4.046   4.269  14.052 -0.7230 -0.0730  0.3866
  172DOPC   H7S20957   3.895   4.185  14.089  0.5521  0.0621 -1.1979
  172DOPC   C2820958   3.949   4.360  14.223 -0.2043 -0.6961 -0.0181
  172DOPC   H8R20959   3.993   4.461  14.207 -1.3771  0.1099  1.6227
  172DOPC   H8S20960   4.009   4.301  14.296  0.9792  3.1514  2.3937
  172DOPC   C2920961   3.810   4.374  14.283  0.1610 -0.4667  0.4712
  172DOPC   H9R20962   3.739   4.425  14.216  0.2391  0.3035  0.9533
  172DOPC  C21020963   3.767   4.336  14.404 -1.1473  0.6076  1.0747
  172DOPC  H10R20964   3.674   4.387  14.433 -0.1540  2.8861  0.5259
  172DOPC  C21120965   3.846   4.276  14.520  0.5551  0.1528  0.4005
  172DOPC  H11R20966   3.846   4.328  14.619  1.1446 -1.0026  1.0310
  172DOPC  H11S20967   3.956   4.278  14.501  0.3939  2.1674 -0.6182
  172DOPC  C21220968   3.804   4.132  14.569 -0.2648  0.1396  0.5243
  172DOPC  H12R20969   3.696   4.132  14.592 -0.8225  1.9919 -1.7648
  172DOPC  H12S20970   3.852   4.111  14.667 -0.8827  1.0720  1.0376
  172DOPC  C21320971   3.813   4.017  14.468  0.5701 -0.6213 -0.3224
  172DOPC  H13R20972   3.801   4.066  14.369  0.5693  1.8138  0.8084
  172DOPC  H13S20973   3.733   3.939  14.471  0.0392 -0.0642  0.5505
  172DOPC  C21420974   3.946   3.946  14.468  0.0574  0.1473 -0.5170
  172DOPC  H14R20975   3.925   3.853  14.411  1.5204  0.2316 -1.2379
  172DOPC  H14S20976   3.974   3.914  14.571  1.0906 -0.0813 -0.8575
  172DOPC  C21520977   4.061   4.029  14.414 -0.0254 -0.0323 -0.0024
  172DOPC  H15R20978   4.075   4.119  14.476 -0.6924  1.0077 -1.3046
  172DOPC  H15S20979   4.032   4.057  14.310 -1.7522 -0.0614  0.4436
  172DOPC  C21620980   4.192   3.951  14.417  0.4993 -0.0744  0.1705
  172DOPC  H16R20981   4.182   3.861  14.353 -2.2304 -0.6487  1.2573
  172DOPC  H16S20982   4.198   3.909  14.520 -1.9637  0.6844  0.6851
  172DOPC  C21720983   4.312   4.034  14.381 -0.0301  0.0082  0.8367
  172DOPC  H17R20984   4.398   3.978  14.422  0.0282 -0.3520  0.2284
  172DOPC  H17S20985   4.305   4.133  14.431 -2.0798  0.3458  0.0157
  172DOPC  C21820986   4.346   4.058  14.234 -0.2277  0.1335 -0.4847
  172DOPC  H18R20987   4.428   4.133  14.229 -0.5434  0.5518  0.3517
  172DOPC  H18S20988   4.258   4.106  14.186  0.1770  1.2571 -0.1217
  172DOPC  H18T20989   4.389   3.965  14.191  1.1088 -1.0072  2.9690
  172DOPC   C3320990   4.336   4.570  13.452 -0.1574  0.4483  0.0466
  172DOPC   H3X20991   4.416   4.566  13.530  0.9466 -0.5519 -1.0980
  172DOPC   H3Y20992   4.326   4.471  13.403 -0.6807  0.8810 -0.7383
  172DOPC   C3420993   4.224   4.613  13.552  0.1764 -0.0662 -0.3883
  172DOPC   H4X20994   4.203   4.523  13.613  1.5299 -0.1777 -0.0492
  172DOPC   H4Y20995   4.136   4.653  13.497 -0.2597  2.3368  1.8410
  172DOPC   C3520996   4.276   4.727  13.638  0.4632  0.2653 -0.4578
  172DOPC   H5X20997   4.287   4.820  13.579 -1.5082  1.5929  1.1462
  172DOPC   H5Y20998   4.373   4.703  13.688  1.1224 -0.0132 -1.8134
  172DOPC   C3620999   4.183   4.762  13.749  0.6074  0.0995  0.5614
  172DOPC   H6X21000   4.173   4.674  13.816 -0.2986 -0.0643  0.2234
  172DOPC   H6Y21001   4.217   4.846  13.813 -1.1260 -0.1568  1.8907
  172DOPC   C3721002   4.041   4.795  13.700  0.2976 -0.0562  0.2962
  172DOPC   H7X21003   4.036   4.866  13.615  2.1528  2.2842  2.0129
  172DOPC   H7Y21004   3.987   4.704  13.666 -1.6930  1.0053  0.4522
  172DOPC   C3821005   3.959   4.863  13.812  0.0459 -0.4619 -0.9798
  172DOPC   H8X21006   3.981   4.803  13.903  0.4903  0.7874 -0.2478
  172DOPC   H8Y21007   3.849   4.847  13.799  0.1075 -0.4462 -1.5188
  172DOPC   C3921008   3.999   5.012  13.836 -0.1664  0.0246 -0.5110
  172DOPC   H9X21009   3.985   5.080  13.751  3.1416  0.8590 -0.5093
  172DOPC  C31021010   4.052   5.063  13.944 -0.2395 -0.5650 -0.0108
  172DOPC  H10X21011   4.075   5.171  13.948 -0.0975 -0.6289  1.2307
  172DOPC  C31121012   4.090   4.994  14.075  0.3335 -0.2488  0.1838
  172DOPC  H11X21013   4.200   4.979  14.087  0.3770  0.6508  1.0623
  172DOPC  H11Y21014   4.040   4.895  14.076  0.1115 -0.1837 -1.7087
  172DOPC  C31221015   4.037   5.078  14.187 -0.5799  0.0352  0.1426
  172DOPC  H12X21016   3.927   5.089  14.170 -0.1526  1.4863 -2.1415
  172DOPC  H12Y21017   4.071   5.183  14.183 -0.7225  0.1055  0.6326
  172DOPC  C31321018   4.065   5.009  14.323  0.2358 -0.3051  0.2745
  172DOPC  H13X21019   4.008   4.913  14.319 -3.0292  1.5216 -1.1119
  172DOPC  H13Y21020   4.173   4.982  14.322  0.5247  0.8666 -0.8882
  172DOPC  C31421021   4.018   5.085  14.448 -0.4345  0.7977 -0.5683
  172DOPC  H14X21022   4.066   5.185  14.452  0.8890  0.2989 -2.5899
  172DOPC  H14Y21023   3.911   5.111  14.464  0.3859  3.4322  1.2941
  172DOPC  C31521024   4.073   5.014  14.577 -0.0228 -0.2477  0.1870
  172DOPC  H15X21025   4.183   5.003  14.575 -0.1499 -1.9814  0.7557
  172DOPC  H15Y21026   4.023   4.914  14.574  1.9960 -1.3899  1.6960
  172DOPC  C31621027   4.023   5.087  14.699  0.4595  0.2550  0.1258
  172DOPC  H16X21028   4.086   5.175  14.720 -0.2091  0.6425  0.5569
  172DOPC  H16Y21029   3.922   5.126  14.672 -1.2619 -3.3980  0.5620
  172DOPC  C31721030   4.029   4.998  14.828 -0.2891 -0.6101 -0.6162
  172DOPC  H17X21031   3.979   5.043  14.916  1.3132 -1.5792  0.8369
  172DOPC  H17Y21032   3.968   4.905  14.818 -1.2797  0.1325 -1.8075
  172DOPC  C31821033   4.176   4.964  14.868 -0.1770  0.5710  0.1738
  172DOPC  H18X21034   4.199   4.919  14.967 -0.8212 -1.1504 -0.4193
  172DOPC  H18Y21035   4.210   4.892  14.790 -2.0925  0.2651 -0.4280
  172DOPC  H18Z21036   4.231   5.060  14.856 -0.8429  0.7697 -1.6331
  173DOPC     N21037   2.475   3.173  13.439 -0.1458  0.1879  0.2054
  173DOPC   C1221038   2.573   3.187  13.555 -0.0673 -1.4234  0.1560
  173DOPC  H12A21039   2.519   3.162  13.646 -3.1090 -0.0821 -1.1493
  173DOPC  H12B21040   2.613   3.286  13.567  1.6573 -2.1411  0.6704
  173DOPC   C1321041   2.430   3.028  13.438 -0.5580  0.0937  0.6879
  173DOPC  H13A21042   2.379   3.011  13.532 -0.7181  1.2530  0.8320
  173DOPC  H13B21043   2.369   3.022  13.349  1.9897 -1.6432 -1.0856
  173DOPC  H13C21044   2.505   2.952  13.428 -0.8975 -0.0366 -1.2382
  173DOPC   C1421045   2.538   3.203  13.307  0.2368  0.4018  0.1695
  173DOPC  H14A21046   2.641   3.170  13.300  0.2898  0.8539 -2.6163
  173DOPC  H14B21047   2.489   3.144  13.231 -1.2010 -0.6038  1.8233
  173DOPC  H14C21048   2.522   3.305  13.277 -2.2972 -0.2331 -0.8951
  173DOPC   C1521049   2.356   3.259  13.456 -0.0189 -0.9626 -0.5225
  173DOPC  H15A21050   2.331   3.269  13.561  1.8924 -1.0680 -0.0309
  173DOPC  H15B21051   2.272   3.218  13.403 -2.0314  1.7001  0.3513
  173DOPC  H15C21052   2.369   3.358  13.414  0.5570 -0.7261  0.1968
  173DOPC   C1121053   2.696   3.093  13.558  0.4584 -0.1889  0.0470
  173DOPC  H11A21054   2.740   3.110  13.658 -1.5257  2.1678  0.6242
  173DOPC  H11B21055   2.672   2.985  13.554 -0.4406  0.0095 -0.1550
  173DOPC     P21056   2.908   3.215  13.470 -0.0148  0.2740 -0.3439
  173DOPC   O1321057   2.867   3.340  13.538  0.9895  0.3310 -0.4511
  173DOPC   O1421058   2.970   3.226  13.333 -0.3056 -0.8060 -0.7078
  173DOPC   O1221059   2.787   3.116  13.449  0.9155 -0.0663  0.1694
  173DOPC   O1121060   3.004   3.126  13.556  0.6306  0.0197 -0.2495
  173DOPC    C121061   3.060   3.002  13.520 -0.6442  0.0762 -0.2703
  173DOPC    HA21062   3.157   2.997  13.573 -1.2864  0.1831  0.9550
  173DOPC    HB21063   3.089   2.997  13.413  3.6294 -1.3681  0.7640
  173DOPC    C221064   2.975   2.880  13.545  0.2473  0.0399 -0.3635
  173DOPC    HS21065   2.883   2.901  13.487  0.4966  1.6459 -0.2305
  173DOPC   O2121066   2.960   2.880  13.688  0.5848  0.4214 -0.5568
  173DOPC   C2121067   2.871   2.804  13.737  0.0989 -0.1163 -0.0769
  173DOPC   O2221068   2.800   2.719  13.671  0.2111  0.3350  0.0834
  173DOPC   C2221069   2.861   2.824  13.883 -0.0850  0.2466  0.2132
  173DOPC   H2R21070   2.835   2.929  13.908  1.7503  0.5046  1.2208
  173DOPC   H2S21071   2.956   2.795  13.934 -0.0355  1.0200  0.5842
  173DOPC    C321072   3.043   2.747  13.501  0.1727  0.6761  0.1715
  173DOPC    HX21073   3.108   2.779  13.417  1.1295  0.0132  0.6311
  173DOPC    HY21074   2.965   2.674  13.473  0.3501  0.6783 -0.3465
  173DOPC   O3121075   3.128   2.693  13.606 -0.4056 -0.1601  0.6549
  173DOPC   C3121076   3.097   2.570  13.658 -0.0464 -0.2615 -0.4814
  173DOPC   O3221077   2.999   2.501  13.626  0.4382 -0.1883 -0.3713
  173DOPC   C3221078   3.212   2.532  13.758  0.2277 -0.6150 -0.1051
  173DOPC   H2X21079   3.311   2.525  13.709  0.2341 -0.9452 -0.0428
  173DOPC   H2Y21080   3.208   2.616  13.832 -3.0333 -2.3895  1.9844
  173DOPC   C2321081   2.750   2.737  13.946 -0.0339  0.1041 -0.1267
  173DOPC   H3R21082   2.651   2.741  13.895  0.1821  2.0314 -0.4618
  173DOPC   H3S21083   2.730   2.774  14.049 -0.5706  1.9285 -0.8338
  173DOPC   C2421084   2.785   2.583  13.964  0.0960 -0.0248 -0.3164
  173DOPC   H4R21085   2.821   2.539  13.869  0.6576 -1.4754  0.5271
  173DOPC   H4S21086   2.690   2.529  13.988 -0.0313  0.4631  0.3283
  173DOPC   C2521087   2.890   2.550  14.070 -0.0223  0.7044 -0.2297
  173DOPC   H5R21088   2.895   2.630  14.147 -0.1137  0.4791  0.0105
  173DOPC   H5S21089   2.992   2.557  14.026  1.1793 -1.3571  1.9413
  173DOPC   C2621090   2.895   2.418  14.145 -0.0173 -0.1393 -0.2147
  173DOPC   H6R21091   2.929   2.334  14.081  1.2527 -0.0451  0.2992
  173DOPC   H6S21092   2.795   2.388  14.184  0.0036  0.5764  0.4156
  173DOPC   C2721093   2.975   2.410  14.278 -0.5971  1.1351  0.0367
  173DOPC   H7R21094   2.950   2.504  14.331 -0.4605 -0.0251  2.3073
  173DOPC   H7S21095   3.082   2.408  14.248 -0.6984 -0.6235 -0.3572
  173DOPC   C2821096   2.927   2.289  14.357 -0.1666  0.2767  0.2828
  173DOPC   H8R21097   2.961   2.200  14.301 -1.4873 -1.8051  2.6031
  173DOPC   H8S21098   2.817   2.281  14.367 -0.1071 -2.2273 -0.4956
  173DOPC   C2921099   2.975   2.298  14.501 -0.8790 -1.1966 -0.1957
  173DOPC   H9R21100   2.950   2.398  14.537  0.1326 -0.6859 -0.8758
  173DOPC  C21021101   3.041   2.204  14.563  0.5733  0.2437 -0.0010
  173DOPC  H10R21102   3.084   2.213  14.664 -2.0164  0.2496  1.1793
  173DOPC  C21121103   3.084   2.071  14.505  0.0427 -0.3479  0.3012
  173DOPC  H11R21104   3.124   2.088  14.403 -0.0935 -0.9287  0.1470
  173DOPC  H11S21105   3.000   2.001  14.523 -0.1420 -0.3365 -0.4725
  173DOPC  C21221106   3.198   2.016  14.593 -0.2583 -0.4655  0.8215
  173DOPC  H12R21107   3.270   2.100  14.610 -2.5879  1.6525  0.8529
  173DOPC  H12S21108   3.253   1.940  14.535 -0.6200 -0.7687  0.8745
  173DOPC  C21321109   3.158   1.955  14.728  0.5175 -0.2072 -0.5243
  173DOPC  H13R21110   3.086   1.872  14.711  0.3852 -0.2373  0.1428
  173DOPC  H13S21111   3.108   2.036  14.785  0.9014 -1.1650  1.2477
  173DOPC  C21421112   3.282   1.916  14.817  0.8988 -0.4507  0.2773
  173DOPC  H14R21113   3.317   2.009  14.867 -0.1025 -0.1375  0.4191
  173DOPC  H14S21114   3.353   1.869  14.745  1.1558  1.1263 -0.5525
  173DOPC  C21521115   3.247   1.808  14.929 -0.4348  0.1203  0.1582
  173DOPC  H15R21116   3.338   1.771  14.981 -2.5910 -1.9666  2.8041
  173DOPC  H15S21117   3.196   1.721  14.881  0.2478  0.1658 -0.6645
  173DOPC  C21621118   3.153   1.869  15.030  0.3197  0.6629 -0.8899
  173DOPC  H16R21119   3.052   1.866  14.985  0.3051 -1.0831 -0.8147
  173DOPC  H16S21120   3.182   1.973  15.056  1.6135 -0.1195  1.0529
  173DOPC  C21721121   3.163   1.793  15.170  0.6142  0.0791  0.4139
  173DOPC  H17R21122   3.269   1.795  15.204  0.2250  0.8939  1.6544
  173DOPC  H17S21123   3.134   1.693  15.133  2.0731 -1.1399  2.3758
  173DOPC  C21821124   3.069   1.851  15.278  0.2453 -0.2744  0.0802
  173DOPC  H18R21125   3.062   1.961  15.269 -1.5520 -0.2794  0.9641
  173DOPC  H18S21126   3.109   1.826  15.379  0.4774  2.1553  0.6451
  173DOPC  H18T21127   2.966   1.814  15.260  0.4228 -0.8379  0.2067
  173DOPC   C3321128   3.188   2.406  13.841  0.0528  0.0859 -0.0900
  173DOPC   H3X21129   3.200   2.314  13.780 -0.0970  0.5015 -0.7650
  173DOPC   H3Y21130   3.087   2.406  13.887  0.6373  0.1739  1.2239
  173DOPC   C3421131   3.285   2.390  13.950 -0.7524  0.5925 -0.1929
  173DOPC   H4X21132   3.269   2.456  14.038 -1.4957 -1.3652  1.2106
  173DOPC   H4Y21133   3.385   2.412  13.905  0.1808 -4.0427 -0.8474
  173DOPC   C3521134   3.291   2.259  14.028  0.1533 -0.3831 -0.7101
  173DOPC   H5X21135   3.340   2.180  13.966  0.1923  0.2765 -1.5297
  173DOPC   H5Y21136   3.189   2.232  14.062  0.3589  1.4840  1.5544
  173DOPC   C3621137   3.364   2.274  14.157  0.3842 -0.0276 -0.3043
  173DOPC   H6X21138   3.458   2.327  14.132  0.0560  1.8074  2.0066
  173DOPC   H6Y21139   3.308   2.329  14.235  1.5718  0.0906  0.4802
  173DOPC   C3721140   3.412   2.140  14.222 -0.3888  0.1244  0.5275
  173DOPC   H7X21141   3.324   2.089  14.268  0.9054 -2.5829  0.2281
  173DOPC   H7Y21142   3.439   2.068  14.142 -0.6580 -1.6269  1.9369
  173DOPC   C3821143   3.521   2.153  14.335  0.0012  0.2971  0.2542
  173DOPC   H8X21144   3.451   2.158  14.421  0.2612  1.5961  0.4121
  173DOPC   H8Y21145   3.568   2.253  14.328  0.3628  0.2201  1.3879
  173DOPC   C3921146   3.620   2.038  14.339  1.1119  0.6240 -0.4521
  173DOPC   H9X21147   3.677   2.025  14.246 -0.0853 -0.8720 -1.0098
  173DOPC  C31021148   3.635   1.959  14.445 -0.4135 -0.6868  0.5810
  173DOPC  H10X21149   3.713   1.882  14.451  0.1803 -0.0442  1.3910
  173DOPC  C31121150   3.567   1.971  14.578 -0.0762 -0.0414 -0.4227
  173DOPC  H11X21151   3.511   1.879  14.604  0.0911 -0.0149  0.0432
  173DOPC  H11Y21152   3.494   2.055  14.587  0.5123  0.3442  0.9508
  173DOPC  C31221153   3.661   1.993  14.704  0.0899  0.0103  0.3770
  173DOPC  H12X21154   3.726   1.903  14.707 -2.5635 -2.0558  0.0013
  173DOPC  H12Y21155   3.595   1.988  14.793 -0.9454 -1.2624 -0.4195
  173DOPC  C31321156   3.728   2.129  14.723 -0.0396  0.4077  0.3475
  173DOPC  H13X21157   3.775   2.157  14.626  2.1235 -0.1870  1.1767
  173DOPC  H13Y21158   3.646   2.201  14.742 -0.0097 -0.0848  2.6748
  173DOPC  C31421159   3.828   2.134  14.834 -0.4516  0.0188  0.1412
  173DOPC  H14X21160   3.767   2.132  14.926  0.3271 -0.8590  0.6550
  173DOPC  H14Y21161   3.888   2.042  14.815  0.8086 -0.0640  3.7994
  173DOPC  C31521162   3.910   2.260  14.827 -0.0363  0.2631  0.1429
  173DOPC  H15X21163   3.841   2.347  14.827 -1.0802 -0.5581  0.0907
  173DOPC  H15Y21164   3.981   2.265  14.741  1.8892  1.0241  1.7004
  173DOPC  C31621165   3.991   2.289  14.953  0.1890 -0.3342 -0.7508
  173DOPC  H16X21166   4.059   2.376  14.941  0.1689  0.5005  3.6919
  173DOPC  H16Y21167   3.913   2.295  15.031 -1.1238 -1.0951 -1.9478
  173DOPC  C31721168   4.084   2.185  15.002  0.2304 -0.5139 -0.3434
  173DOPC  H17X21169   4.055   2.092  14.947 -2.1789  1.3142 -2.4202
  173DOPC  H17Y21170   4.185   2.202  14.960  0.2212 -0.1395 -0.2113
  173DOPC  C31821171   4.090   2.177  15.153 -0.0095  0.2664  0.0098
  173DOPC  H18X21172   3.998   2.130  15.193 -0.1660  0.2255 -0.3923
  173DOPC  H18Y21173   4.177   2.121  15.193 -1.1071 -0.2504  1.8049
  173DOPC  H18Z21174   4.089   2.278  15.199  0.9781 -0.6897  2.2797
  174DOPC     N21175   5.304   2.369  12.543 -0.4672  0.4024 -0.3902
  174DOPC   C1221176   5.330   2.279  12.660  1.1173 -0.2217 -0.7420
  174DOPC  H12A21177   5.374   2.186  12.626 -0.4557 -0.9257 -0.9344
  174DOPC  H12B21178   5.237   2.250  12.706  0.4517  0.9202 -1.3315
  174DOPC   C1321179   5.222   2.486  12.581  0.6950 -0.2874 -0.1079
  174DOPC  H13A21180   5.226   2.556  12.500  1.4954  0.4273  0.5323
  174DOPC  H13B21181   5.121   2.457  12.606 -0.2256  1.2060 -1.8682
  174DOPC  H13C21182   5.269   2.528  12.669 -0.8486  0.4980  0.3755
  174DOPC   C1421183   5.220   2.290  12.445 -0.6769  0.2687 -0.5016
  174DOPC  H14A21184   5.275   2.223  12.380 -3.9694 -1.3441 -1.8524
  174DOPC  H14B21185   5.145   2.242  12.506 -0.2325  0.3671  0.1363
  174DOPC  H14C21186   5.164   2.360  12.385 -1.6314 -0.2708 -0.2588
  174DOPC   C1521187   5.426   2.420  12.469  0.5238 -0.5004 -0.5851
  174DOPC  H15A21188   5.402   2.496  12.397  0.9029  0.0301 -0.1622
  174DOPC  H15B21189   5.480   2.337  12.427  0.6837 -1.6830  1.7467
  174DOPC  H15C21190   5.495   2.460  12.542 -1.3698 -1.6482  2.0200
  174DOPC   C1121191   5.425   2.344  12.763 -0.6044  0.5721  0.2665
  174DOPC  H11A21192   5.472   2.263  12.822 -0.2879  1.7971  1.7550
  174DOPC  H11B21193   5.516   2.387  12.715 -0.1128 -0.2197  0.4687
  174DOPC     P21194   5.258   2.398  12.956 -0.1892  0.1441 -0.0963
  174DOPC   O1321195   5.127   2.449  12.905  0.3896 -0.0657  0.0514
  174DOPC   O1421196   5.306   2.448  13.086  0.6230  0.0926  0.3683
  174DOPC   O1221197   5.356   2.434  12.843 -0.0670 -0.6667  0.2795
  174DOPC   O1121198   5.243   2.236  12.956 -0.5039  0.0749  0.0394
  174DOPC    C121199   5.133   2.184  13.026 -0.1543  0.1636 -0.3130
  174DOPC    HA21200   5.082   2.119  12.953 -0.4883  1.1359 -0.9665
  174DOPC    HB21201   5.060   2.262  13.057 -0.1501  0.0169  0.0796
  174DOPC    C221202   5.178   2.082  13.137  0.5908 -0.0454 -0.3305
  174DOPC    HS21203   5.092   2.017  13.167 -0.8084  1.0581 -1.7972
  174DOPC   O2121204   5.249   2.142  13.249 -0.2299  0.2342  0.0432
  174DOPC   C2121205   5.163   2.206  13.330 -0.1261  0.3806 -0.0283
  174DOPC   O2221206   5.043   2.186  13.332 -0.4692  0.0718  0.2098
  174DOPC   C2221207   5.248   2.303  13.414 -0.8229 -0.0338  0.8638
  174DOPC   H2R21208   5.279   2.386  13.346  0.1817  0.1880  1.5823
  174DOPC   H2S21209   5.341   2.253  13.445 -1.1098  0.4959  2.6544
  174DOPC    C321210   5.273   1.979  13.069  0.2222 -0.5383 -0.4628
  174DOPC    HX21211   5.361   2.032  13.026  0.1913 -0.0275  0.1043
  174DOPC    HY21212   5.217   1.929  12.987 -2.1919  2.6656 -0.9380
  174DOPC   O3121213   5.333   1.887  13.162 -0.5235 -0.1880 -0.2028
  174DOPC   C3121214   5.252   1.788  13.203  0.1374  0.6189  0.9295
  174DOPC   O3221215   5.138   1.773  13.168  0.5232 -0.1948 -0.5677
  174DOPC   C3221216   5.333   1.688  13.293  0.1275  0.2216 -0.1260
  174DOPC   H2X21217   5.336   1.584  13.256 -0.5570  0.1600 -0.0240
  174DOPC   H2Y21218   5.439   1.722  13.284 -0.3167  1.4426 -1.0523
  174DOPC   C2321219   5.171   2.380  13.525 -0.8565 -0.3357  0.2350
  174DOPC   H3R21220   5.067   2.401  13.494 -0.3918 -0.6308 -1.6477
  174DOPC   H3S21221   5.216   2.481  13.535 -3.0658  0.6221  1.0499
  174DOPC   C2421222   5.197   2.311  13.660  1.0558  0.1401 -0.5133
  174DOPC   H4R21223   5.182   2.387  13.739  3.3952 -1.2604  1.4115
  174DOPC   H4S21224   5.302   2.278  13.677  1.1273 -0.6022 -2.1428
  174DOPC   C2521225   5.099   2.201  13.696  0.8037 -0.2332  0.4919
  174DOPC   H5R21226   5.119   2.150  13.792  1.3062 -0.0660  0.4760
  174DOPC   H5S21227   5.099   2.125  13.614 -4.1500  0.7115 -0.7485
  174DOPC   C2621228   4.948   2.251  13.702  0.9786 -0.6037 -0.6073
  174DOPC   H6R21229   4.890   2.157  13.714 -0.7904  0.2522 -2.0112
  174DOPC   H6S21230   4.914   2.298  13.607 -3.5973 -1.8880  0.1550
  174DOPC   C2721231   4.916   2.331  13.836  0.1431 -0.2018 -0.1775
  174DOPC   H7R21232   4.842   2.409  13.811  0.0127 -0.6138 -1.1025
  174DOPC   H7S21233   5.010   2.386  13.860 -0.6933  0.7772  1.0208
  174DOPC   C2821234   4.863   2.253  13.952  0.7033  0.0721  0.6425
  174DOPC   H8R21235   4.837   2.150  13.917  0.0703  0.6760 -0.7697
  174DOPC   H8S21236   4.766   2.297  13.985 -1.1786 -1.4712 -2.3413
  174DOPC   C2921237   4.957   2.237  14.060  0.5278  0.0172 -0.0779
  174DOPC   H9R21238   5.062   2.241  14.026  0.9091  1.8525  1.1841
  174DOPC  C21021239   4.924   2.231  14.188  0.4473 -0.2158  0.0716
  174DOPC  H10R21240   5.006   2.224  14.261  0.4923  1.6327  0.2275
  174DOPC  C21121241   4.789   2.248  14.249 -0.1353 -0.4811 -0.4218
  174DOPC  H11R21242   4.704   2.230  14.180 -0.2845  0.1289 -0.4059
  174DOPC  H11S21243   4.790   2.356  14.276  1.9324  0.0729 -2.3666
  174DOPC  C21221244   4.755   2.147  14.364 -0.0446  0.7427  0.2782
  174DOPC  H12R21245   4.782   2.048  14.322  3.6255  1.2691  1.0494
  174DOPC  H12S21246   4.647   2.143  14.391 -0.3110 -1.1854 -0.8941
  174DOPC  C21321247   4.832   2.154  14.497  0.0460 -0.2721  0.2372
  174DOPC  H13R21248   4.807   2.249  14.547  0.0042 -0.8367  1.3074
  174DOPC  H13S21249   4.941   2.164  14.477 -0.1174  0.9324 -0.1157
  174DOPC  C21421250   4.790   2.044  14.594 -0.0368  0.2972  0.0759
  174DOPC  H14R21251   4.823   1.948  14.549 -0.7848 -1.2089  2.5601
  174DOPC  H14S21252   4.681   2.048  14.614  0.2047  0.9086  1.3599
  174DOPC  C21521253   4.862   2.062  14.731  0.1909  0.1198  0.3835
  174DOPC  H15R21254   4.848   2.162  14.776 -0.1891  0.2425 -0.0023
  174DOPC  H15S21255   4.971   2.052  14.709  0.4625  1.9999  0.7511
  174DOPC  C21621256   4.828   1.954  14.834 -0.1908  0.2350  0.0065
  174DOPC  H16R21257   4.808   1.858  14.781  1.6556 -0.3141  0.2187
  174DOPC  H16S21258   4.744   1.967  14.906 -1.2942 -0.1168 -1.1692
  174DOPC  C21721259   4.943   1.935  14.936  0.4994  0.3766  0.0996
  174DOPC  H17R21260   4.956   2.034  14.983 -0.2749  1.1273 -1.1933
  174DOPC  H17S21261   5.038   1.911  14.885  0.6984 -0.7606  0.9731
  174DOPC  C21821262   4.922   1.829  15.043 -0.0599  0.3920 -0.2816
  174DOPC  H18R21263   4.906   1.732  14.992  1.6233  1.8553 -3.9282
  174DOPC  H18S21264   4.833   1.853  15.106  0.4493 -3.4981  2.2353
  174DOPC  H18T21265   5.013   1.815  15.105 -0.1391 -0.7026 -0.3978
  174DOPC   C3321266   5.280   1.679  13.430 -0.0287  0.6001 -0.4496
  174DOPC   H3X21267   5.200   1.602  13.440  0.5963  0.2174  2.7036
  174DOPC   H3Y21268   5.253   1.782  13.463 -0.8343  0.6180 -1.1363
  174DOPC   C3421269   5.381   1.612  13.521 -0.3818 -0.4304  0.4914
  174DOPC   H4X21270   5.485   1.642  13.498  0.0956 -2.0133  0.4272
  174DOPC   H4Y21271   5.376   1.501  13.515 -1.2422 -0.5474  2.4332
  174DOPC   C3521272   5.353   1.657  13.664  0.9322  0.5657 -0.3896
  174DOPC   H5X21273   5.243   1.641  13.673  0.8355  1.5569  0.2528
  174DOPC   H5Y21274   5.371   1.765  13.680 -0.1070  0.5670  1.0437
  174DOPC   C3621275   5.427   1.586  13.778 -0.1658 -0.1950 -0.4249
  174DOPC   H6X21276   5.391   1.481  13.774  0.3354 -0.3471 -1.7376
  174DOPC   H6Y21277   5.533   1.568  13.750 -0.2413 -1.1413 -0.1293
  174DOPC   C3721278   5.412   1.650  13.911  0.3242  0.0467 -0.0284
  174DOPC   H7X21279   5.458   1.751  13.905  0.6038  0.0759  1.9508
  174DOPC   H7Y21280   5.303   1.665  13.918  0.3620 -0.1025  0.9783
  174DOPC   C3821281   5.457   1.570  14.036  0.2331 -0.0095 -1.1321
  174DOPC   H8X21282   5.430   1.463  14.028  0.5771 -0.2249  0.3880
  174DOPC   H8Y21283   5.399   1.627  14.113  1.3181  0.1987 -0.4552
  174DOPC   C3921284   5.606   1.573  14.054 -0.7263 -0.1873  0.4476
  174DOPC   H9X21285   5.663   1.585  13.961  0.2229 -0.9796  0.9030
  174DOPC  C31021286   5.679   1.572  14.167 -0.6053  0.6238 -0.1399
  174DOPC  H10X21287   5.789   1.579  14.160 -0.7493  1.9121 -1.8238
  174DOPC  C31121288   5.625   1.550  14.309  0.0431 -0.1738 -0.7887
  174DOPC  H11X21289   5.691   1.476  14.359 -1.6775 -0.2073  1.6324
  174DOPC  H11Y21290   5.526   1.500  14.309 -0.8211  1.1787  2.9034
  174DOPC  C31221291   5.629   1.682  14.393  0.4383  1.2016  0.4615
  174DOPC  H12X21292   5.541   1.745  14.365 -2.2769 -1.5058  2.2688
  174DOPC  H12Y21293   5.718   1.744  14.370  1.1339  0.3741  0.8599
  174DOPC  C31321294   5.627   1.661  14.541  0.6074 -0.3564 -0.3613
  174DOPC  H13X21295   5.545   1.591  14.567 -0.3808 -0.2855 -2.9889
  174DOPC  H13Y21296   5.720   1.613  14.581  1.1854  0.1039 -1.1318
  174DOPC  C31421297   5.612   1.783  14.636 -0.0252  0.0953  0.0587
  174DOPC  H14X21298   5.661   1.873  14.594  1.7452 -0.7826  0.1447
  174DOPC  H14Y21299   5.502   1.798  14.642 -0.0330 -0.1339  0.5023
  174DOPC  C31521300   5.695   1.770  14.769  0.1727 -0.3485 -0.2140
  174DOPC  H15X21301   5.802   1.797  14.752 -0.2219  1.6059  0.1033
  174DOPC  H15Y21302   5.689   1.661  14.789 -3.2656 -0.3815 -0.7845
  174DOPC  C31621303   5.634   1.849  14.889 -0.4058  0.2737 -0.5696
  174DOPC  H16X21304   5.659   1.955  14.868  1.3817  0.2411  1.0670
  174DOPC  H16Y21305   5.526   1.841  14.911 -0.2055 -0.7908  0.1118
  174DOPC  C31721306   5.724   1.819  15.010 -0.1421 -0.6325  0.2759
  174DOPC  H17X21307   5.761   1.715  15.018  2.2461  0.0857 -0.6106
  174DOPC  H17Y21308   5.823   1.865  14.992 -0.3818 -0.3220 -0.2690
  174DOPC  C31821309   5.666   1.854  15.147  0.3109  0.4246  0.7537
  174DOPC  H18X21310   5.743   1.881  15.222  0.3591 -0.5960  1.0784
  174DOPC  H18Y21311   5.601   1.944  15.140  0.4946  0.3944 -2.3033
  174DOPC  H18Z21312   5.603   1.768  15.179  0.1066  0.7506  1.2609
  175DOPC     N21313   5.268   5.213  12.593 -0.3369  0.3059 -0.1466
  175DOPC   C1221314   5.225   5.098  12.682  0.5381  0.1208  0.0493
  175DOPC  H12A21315   5.296   5.078  12.760  1.1829  0.1831 -0.5163
  175DOPC  H12B21316   5.212   5.011  12.619 -0.8838 -0.0567  0.5425
  175DOPC   C1321317   5.191   5.207  12.470  0.5392 -0.0021 -0.4532
  175DOPC  H13A21318   5.233   5.147  12.390 -1.9006 -1.2342 -0.8877
  175DOPC  H13B21319   5.103   5.150  12.492 -0.4337  1.5543 -0.1439
  175DOPC  H13C21320   5.159   5.305  12.437  3.0147  0.9318 -0.3085
  175DOPC   C1421321   5.411   5.203  12.552  0.0243 -0.0045 -0.0940
  175DOPC  H14A21322   5.480   5.196  12.635 -1.5191  1.1658  1.3597
  175DOPC  H14B21323   5.416   5.117  12.486 -2.4916 -1.1834  1.1188
  175DOPC  H14C21324   5.439   5.292  12.497  2.2777 -0.8979 -0.5113
  175DOPC   C1521325   5.240   5.343  12.662 -0.3961 -0.0582 -0.7667
  175DOPC  H15A21326   5.309   5.358  12.743 -0.9043 -0.0268 -0.3323
  175DOPC  H15B21327   5.135   5.339  12.689 -0.7590  2.1963 -1.6049
  175DOPC  H15C21328   5.247   5.429  12.598 -1.2520  0.5513 -0.0635
  175DOPC   C1121329   5.093   5.111  12.765 -0.2536  0.2963 -0.0453
  175DOPC  H11A21330   5.081   5.010  12.811 -0.5167  0.8314  1.0945
  175DOPC  H11B21331   5.121   5.181  12.847 -1.0333  0.2413  0.2757
  175DOPC     P21332   4.888   5.265  12.769 -0.1971 -0.5234  0.1195
  175DOPC   O1321333   4.766   5.288  12.696 -0.3151  0.8290  0.5665
  175DOPC   O1421334   4.969   5.384  12.811 -0.7567  0.4474 -0.1339
  175DOPC   O1221335   4.977   5.157  12.693 -0.4036  0.2522 -0.3775
  175DOPC   O1121336   4.852   5.177  12.891 -0.4378 -0.1690  0.2800
  175DOPC    C121337   4.782   5.050  12.886  0.1231 -0.5910 -0.2789
  175DOPC    HA21338   4.858   4.973  12.862  0.7998  0.1244 -0.4541
  175DOPC    HB21339   4.698   5.052  12.813  0.2623  0.7746 -0.4174
  175DOPC    C221340   4.725   5.013  13.025 -0.2527 -0.2555  0.5960
  175DOPC    HS21341   4.698   4.906  13.029  1.1521 -0.5997  2.2205
  175DOPC   O2121342   4.617   5.108  13.045 -0.3856  0.0379 -0.3410
  175DOPC   C2121343   4.523   5.067  13.119 -0.1723 -0.7477  0.0894
  175DOPC   O2221344   4.515   4.952  13.165  0.1864  0.2063 -0.3078
  175DOPC   C2221345   4.428   5.184  13.158 -0.6840  0.3695  0.7772
  175DOPC   H2R21346   4.385   5.222  13.063 -0.1360 -0.2770  0.2589
  175DOPC   H2S21347   4.497   5.262  13.196  2.8801 -0.5763 -3.0407
  175DOPC    C321348   4.837   5.038  13.128 -0.3854 -0.1108  0.0685
  175DOPC    HX21349   4.849   5.148  13.138 -0.5785 -0.2036  1.5204
  175DOPC    HY21350   4.938   5.002  13.099 -0.1955  0.8333 -0.4806
  175DOPC   O3121351   4.806   4.979  13.255  0.0795  0.2502  0.3744
  175DOPC   C3121352   4.850   4.854  13.278  0.0474 -0.2912  0.4770
  175DOPC   O3221353   4.916   4.787  13.197 -0.3321  0.4161 -0.4718
  175DOPC   C3221354   4.808   4.813  13.420  0.1420  0.0609 -0.3595
  175DOPC   H2X21355   4.737   4.728  13.414  1.2278 -0.9638  0.5987
  175DOPC   H2Y21356   4.899   4.776  13.473 -0.4258  0.1786  0.7269
  175DOPC   C2321357   4.321   5.142  13.265 -0.6180  0.1171  0.0665
  175DOPC   H3R21358   4.256   5.057  13.235 -0.3279 -0.1232  0.1219
  175DOPC   H3S21359   4.263   5.236  13.277 -1.5592  0.2249 -4.0688
  175DOPC   C2421360   4.381   5.120  13.408  0.2223  0.2331 -0.1144
  175DOPC   H4R21361   4.473   5.179  13.429  0.8206 -0.4612 -0.7356
  175DOPC   H4S21362   4.409   5.012  13.410 -0.0690  0.0439 -2.6204
  175DOPC   C2521363   4.269   5.148  13.513 -0.4135  0.0384 -0.6161
  175DOPC   H5R21364   4.182   5.087  13.480  0.2967 -0.9759 -0.6940
  175DOPC   H5S21365   4.233   5.252  13.512  0.7634  0.5510  1.8727
  175DOPC   C2621366   4.304   5.115  13.662  0.1290 -0.7288 -0.1919
  175DOPC   H6R21367   4.310   5.007  13.689  0.9279 -0.3886  1.0961
  175DOPC   H6S21368   4.217   5.145  13.724 -0.1470 -0.1293 -0.8629
  175DOPC   C2721369   4.428   5.181  13.723 -0.6224  0.0870 -0.8934
  175DOPC   H7R21370   4.419   5.290  13.703 -0.9104  0.2367  0.0036
  175DOPC   H7S21371   4.519   5.151  13.668  0.2298 -0.6568  0.8294
  175DOPC   C2821372   4.458   5.139  13.872  0.1633 -0.0915  0.5230
  175DOPC   H8R21373   4.371   5.162  13.938  1.9762  2.5257  2.1697
  175DOPC   H8S21374   4.546   5.203  13.891  0.2537  0.3263 -1.1286
  175DOPC   C2921375   4.496   5.000  13.903 -0.2063 -0.4061 -0.0790
  175DOPC   H9R21376   4.509   4.935  13.815 -0.0375 -2.2186  1.2259
  175DOPC  C21021377   4.494   4.939  14.026  0.3826 -0.1478  0.2223
  175DOPC  H10R21378   4.520   4.833  14.030 -1.9259 -0.8294 -0.9758
  175DOPC  C21121379   4.458   5.020  14.156  0.3126  0.1905 -0.1942
  175DOPC  H11R21380   4.351   5.046  14.171  1.0809  2.8839  1.3693
  175DOPC  H11S21381   4.499   5.121  14.135  0.4355 -0.3824 -3.0338
  175DOPC  C21221382   4.519   4.966  14.283  0.1160  0.7637  0.4796
  175DOPC  H12R21383   4.628   4.950  14.270 -0.2980 -1.6491 -0.6022
  175DOPC  H12S21384   4.479   4.863  14.297 -1.6495  1.2148 -0.7875
  175DOPC  C21321385   4.502   5.054  14.406  0.8689 -0.5781 -0.0160
  175DOPC  H13R21386   4.451   4.994  14.485 -0.8389  1.0194  0.1876
  175DOPC  H13S21387   4.452   5.152  14.387  2.1151  0.1123  0.1617
  175DOPC  C21421388   4.639   5.100  14.465  0.3573 -0.3203  0.4524
  175DOPC  H14R21389   4.701   5.151  14.388  0.8998 -2.6763 -0.7545
  175DOPC  H14S21390   4.695   5.013  14.507  1.5952 -0.3813 -1.2017
  175DOPC  C21521391   4.622   5.193  14.586 -0.2716 -0.1249  0.4065
  175DOPC  H15R21392   4.569   5.282  14.545  1.0355  0.7895  0.6596
  175DOPC  H15S21393   4.723   5.225  14.617  0.4977 -0.7788 -1.3059
  175DOPC  C21621394   4.553   5.130  14.710  0.4269 -0.4723 -0.3849
  175DOPC  H16R21395   4.580   5.023  14.713 -0.1103 -0.6364 -1.1681
  175DOPC  H16S21396   4.442   5.125  14.700  0.2089 -0.5564  1.6030
  175DOPC  C21721397   4.590   5.209  14.832 -0.5846  0.0861 -0.4666
  175DOPC  H17R21398   4.591   5.319  14.822  1.2781  0.0896 -0.5660
  175DOPC  H17S21399   4.695   5.185  14.856 -0.6129 -2.9691 -2.7263
  175DOPC  C21821400   4.496   5.170  14.946  0.2736 -0.4615  0.1202
  175DOPC  H18R21401   4.504   5.059  14.953  1.1925 -0.4102 -0.0744
  175DOPC  H18S21402   4.391   5.204  14.932  0.2340 -0.0870  1.2883
  175DOPC  H18T21403   4.521   5.223  15.040  0.2012  2.3732 -1.3472
  175DOPC   C3321404   4.741   4.927  13.498  0.3266  0.2758 -0.2993
  175DOPC   H3X21405   4.651   4.968  13.446 -0.0038 -0.0880 -0.0198
  175DOPC   H3Y21406   4.821   5.001  13.518 -1.0687  1.6097  0.6302
  175DOPC   C3421407   4.694   4.876  13.641  0.3044  0.2237 -0.6685
  175DOPC   H4X21408   4.590   4.836  13.643 -0.0053  1.0192  0.9929
  175DOPC   H4Y21409   4.690   4.965  13.708  5.4364  0.1031  0.1735
  175DOPC   C3521410   4.784   4.766  13.698  0.3788  0.0646 -0.7482
  175DOPC   H5X21411   4.889   4.802  13.702  0.4888 -0.0509 -2.1300
  175DOPC   H5Y21412   4.778   4.674  13.637 -0.5619 -1.2285  1.2031
  175DOPC   C3621413   4.752   4.714  13.841  0.5943 -0.4221 -0.8401
  175DOPC   H6X21414   4.728   4.800  13.906  1.1276 -0.3966 -0.6723
  175DOPC   H6Y21415   4.659   4.653  13.839 -0.1130  0.6267 -2.5957
  175DOPC   C3721416   4.865   4.632  13.902  0.2496  0.1606  0.3007
  175DOPC   H7X21417   4.864   4.533  13.852 -2.8308 -0.8108  2.0589
  175DOPC   H7Y21418   4.967   4.674  13.891 -1.2260  3.9546 -0.6157
  175DOPC   C3821419   4.842   4.609  14.051  0.4250  1.2245  0.4039
  175DOPC   H8X21420   4.915   4.537  14.094 -1.7488 -1.0408  0.5047
  175DOPC   H8Y21421   4.742   4.561  14.057 -0.2260  2.4272 -0.3891
  175DOPC   C3921422   4.850   4.733  14.139  0.5825 -0.0444 -0.3504
  175DOPC   H9X21423   4.881   4.821  14.080  1.4728  0.4748  0.8457
  175DOPC  C31021424   4.824   4.746  14.269  0.3558 -0.0518 -0.7994
  175DOPC  H10X21425   4.835   4.844  14.318  3.3564 -0.4346 -0.5141
  175DOPC  C31121426   4.784   4.626  14.362 -0.0545  0.4804 -0.7810
  175DOPC  H11X21427   4.875   4.564  14.358  0.5351  1.3773 -1.6894
  175DOPC  H11Y21428   4.715   4.559  14.306 -0.0403 -0.3832  0.2045
  175DOPC  C31221429   4.743   4.665  14.505 -0.2660 -0.0879 -0.4844
  175DOPC  H12X21430   4.667   4.590  14.538  2.0841 -2.4412 -0.0438
  175DOPC  H12Y21431   4.716   4.772  14.501  0.9721  0.2089 -1.4371
  175DOPC  C31321432   4.857   4.667  14.611 -0.0668  0.3895 -0.4703
  175DOPC  H13X21433   4.899   4.564  14.605  0.7122  0.7706 -3.1790
  175DOPC  H13Y21434   4.947   4.722  14.575  0.0278 -1.1895 -2.9241
  175DOPC  C31421435   4.829   4.698  14.756  0.6685  0.2987 -0.1949
  175DOPC  H14X21436   4.807   4.806  14.768  0.2629  0.0868  1.2300
  175DOPC  H14Y21437   4.733   4.650  14.784 -0.2754  1.1247 -1.8890
  175DOPC  C31521438   4.931   4.656  14.866  0.2645 -0.4950  0.6651
  175DOPC  H15X21439   5.015   4.727  14.852 -0.3367 -0.1991 -2.1762
  175DOPC  H15Y21440   4.965   4.553  14.841 -1.3513 -0.0948 -4.4624
  175DOPC  C31621441   4.867   4.657  15.005 -0.1837 -0.9250  0.3720
  175DOPC  H16X21442   4.801   4.746  14.995 -0.0563 -1.0348 -1.9763
  175DOPC  H16Y21443   4.790   4.577  15.015 -1.1408 -0.3809 -1.9461
  175DOPC  C31721444   4.979   4.649  15.108  0.6755 -0.3587  0.0353
  175DOPC  H17X21445   5.045   4.564  15.079 -0.1237 -0.9828 -0.0201
  175DOPC  H17Y21446   5.027   4.748  15.094  0.1099 -0.2093 -1.0133
  175DOPC  C31821447   4.937   4.623  15.255  0.2855 -0.0999  0.1329
  175DOPC  H18X21448   4.906   4.517  15.263  1.3904 -0.3771  0.9967
  175DOPC  H18Y21449   5.028   4.652  15.312  0.6906  2.0813 -1.5019
  175DOPC  H18Z21450   4.855   4.694  15.279 -0.5120 -1.2551  0.9016
  176DOPC     N21451   3.464   7.503  12.654 -0.9433  0.2584 -0.0716
  176DOPC   C1221452   3.440   7.501  12.810  0.0131 -0.0504  0.2700
  176DOPC  H12A21453   3.536   7.523  12.856  0.1069 -0.7940  0.4454
  176DOPC  H12B21454   3.404   7.402  12.833  0.0362 -0.3190 -0.8062
  176DOPC   C1321455   3.340   7.557  12.587 -0.7428  0.7253 -0.0301
  176DOPC  H13A21456   3.337   7.660  12.618  0.0204  1.6077 -2.6558
  176DOPC  H13B21457   3.353   7.556  12.480  0.2367 -1.6831  0.0568
  176DOPC  H13C21458   3.254   7.501  12.621 -0.9383  0.2721 -1.2336
  176DOPC   C1421459   3.477   7.361  12.614 -1.1865  0.2594  0.7749
  176DOPC  H14A21460   3.392   7.309  12.656  0.0027 -1.7896  0.8152
  176DOPC  H14B21461   3.473   7.353  12.507 -0.5253 -2.3124  0.8797
  176DOPC  H14C21462   3.569   7.319  12.654  0.1771  0.8384 -1.6039
  176DOPC   C1521463   3.577   7.585  12.614 -0.2255  0.0132 -0.2573
  176DOPC  H15A21464   3.566   7.688  12.645 -1.4853 -0.0823 -0.3481
  176DOPC  H15B21465   3.606   7.595  12.510  1.2450 -0.0783  0.1283
  176DOPC  H15C21466   3.664   7.552  12.669 -1.5214 -2.4178  0.4926
  176DOPC   C1121467   3.335   7.607  12.865  0.2871  0.3451 -0.0692
  176DOPC  H11A21468   3.239   7.565  12.828  1.1828  0.2837 -2.5007
  176DOPC  H11B21469   3.345   7.610  12.976 -2.0650  2.2345  0.1563
  176DOPC     P21470   3.475   7.821  12.870  0.1994  0.0728  0.0651
  176DOPC   O1321471   3.543   7.879  12.751  0.3931 -0.1214  0.6557
  176DOPC   O1421472   3.555   7.738  12.964 -0.3426 -0.3760  0.1410
  176DOPC   O1221473   3.353   7.737  12.817 -0.3934  0.4234 -0.3689
  176DOPC   O1121474   3.414   7.934  12.954 -0.1332  0.0758  0.2871
  176DOPC    C121475   3.315   7.929  13.051  0.4801 -0.4368 -0.4851
  176DOPC    HA21476   3.243   7.847  13.033  0.8598 -0.5603 -1.5496
  176DOPC    HB21477   3.261   8.026  13.046  0.5661  0.0730  4.3192
  176DOPC    C221478   3.375   7.902  13.192  0.3846 -0.5907 -0.0648
  176DOPC    HS21479   3.419   7.800  13.194 -0.3039 -0.9148 -0.7750
  176DOPC   O2121480   3.269   7.919  13.292  0.0627  0.0944  0.0765
  176DOPC   C2121481   3.229   8.042  13.329  0.4281  0.3011  0.6466
  176DOPC   O2221482   3.248   8.147  13.265 -0.0893  0.1903 -0.7274
  176DOPC   C2221483   3.130   8.036  13.443 -0.1292  0.4654 -0.4178
  176DOPC   H2R21484   3.164   7.958  13.515  0.1817  0.5683 -0.4510
  176DOPC   H2S21485   3.032   8.013  13.396 -1.1160  2.8391  0.3192
  176DOPC    C321486   3.501   7.999  13.221 -0.0128  0.2053 -0.1152
  176DOPC    HX21487   3.472   8.106  13.214 -1.1551 -0.1315 -0.7402
  176DOPC    HY21488   3.561   7.993  13.127 -0.2441  0.4016 -0.2798
  176DOPC   O3121489   3.573   7.971  13.341 -0.1783  0.6602  0.2032
  176DOPC   C3121490   3.684   8.044  13.356  0.4518  1.0806  0.2745
  176DOPC   O3221491   3.737   8.106  13.265  0.1149  0.1016 -0.2581
  176DOPC   C3221492   3.742   8.028  13.488 -0.0076 -0.1997  0.0865
  176DOPC   H2X21493   3.698   7.937  13.535 -1.3294  0.7723  0.7737
  176DOPC   H2Y21494   3.848   8.015  13.458  0.9497  2.3817  1.9885
  176DOPC   C2321495   3.112   8.171  13.510  0.0793 -0.0754 -0.0446
  176DOPC   H3R21496   3.098   8.247  13.429 -0.8295 -1.3422 -1.1238
  176DOPC   H3S21497   3.202   8.205  13.565 -0.0910 -2.8520  2.1642
  176DOPC   C2421498   2.984   8.169  13.590  0.2084  0.2744  0.1717
  176DOPC   H4R21499   2.902   8.117  13.537  0.6316 -0.1505 -0.0784
  176DOPC   H4S21500   2.933   8.267  13.602  0.4089  0.4962 -0.6599
  176DOPC   C2521501   3.012   8.116  13.729  0.1391  0.2106  0.0160
  176DOPC   H5R21502   3.096   8.170  13.778  0.5178  1.5587 -2.0193
  176DOPC   H5S21503   3.039   8.008  13.722 -3.0709 -0.6023 -1.6342
  176DOPC   C2621504   2.892   8.139  13.820 -0.3552  0.5153  0.0704
  176DOPC   H6R21505   2.851   8.242  13.813  0.5356  0.8419 -0.4412
  176DOPC   H6S21506   2.929   8.120  13.923 -3.0497 -1.7515  0.7326
  176DOPC   C2721507   2.784   8.027  13.810  0.9534 -0.2095  0.3653
  176DOPC   H7R21508   2.844   7.940  13.845 -0.4820 -0.1507  3.2699
  176DOPC   H7S21509   2.755   8.005  13.706 -0.2230  0.2097  0.5868
  176DOPC   C2821510   2.661   8.043  13.898  0.4799 -0.1012 -0.0693
  176DOPC   H8R21511   2.694   8.074  14.000 -0.9670  0.4892  0.2359
  176DOPC   H8S21512   2.620   7.941  13.909  0.0232 -0.0268 -0.9598
  176DOPC   C2921513   2.578   8.149  13.826  0.0056 -0.4960  0.7264
  176DOPC   H9R21514   2.565   8.127  13.719  3.2239 -1.1546  0.3700
  176DOPC  C21021515   2.539   8.271  13.872  0.1725 -0.4690  0.3819
  176DOPC  H10R21516   2.470   8.334  13.813  0.6214  1.4375  1.7848
  176DOPC  C21121517   2.570   8.334  14.006 -0.0290  0.6234  0.6472
  176DOPC  H11R21518   2.602   8.440  13.997  3.2492 -0.1916  1.3974
  176DOPC  H11S21519   2.661   8.283  14.044 -0.5448 -2.6364 -1.9758
  176DOPC  C21221520   2.465   8.328  14.111 -0.7106  0.1703 -0.6989
  176DOPC  H12R21521   2.394   8.243  14.100 -1.1977  0.5760 -0.7176
  176DOPC  H12S21522   2.399   8.415  14.091  0.8493  1.1740 -1.6462
  176DOPC  C21321523   2.530   8.329  14.255 -0.1059 -0.6201  0.2082
  176DOPC  H13R21524   2.617   8.398  14.261  0.2682 -1.1431  0.8891
  176DOPC  H13S21525   2.566   8.225  14.269  1.0018 -0.5396 -1.7154
  176DOPC  C21421526   2.421   8.359  14.354 -0.7680 -0.1779 -0.0665
  176DOPC  H14R21527   2.319   8.338  14.314 -0.8843  2.0421 -1.0810
  176DOPC  H14S21528   2.413   8.467  14.378 -1.8660 -0.7326  2.3219
  176DOPC  C21521529   2.434   8.283  14.486 -0.2485  0.3176  0.2512
  176DOPC  H15R21530   2.537   8.311  14.517 -0.8881  2.3263  0.6999
  176DOPC  H15S21531   2.428   8.174  14.464 -3.8574  0.3846  0.3369
  176DOPC  C21621532   2.322   8.329  14.577  0.5953  0.2671  0.3464
  176DOPC  H16R21533   2.222   8.326  14.530  0.6883 -0.0187  0.1623
  176DOPC  H16S21534   2.330   8.437  14.600  1.0108  0.6239 -1.3664
  176DOPC  C21721535   2.316   8.250  14.710  0.5783  0.1006  0.0715
  176DOPC  H17R21536   2.409   8.258  14.770  0.0999 -1.0317  1.0080
  176DOPC  H17S21537   2.302   8.147  14.671 -1.6668 -0.1858  1.3841
  176DOPC  C21821538   2.199   8.307  14.795  0.0883  0.2202  0.2539
  176DOPC  H18R21539   2.227   8.403  14.844  1.2002  0.6145 -1.0845
  176DOPC  H18S21540   2.159   8.233  14.866  2.1373  0.0694  1.3207
  176DOPC  H18T21541   2.108   8.329  14.735  1.3942 -1.6275 -2.6145
  176DOPC   C3321542   3.730   8.158  13.577  0.5651 -0.0288  0.4138
  176DOPC   H3X21543   3.740   8.248  13.513  0.4408 -0.6607 -0.5138
  176DOPC   H3Y21544   3.818   8.142  13.643 -1.2509  0.2467  3.0399
  176DOPC   C3421545   3.605   8.169  13.667 -0.2701 -0.0307  0.0269
  176DOPC   H4X21546   3.514   8.184  13.605 -0.7471 -0.7102  0.5595
  176DOPC   H4Y21547   3.626   8.258  13.729 -1.0240  0.8406 -0.9284
  176DOPC   C3521548   3.594   8.049  13.759  0.4916  0.0709  0.8965
  176DOPC   H5X21549   3.682   8.038  13.826  0.3925  0.0059  1.0164
  176DOPC   H5Y21550   3.582   7.953  13.703 -0.0348  0.5505  0.1760
  176DOPC   C3621551   3.479   8.051  13.857  0.1086  0.0958  0.1769
  176DOPC   H6X21552   3.385   8.093  13.816 -0.5111  1.6064  2.9337
  176DOPC   H6Y21553   3.459   7.947  13.890  1.5131  0.2028  1.4747
  176DOPC   C3721554   3.524   8.132  13.980  0.9001  0.4646  0.3492
  176DOPC   H7X21555   3.606   8.077  14.033  2.4694  1.6375 -0.7623
  176DOPC   H7Y21556   3.575   8.221  13.936 -1.1707  1.9014  0.6958
  176DOPC   C3821557   3.406   8.160  14.075 -0.6944  0.1323 -0.2520
  176DOPC   H8X21558   3.374   8.061  14.114 -1.8704  1.2842  1.9145
  176DOPC   H8Y21559   3.328   8.203  14.008  0.4689  0.3507 -1.5178
  176DOPC   C3921560   3.427   8.247  14.195 -0.2728  0.3328 -0.3161
  176DOPC   H9X21561   3.500   8.329  14.188 -1.7026  1.7409  0.6591
  176DOPC  C31021562   3.386   8.223  14.319  0.1734  0.5692  0.0127
  176DOPC  H10X21563   3.420   8.281  14.406 -0.9861 -2.0721  2.3413
  176DOPC  C31121564   3.316   8.099  14.362  0.1089  0.0600  0.2883
  176DOPC  H11X21565   3.378   8.016  14.324  1.1222  0.6318  0.6647
  176DOPC  H11Y21566   3.217   8.084  14.313  0.3702  0.3018 -0.3148
  176DOPC  C31221567   3.303   8.076  14.512  0.3248 -0.8610  0.3718
  176DOPC  H12X21568   3.402   8.083  14.562  0.4478  4.0794  0.0209
  176DOPC  H12Y21569   3.248   7.983  14.538  1.3575 -2.5764 -2.9893
  176DOPC  C31321570   3.226   8.191  14.575  0.0323  0.6680 -0.7554
  176DOPC  H13X21571   3.299   8.275  14.576  1.9139 -0.8922  0.5684
  176DOPC  H13Y21572   3.136   8.220  14.516 -0.3698  1.9871  0.4453
  176DOPC  C31421573   3.187   8.185  14.721 -0.0628 -0.2325  0.2700
  176DOPC  H14X21574   3.142   8.284  14.747  2.4306  0.7405  1.2298
  176DOPC  H14Y21575   3.114   8.102  14.731  0.2353 -0.5592 -0.2031
  176DOPC  C31521576   3.297   8.151  14.815  0.2042  0.4093 -0.6569
  176DOPC  H15X21577   3.370   8.235  14.816 -0.2511  0.8667  2.3887
  176DOPC  H15Y21578   3.343   8.053  14.790 -2.8161 -1.9137  2.0585
  176DOPC  C31621579   3.257   8.123  14.962 -0.1998  0.1032  0.0931
  176DOPC  H16X21580   3.225   8.218  15.010  0.8666  1.4702 -1.7143
  176DOPC  H16Y21581   3.176   8.048  14.971  1.0855 -1.0735  3.1060
  176DOPC  C31721582   3.375   8.073  15.049 -0.4651 -0.3657 -0.6493
  176DOPC  H17X21583   3.341   8.061  15.153  0.5782 -1.6228 -0.4336
  176DOPC  H17Y21584   3.392   7.967  15.020  1.3728  0.1258 -1.5331
  176DOPC  C31821585   3.507   8.150  15.059 -0.3466 -0.5463 -0.4863
  176DOPC  H18X21586   3.488   8.256  15.086 -0.7107 -0.9265  0.8168
  176DOPC  H18Y21587   3.576   8.113  15.138 -0.1716  0.6892 -0.0356
  176DOPC  H18Z21588   3.556   8.145  14.959  1.0818  0.7689  0.0912
  177DOPC     N21589   5.883   6.041  12.675  0.1051 -0.4246 -0.5530
  177DOPC   C1221590   6.003   6.065  12.761  0.8340 -0.3306  0.0236
  177DOPC  H12A21591   5.972   6.052  12.863 -0.0520 -1.0114 -0.3186
  177DOPC  H12B21592   6.025   6.171  12.752  0.1068 -0.3063 -2.1360
  177DOPC   C1321593   5.840   5.900  12.683  0.2526  0.1303  0.0244
  177DOPC  H13A21594   5.791   5.874  12.776 -0.3927  3.2898  0.6613
  177DOPC  H13B21595   5.774   5.870  12.603  0.4292 -0.9350  0.2611
  177DOPC  H13C21596   5.924   5.832  12.672  0.0986  0.1580 -1.4333
  177DOPC   C1421597   5.917   6.077  12.533 -0.1014  0.4134 -1.0223
  177DOPC  H14A21598   5.837   6.044  12.468  1.0200 -1.4846 -1.5231
  177DOPC  H14B21599   5.932   6.184  12.530 -1.4151  0.6374 -0.5853
  177DOPC  H14C21600   6.001   6.024  12.492  1.9989  3.2934 -0.7162
  177DOPC   C1521601   5.764   6.122  12.715 -0.0593 -0.1607  0.8431
  177DOPC  H15A21602   5.750   6.121  12.822  1.8502 -0.3018  1.1272
  177DOPC  H15B21603   5.685   6.081  12.654  1.0162 -2.0245  0.6272
  177DOPC  H15C21604   5.773   6.229  12.705  0.5632 -0.2946 -0.1645
  177DOPC   C1121605   6.131   5.986  12.725 -0.2767  0.7322  0.5662
  177DOPC  H11A21606   6.160   5.999  12.618 -0.2901 -0.8861  0.3375
  177DOPC  H11B21607   6.219   6.015  12.786  1.4135 -1.1146 -0.8281
  177DOPC     P21608   6.190   5.775  12.866  0.5020 -0.1756 -0.2808
  177DOPC   O1321609   6.333   5.782  12.829 -0.5455  0.3983 -0.1744
  177DOPC   O1421610   6.129   5.640  12.883  0.2051 -0.3938  0.1052
  177DOPC   O1221611   6.111   5.842  12.748  0.2915  0.0752 -0.6318
  177DOPC   O1121612   6.163   5.871  12.994 -0.0498  0.1944  0.5335
  177DOPC    C121613   6.233   5.859  13.116 -0.5821 -0.6856  0.0748
  177DOPC    HA21614   6.203   5.948  13.175 -1.4370 -0.5970 -0.4788
  177DOPC    HB21615   6.344   5.870  13.109 -0.3709 -0.0226  3.2207
  177DOPC    C221616   6.198   5.730  13.183  0.3256 -1.1123  0.1147
  177DOPC    HS21617   6.208   5.646  13.112  0.5216  0.9092 -2.3840
  177DOPC   O2121618   6.056   5.745  13.215  0.6442  0.3222 -0.1034
  177DOPC   C2121619   6.009   5.622  13.251 -0.7066  0.8037  0.6907
  177DOPC   O2221620   6.068   5.516  13.226  0.1091  0.0754 -0.8432
  177DOPC   C2221621   5.881   5.639  13.331  0.3225 -1.0759  0.1920
  177DOPC   H2R21622   5.800   5.660  13.258 -0.4364  0.1150  1.3229
  177DOPC   H2S21623   5.888   5.731  13.394 -1.9040  1.7126 -3.2567
  177DOPC    C321624   6.283   5.710  13.309 -0.2698  0.3352 -0.3380
  177DOPC    HX21625   6.383   5.687  13.266  0.5514 -0.1310  1.7356
  177DOPC    HY21626   6.251   5.617  13.361  1.1614  0.0510  0.0700
  177DOPC   O3121627   6.297   5.822  13.402 -0.4052 -0.1759 -0.3420
  177DOPC   C3121628   6.200   5.828  13.488  0.3574 -0.2739 -0.2036
  177DOPC   O3221629   6.116   5.743  13.500  0.1761  0.4363 -0.0044
  177DOPC   C3221630   6.218   5.945  13.578  0.0185  0.2990 -0.1785
  177DOPC   H2X21631   6.302   5.920  13.646  0.4007  0.2751 -0.6580
  177DOPC   H2Y21632   6.243   6.027  13.508  0.0769 -2.8834 -4.2279
  177DOPC   C2321633   5.841   5.514  13.403 -0.6008  0.0622  0.0203
  177DOPC   H3R21634   5.914   5.478  13.480 -1.6985  0.3557  1.2211
  177DOPC   H3S21635   5.826   5.439  13.323 -1.1234  0.5475 -0.3374
  177DOPC   C2421636   5.717   5.539  13.489  0.5074  0.0233  0.4012
  177DOPC   H4R21637   5.682   5.437  13.516  2.8310 -1.0631 -0.4344
  177DOPC   H4S21638   5.638   5.590  13.430  0.3029  1.1242  1.5842
  177DOPC   C2521639   5.735   5.625  13.610  0.4296 -0.3318  0.3046
  177DOPC   H5R21640   5.770   5.724  13.573 -2.2317 -0.2894 -2.5031
  177DOPC   H5S21641   5.818   5.584  13.672  0.8548  1.5762  1.0629
  177DOPC   C2621642   5.603   5.653  13.686 -0.2582 -0.6568 -0.0905
  177DOPC   H6R21643   5.529   5.675  13.606  0.0662  1.8823  0.2089
  177DOPC   H6S21644   5.609   5.745  13.748  1.7550 -1.1474  0.5209
  177DOPC   C2721645   5.552   5.529  13.759  0.2757 -0.5097 -0.2757
  177DOPC   H7R21646   5.632   5.478  13.817  0.6823  0.5053  0.0827
  177DOPC   H7S21647   5.529   5.460  13.676 -0.1490  1.6033 -2.0054
  177DOPC   C2821648   5.421   5.558  13.836 -0.0088  0.1574  0.0584
  177DOPC   H8R21649   5.362   5.464  13.844  1.4777 -0.7972  0.1392
  177DOPC   H8S21650   5.363   5.634  13.779  4.0639  2.4246 -1.4807
  177DOPC   C2921651   5.454   5.628  13.968  0.0422  0.3150 -0.0413
  177DOPC   H9R21652   5.536   5.701  13.967 -0.1936  0.5899 -1.4158
  177DOPC  C21021653   5.396   5.607  14.088 -0.8261 -0.5478 -0.4910
  177DOPC  H10R21654   5.415   5.679  14.169  1.7339 -2.6109  0.9160
  177DOPC  C21121655   5.289   5.506  14.117  0.5147  0.1301 -0.0562
  177DOPC  H11R21656   5.282   5.424  14.042 -1.9053  0.2197 -0.0151
  177DOPC  H11S21657   5.187   5.549  14.113  0.7581  0.8481  0.9243
  177DOPC  C21221658   5.306   5.440  14.252  0.0778 -0.3148 -0.3173
  177DOPC  H12R21659   5.403   5.392  14.277 -0.6536 -2.0387 -0.6177
  177DOPC  H12S21660   5.227   5.363  14.265 -0.0451 -0.4139 -1.5122
  177DOPC  C21321661   5.298   5.533  14.372 -0.4746  0.1774 -0.5617
  177DOPC  H13R21662   5.211   5.600  14.364 -1.3014 -0.6819  0.7320
  177DOPC  H13S21663   5.380   5.606  14.387 -1.1441  0.6925  0.7797
  177DOPC  C21421664   5.290   5.453  14.508 -0.3724 -1.1027 -0.2476
  177DOPC  H14R21665   5.330   5.350  14.505 -2.4984 -2.0549  1.7629
  177DOPC  H14S21666   5.180   5.444  14.523 -0.8013  0.3207 -2.0473
  177DOPC  C21521667   5.356   5.523  14.626  0.2347  0.5957 -0.8496
  177DOPC  H15R21668   5.314   5.626  14.627  0.3173  0.6316 -1.0431
  177DOPC  H15S21669   5.466   5.527  14.608  0.0797  1.7009 -1.6762
  177DOPC  C21621670   5.312   5.447  14.751  0.0045 -1.0754  1.4044
  177DOPC  H16R21671   5.345   5.342  14.734 -0.3088 -0.9761  0.0433
  177DOPC  H16S21672   5.201   5.458  14.753  0.2185  1.8506  1.0050
  177DOPC  C21721673   5.366   5.509  14.873 -0.6901  0.3655  0.1714
  177DOPC  H17R21674   5.324   5.450  14.957  0.1884  0.8937  0.9894
  177DOPC  H17S21675   5.321   5.611  14.868 -2.0266  0.0541  3.3728
  177DOPC  C21821676   5.520   5.522  14.886  0.0326 -0.9404  0.2433
  177DOPC  H18R21677   5.570   5.430  14.848 -1.2052 -1.0713 -1.1667
  177DOPC  H18S21678   5.549   5.537  14.992 -0.1768  0.7684  0.0826
  177DOPC  H18T21679   5.554   5.605  14.819  0.1706 -0.5698  0.7701
  177DOPC   C3321680   6.092   5.985  13.670  0.0478 -0.2200  0.1046
  177DOPC   H3X21681   5.998   5.995  13.613 -0.2865  1.6241  0.9388
  177DOPC   H3Y21682   6.116   6.089  13.700  1.0171 -1.3573  3.8346
  177DOPC   C3421683   6.081   5.890  13.789  0.7809 -0.4933 -0.8135
  177DOPC   H4X21684   6.182   5.879  13.834  0.5850 -1.8074 -0.6462
  177DOPC   H4Y21685   6.049   5.788  13.758 -2.6036  0.1357  0.1983
  177DOPC   C3521686   5.970   5.932  13.878  0.6231 -0.8982 -0.3199
  177DOPC   H5X21687   5.872   5.927  13.828 -0.1843 -0.4459  1.1568
  177DOPC   H5Y21688   5.984   6.038  13.908 -2.6894 -0.9365  1.8566
  177DOPC   C3621689   5.943   5.841  13.998 -0.0600 -0.1961 -0.0655
  177DOPC   H6X21690   6.034   5.792  14.040 -1.6079 -2.2331  1.1235
  177DOPC   H6Y21691   5.879   5.897  14.069  0.3240 -0.9816  0.9213
  177DOPC   C3721692   5.825   5.743  13.973  0.2087 -0.6541  0.5641
  177DOPC   H7X21693   5.740   5.808  13.945  0.4258 -0.2477  0.8356
  177DOPC   H7Y21694   5.829   5.671  13.889 -1.9288 -0.9113  0.6297
  177DOPC   C3821695   5.788   5.663  14.099 -0.1905  0.0656  0.2829
  177DOPC   H8X21696   5.699   5.604  14.067 -1.0490  2.3308 -1.7972
  177DOPC   H8Y21697   5.737   5.733  14.169  0.1143  0.3732  0.1978
  177DOPC   C3921698   5.883   5.575  14.170 -0.7807 -0.1064  0.0858
  177DOPC   H9X21699   5.874   5.581  14.280 -1.2478 -2.1199  0.2040
  177DOPC  C31021700   5.965   5.474  14.119 -0.0095  0.7297 -0.2774
  177DOPC  H10X21701   6.035   5.414  14.179  0.2382 -0.9605 -2.1573
  177DOPC  C31121702   5.966   5.427  13.975 -0.4628 -0.8532  0.3156
  177DOPC  H11X21703   5.905   5.490  13.906 -0.6221 -1.3031  0.0416
  177DOPC  H11Y21704   5.912   5.332  13.959 -0.9120 -0.3487 -1.4155
  177DOPC  C31221705   6.114   5.418  13.926  0.0054  0.3517  0.0766
  177DOPC  H12X21706   6.180   5.352  13.987 -0.7313  0.3093  0.8449
  177DOPC  H12Y21707   6.161   5.518  13.920 -0.0627  0.5101  1.6736
  177DOPC  C31321708   6.107   5.370  13.781  0.2645 -0.2081  0.0057
  177DOPC  H13X21709   6.159   5.272  13.775  0.1644 -0.2873  0.3936
  177DOPC  H13Y21710   6.003   5.354  13.744  0.4803  0.3981 -0.8841
  177DOPC  C31421711   6.179   5.464  13.684  1.0463 -0.2478 -0.7661
  177DOPC  H14X21712   6.154   5.408  13.591 -0.6829 -3.0526  1.2187
  177DOPC  H14Y21713   6.119   5.558  13.692  2.4017  0.6759 -1.1834
  177DOPC  C31521714   6.323   5.485  13.705 -0.3359 -0.0732 -0.5754
  177DOPC  H15X21715   6.354   5.506  13.809 -0.2127  1.2004 -0.8522
  177DOPC  H15Y21716   6.357   5.571  13.643 -0.2404  2.1191  2.3074
  177DOPC  C31621717   6.408   5.368  13.668  0.1933 -1.2727 -0.0979
  177DOPC  H16X21718   6.355   5.277  13.703 -1.9100 -0.4908 -1.1012
  177DOPC  H16Y21719   6.421   5.355  13.559  1.0085 -1.7768  0.0510
  177DOPC  C31721720   6.550   5.375  13.732  0.2022 -0.2829  0.0622
  177DOPC  H17X21721   6.620   5.332  13.658  1.1017  0.8054  0.2678
  177DOPC  H17Y21722   6.577   5.482  13.741  0.7515 -0.3790 -0.4173
  177DOPC  C31821723   6.565   5.307  13.870 -0.0072 -0.3178  0.5305
  177DOPC  H18X21724   6.552   5.197  13.860  0.6253 -0.2147 -1.8423
  177DOPC  H18Y21725   6.667   5.320  13.911  0.2466  0.5210 -0.3474
  177DOPC  H18Z21726   6.505   5.353  13.952 -0.5419 -0.5342  0.2705
  178DOPC     N21727   4.255   5.468  12.539  1.0372  0.2342  0.4297
  178DOPC   C1221728   4.357   5.542  12.616  0.4372  0.6237 -0.0509
  178DOPC  H12A21729   4.453   5.498  12.594  0.6843  1.6905 -1.2026
  178DOPC  H12B21730   4.345   5.534  12.723  1.8705  1.6021  0.2238
  178DOPC   C1321731   4.271   5.317  12.554 -0.1283 -0.2469  0.1898
  178DOPC  H13A21732   4.255   5.294  12.658  0.6487  1.4743  0.7168
  178DOPC  H13B21733   4.206   5.268  12.482 -0.0038 -1.8418  1.1040
  178DOPC  H13C21734   4.365   5.272  12.525 -0.7311 -1.4051 -0.0674
  178DOPC   C1421735   4.273   5.514  12.400  0.5018 -0.0565  0.0230
  178DOPC  H14A21736   4.378   5.508  12.375  1.2644 -0.1125  2.9011
  178DOPC  H14B21737   4.222   5.456  12.324  0.6117  1.8349 -1.5690
  178DOPC  H14C21738   4.250   5.618  12.390 -1.1184 -0.1958  1.7452
  178DOPC   C1521739   4.110   5.504  12.583 -0.0436  0.4662 -0.4236
  178DOPC  H15A21740   4.087   5.456  12.677  1.8933 -1.7988 -1.0157
  178DOPC  H15B21741   4.040   5.460  12.514  0.4992 -2.1707  0.5853
  178DOPC  H15C21742   4.098   5.611  12.589  0.9222  0.5642  0.0876
  178DOPC   C1121743   4.372   5.697  12.598 -0.1724 -0.7888  0.2501
  178DOPC  H11A21744   4.466   5.745  12.631  0.6637 -2.4197  0.2953
  178DOPC  H11B21745   4.385   5.714  12.489  2.4219 -3.3294  0.0649
  178DOPC     P21746   4.246   5.859  12.768 -0.5040  0.0489  0.0712
  178DOPC   O1321747   4.106   5.896  12.789 -0.2101 -0.6073 -0.2329
  178DOPC   O1421748   4.344   5.972  12.766 -0.7497 -0.0604  0.2669
  178DOPC   O1221749   4.253   5.779  12.632  0.0293 -0.0285 -0.5386
  178DOPC   O1121750   4.294   5.756  12.879  0.3119 -0.6967  0.1358
  178DOPC    C121751   4.193   5.668  12.933 -0.0516 -0.5581 -0.8328
  178DOPC    HA21752   4.236   5.565  12.937  0.5771 -0.2555  0.6322
  178DOPC    HB21753   4.099   5.669  12.874  0.4356 -1.8511 -1.6918
  178DOPC    C221754   4.156   5.717  13.076  0.3242  0.2046 -0.6085
  178DOPC    HS21755   4.158   5.828  13.071  0.3675  0.3282  1.5031
  178DOPC   O2121756   4.258   5.669  13.170 -0.1995 -0.5395  0.0709
  178DOPC   C2121757   4.297   5.758  13.260  0.1570 -0.2903  0.3040
  178DOPC   O2221758   4.252   5.872  13.274 -0.6104 -0.2389  0.3595
  178DOPC   C2221759   4.397   5.692  13.357  0.4042  0.2543 -0.0431
  178DOPC   H2R21760   4.496   5.705  13.308  0.4034  2.4404  0.4144
  178DOPC   H2S21761   4.376   5.583  13.352  0.0922  0.2165  1.5534
  178DOPC    C321762   4.021   5.664  13.114 -0.2791  0.1494  0.9132
  178DOPC    HX21763   4.016   5.554  13.103 -0.1183  0.1807  0.5011
  178DOPC    HY21764   3.946   5.716  13.051 -0.0339  0.2372  0.6909
  178DOPC   O3121765   3.993   5.701  13.258 -0.3466 -0.3847  0.2150
  178DOPC   C3121766   3.870   5.729  13.286  0.2016  0.9258  0.2034
  178DOPC   O3221767   3.776   5.727  13.207  0.1608  0.0142 -0.5119
  178DOPC   C3221768   3.854   5.743  13.432  0.5409  0.4502 -0.5385
  178DOPC   H2X21769   3.883   5.650  13.484 -0.5716  0.5222  0.2461
  178DOPC   H2Y21770   3.919   5.822  13.474  1.0356  0.7275 -1.7728
  178DOPC   C2321771   4.395   5.745  13.498 -0.2660  0.5331 -0.0250
  178DOPC   H3R21772   4.312   5.815  13.521 -0.5419  0.2777 -0.2336
  178DOPC   H3S21773   4.492   5.797  13.515 -0.2086  0.5486 -0.3907
  178DOPC   C2421774   4.382   5.628  13.600  0.7612  0.3297  0.0570
  178DOPC   H4R21775   4.465   5.557  13.584  0.7264  0.9386 -3.4292
  178DOPC   H4S21776   4.285   5.577  13.581  0.6421 -0.0366  1.4810
  178DOPC   C2521777   4.379   5.682  13.748 -0.6195  0.5359 -0.0799
  178DOPC   H5R21778   4.289   5.745  13.763 -2.0007 -0.8968 -1.8655
  178DOPC   H5S21779   4.471   5.743  13.763 -0.5235  0.4997 -0.4884
  178DOPC   C2621780   4.378   5.575  13.858 -0.2698  0.1781  0.5757
  178DOPC   H6R21781   4.466   5.510  13.838 -0.7814  0.0672 -1.4570
  178DOPC   H6S21782   4.282   5.518  13.861  0.2055 -0.6303  2.5243
  178DOPC   C2721783   4.389   5.643  13.996 -0.1795  0.3932 -0.1538
  178DOPC   H7R21784   4.331   5.738  13.988  0.2640  0.6898  0.1294
  178DOPC   H7S21785   4.494   5.680  14.002 -0.8157  2.1388  1.1135
  178DOPC   C2821786   4.338   5.564  14.117  0.6742  0.8209  0.4902
  178DOPC   H8R21787   4.236   5.526  14.095  0.7433  0.6246  0.5050
  178DOPC   H8S21788   4.328   5.643  14.195 -2.0663 -0.4576  1.5626
  178DOPC   C2921789   4.429   5.444  14.152  0.2925 -0.2052  0.5852
  178DOPC   H9R21790   4.417   5.353  14.091  0.1629 -0.3234  0.7836
  178DOPC  C21021791   4.513   5.444  14.264 -0.5604  0.2217 -0.3009
  178DOPC  H10R21792   4.569   5.350  14.274 -0.3052  0.2070 -1.6143
  178DOPC  C21121793   4.541   5.545  14.374  0.5759 -0.1792 -0.4459
  178DOPC  H11R21794   4.514   5.504  14.473 -1.1019  2.0896  0.1192
  178DOPC  H11S21795   4.479   5.636  14.355 -0.8004 -1.2746 -1.4119
  178DOPC  C21221796   4.688   5.581  14.370  0.0245 -0.6325  0.5784
  178DOPC  H12R21797   4.695   5.677  14.426  1.5675 -0.7412  0.5957
  178DOPC  H12S21798   4.722   5.610  14.269  1.3499 -0.2491  1.1140
  178DOPC  C21321799   4.782   5.491  14.453  0.1506  0.2212  0.2907
  178DOPC  H13R21800   4.826   5.424  14.375  1.1169  1.5427 -0.3299
  178DOPC  H13S21801   4.719   5.428  14.519  1.0600  0.7597  1.7346
  178DOPC  C21421802   4.889   5.555  14.537  0.7367 -0.0621  0.4806
  178DOPC  H14R21803   4.941   5.629  14.473  0.1352 -1.0343 -1.1968
  178DOPC  H14S21804   4.963   5.477  14.564  0.0218 -0.1630  2.3157
  178DOPC  C21521805   4.838   5.629  14.663 -0.4430  0.3890  0.3901
  178DOPC  H15R21806   4.773   5.558  14.717 -0.0860 -0.8346 -0.7384
  178DOPC  H15S21807   4.773   5.715  14.637  1.3776  2.0929  1.1549
  178DOPC  C21621808   4.956   5.681  14.741 -0.1616  0.3953 -0.0649
  178DOPC  H16R21809   5.013   5.751  14.676  2.0455 -1.0629  0.1489
  178DOPC  H16S21810   5.028   5.598  14.760  1.3650  1.5022 -0.7934
  178DOPC  C21721811   4.910   5.747  14.869  0.1147 -0.4044 -0.2157
  178DOPC  H17R21812   4.857   5.672  14.930 -0.7336 -0.0572 -0.5142
  178DOPC  H17S21813   4.832   5.825  14.853 -0.5904 -1.0528  0.0124
  178DOPC  C21821814   5.033   5.789  14.959 -0.9150  0.0719  0.6765
  178DOPC  H18R21815   5.020   5.760  15.066 -2.3928 -1.6444  0.0871
  178DOPC  H18S21816   5.046   5.899  14.946  0.5309  0.1804  2.6560
  178DOPC  H18T21817   5.118   5.733  14.917 -1.3379  0.7351 -1.1627
  178DOPC   C3321818   3.709   5.772  13.470  0.0805  0.5787 -0.5271
  178DOPC   H3X21819   3.641   5.687  13.450  0.5381 -0.0960  0.6768
  178DOPC   H3Y21820   3.676   5.859  13.409 -0.8893  1.7476  1.5712
  178DOPC   C3421821   3.698   5.801  13.618 -0.2271 -0.1270 -0.1002
  178DOPC   H4X21822   3.740   5.901  13.639  2.4208 -1.2585  0.3621
  178DOPC   H4Y21823   3.761   5.732  13.678 -1.0377  1.0221  2.1891
  178DOPC   C3521824   3.560   5.778  13.676 -0.0189 -0.5953 -0.5976
  178DOPC   H5X21825   3.555   5.670  13.702  0.7171 -0.5741 -0.3317
  178DOPC   H5Y21826   3.480   5.803  13.604  1.9226  0.6823 -2.4380
  178DOPC   C3621827   3.530   5.858  13.805 -0.3745 -0.5756 -0.2545
  178DOPC   H6X21828   3.561   5.962  13.784  2.1780 -0.9680  1.1719
  178DOPC   H6Y21829   3.420   5.848  13.819 -0.7513  0.0738 -2.4421
  178DOPC   C3721830   3.606   5.796  13.929 -0.8604 -0.2661  0.0490
  178DOPC   H7X21831   3.591   5.687  13.943  0.7534 -0.2401  2.6603
  178DOPC   H7Y21832   3.717   5.804  13.922 -0.7341 -0.6034  1.4356
  178DOPC   C3821833   3.550   5.858  14.057 -0.6262 -0.4637 -0.1705
  178DOPC   H8X21834   3.565   5.782  14.137  0.9097  0.5057  0.5056
  178DOPC   H8Y21835   3.440   5.878  14.060 -1.2993 -3.6804 -0.0735
  178DOPC   C3921836   3.619   5.987  14.084 -0.7318  0.7470 -0.0476
  178DOPC   H9X21837   3.679   6.009  13.994 -0.5586 -0.5606 -0.2726
  178DOPC  C31021838   3.611   6.067  14.194 -0.1401  0.5016  0.3348
  178DOPC  H10X21839   3.680   6.153  14.194  0.6957 -0.0833 -2.1313
  178DOPC  C31121840   3.523   6.057  14.317  0.0399  0.1909 -0.0359
  178DOPC  H11X21841   3.423   6.019  14.287  0.1031 -0.9625  1.1365
  178DOPC  H11Y21842   3.496   6.159  14.352 -0.0894 -0.0881  0.7012
  178DOPC  C31221843   3.582   5.986  14.436  0.0932 -0.3517 -0.0014
  178DOPC  H12X21844   3.517   6.022  14.519  1.0520  1.9603 -0.1777
  178DOPC  H12Y21845   3.690   6.013  14.440  0.1944 -0.7105 -0.2352
  178DOPC  C31321846   3.571   5.829  14.433  0.0168  0.0042  0.1074
  178DOPC  H13X21847   3.472   5.795  14.396  0.2082 -0.5328  0.0854
  178DOPC  H13Y21848   3.642   5.800  14.353 -0.2945  1.6533 -0.8197
  178DOPC  C31421849   3.607   5.764  14.569  0.3893 -0.0329  0.3525
  178DOPC  H14X21850   3.709   5.799  14.593  0.9495 -0.5907 -1.0964
  178DOPC  H14Y21851   3.541   5.801  14.650  0.9187 -0.3761  0.9395
  178DOPC  C31521852   3.613   5.608  14.570 -0.2327 -0.5914 -0.4344
  178DOPC  H15X21853   3.637   5.569  14.671  0.8241  0.4911 -0.2440
  178DOPC  H15Y21854   3.693   5.601  14.493  0.1848 -0.1802 -0.0442
  178DOPC  C31621855   3.483   5.532  14.529 -0.5795  0.3379 -0.2671
  178DOPC  H16X21856   3.406   5.559  14.605 -0.8406  0.4443 -0.5690
  178DOPC  H16Y21857   3.438   5.566  14.433 -1.7996  1.0590  0.5213
  178DOPC  C31721858   3.511   5.380  14.526 -0.0165  0.8179  0.1758
  178DOPC  H17X21859   3.564   5.366  14.429  0.4758  2.1865  0.2216
  178DOPC  H17Y21860   3.571   5.346  14.613 -0.7930 -1.1451 -0.0020
  178DOPC  C31821861   3.385   5.286  14.524 -0.2107 -0.5996  0.3933
  178DOPC  H18X21862   3.310   5.299  14.443  0.0357  2.1900  0.5380
  178DOPC  H18Y21863   3.420   5.180  14.528 -1.4833 -1.1458 -1.5969
  178DOPC  H18Z21864   3.340   5.303  14.624  1.4010  0.1417  1.0375
  179DOPC     N21865   7.291   5.040  12.494 -0.2779  0.6573 -0.3003
  179DOPC   C1221866   7.260   4.978  12.625 -0.1077  0.0862 -0.3433
  179DOPC  H12A21867   7.244   4.873  12.609 -0.0100 -0.1416  0.9674
  179DOPC  H12B21868   7.171   5.027  12.660 -1.1749 -2.1604  0.2512
  179DOPC   C1321869   7.167   5.039  12.408 -0.0769 -0.0217 -0.2002
  179DOPC  H13A21870   7.090   5.101  12.453 -1.1781 -0.1335 -1.8511
  179DOPC  H13B21871   7.184   5.072  12.307 -2.8513  0.1477 -0.6808
  179DOPC  H13C21872   7.126   4.940  12.395 -1.0608  0.2609  0.6083
  179DOPC   C1421873   7.401   4.975  12.417 -0.9927  0.5238  0.7786
  179DOPC  H14A21874   7.383   4.875  12.380 -1.2221  0.6437  0.5623
  179DOPC  H14B21875   7.423   5.032  12.328  0.3200 -1.5094 -0.2810
  179DOPC  H14C21876   7.488   4.962  12.479  1.0453  0.5574 -1.8684
  179DOPC   C1521877   7.322   5.188  12.520  0.4034 -0.0267 -0.6028
  179DOPC  H15A21878   7.240   5.240  12.567 -0.0923  0.2420 -1.7202
  179DOPC  H15B21879   7.348   5.246  12.432  3.5986 -1.4158 -0.7205
  179DOPC  H15C21880   7.401   5.187  12.593 -1.0814  1.1906  1.1320
  179DOPC   C1121881   7.367   4.993  12.739  0.3972 -0.0607 -0.1385
  179DOPC  H11A21882   7.375   5.103  12.756  1.3358 -0.2708  0.9161
  179DOPC  H11B21883   7.335   4.943  12.833  2.6489  0.9008  1.2466
  179DOPC     P21884   7.628   5.020  12.679 -0.3361  0.0045  0.3531
  179DOPC   O1321885   7.602   5.167  12.684  0.0072  0.6935 -0.4658
  179DOPC   O1421886   7.690   4.974  12.553 -0.4722  0.0145 -0.0923
  179DOPC   O1221887   7.488   4.941  12.701  0.4062 -0.1232  0.0501
  179DOPC   O1121888   7.716   4.983  12.808  0.3013 -0.5040 -0.5313
  179DOPC    C121889   7.663   4.930  12.932  0.2375  1.0779 -0.2571
  179DOPC    HA21890   7.738   4.861  12.976  0.9835  0.3177 -2.6018
  179DOPC    HB21891   7.565   4.877  12.924 -0.9453  2.9727  0.7651
  179DOPC    C221892   7.623   5.048  13.028 -0.9295 -0.3069 -0.2021
  179DOPC    HS21893   7.561   5.119  12.971  1.5664  1.3714 -1.0211
  179DOPC   O2121894   7.748   5.114  13.062  0.2544  0.3878 -0.0042
  179DOPC   C2121895   7.747   5.208  13.145  0.2496 -0.7064  0.0954
  179DOPC   O2221896   7.646   5.264  13.189 -0.0323 -0.6172  0.1068
  179DOPC   C2221897   7.895   5.249  13.178  0.6307  0.2076 -0.1709
  179DOPC   H2R21898   7.902   5.351  13.220 -0.9902 -0.4040  1.7584
  179DOPC   H2S21899   7.951   5.236  13.083  0.0553 -1.0059 -0.3660
  179DOPC    C321900   7.543   5.002  13.159  0.3634 -0.1773 -0.4990
  179DOPC    HX21901   7.458   4.942  13.121  0.2973  1.6057 -3.4555
  179DOPC    HY21902   7.495   5.093  13.201  1.0502  0.9842 -2.1167
  179DOPC   O3121903   7.622   4.925  13.257  0.1023  0.8054  0.1123
  179DOPC   C3121904   7.571   4.883  13.368  0.2305 -0.0263 -0.1474
  179DOPC   O3221905   7.459   4.907  13.408 -0.3473  0.0980  0.1773
  179DOPC   C3221906   7.670   4.807  13.443 -0.4066  0.3652 -0.1762
  179DOPC   H2X21907   7.617   4.721  13.490 -1.1296 -0.2075 -1.9674
  179DOPC   H2Y21908   7.747   4.760  13.380  1.1925  2.2338  0.2867
  179DOPC   C2321909   7.952   5.148  13.281 -0.0528 -0.4627  0.3048
  179DOPC   H3R21910   7.954   5.051  13.227  0.5070  0.4928 -1.4694
  179DOPC   H3S21911   7.888   5.142  13.372  0.7860 -3.8421  0.7951
  179DOPC   C2421912   8.091   5.188  13.334  0.0456 -0.2525 -0.0258
  179DOPC   H4R21913   8.085   5.282  13.393 -1.4622 -1.1106  1.2774
  179DOPC   H4S21914   8.153   5.196  13.242  1.6195  2.6212  1.1632
  179DOPC   C2521915   8.150   5.080  13.429 -0.8571 -0.2426 -0.4104
  179DOPC   H5R21916   8.261   5.090  13.433 -0.6740 -1.8418 -0.8644
  179DOPC   H5S21917   8.132   4.975  13.398 -2.7385  0.2098 -0.9458
  179DOPC   C2621918   8.103   5.104  13.576 -0.3968  0.0457  0.7184
  179DOPC   H6R21919   7.998   5.069  13.587 -0.8167  1.1126  0.2420
  179DOPC   H6S21920   8.101   5.213  13.598 -0.8267 -0.3104  2.5599
  179DOPC   C2721921   8.195   5.033  13.681 -0.5982 -0.1927  0.2700
  179DOPC   H7R21922   8.300   5.042  13.648 -0.4648 -1.2498  0.3807
  179DOPC   H7S21923   8.169   4.925  13.677  0.2283 -0.4113  0.7828
  179DOPC   C2821924   8.184   5.095  13.824 -0.0934  0.1575  0.7133
  179DOPC   H8R21925   8.078   5.082  13.854  0.0969 -0.2522  1.2301
  179DOPC   H8S21926   8.211   5.201  13.810  0.0294  0.3630  2.3208
  179DOPC   C2921927   8.271   5.026  13.930 -0.7447 -0.3298 -1.0507
  179DOPC   H9R21928   8.333   5.098  13.986 -2.6794  0.7577 -0.1977
  179DOPC  C21021929   8.267   4.900  13.977  0.2346 -0.0606  0.0133
  179DOPC  H10R21930   8.348   4.868  14.045  1.3947  0.5682 -1.0210
  179DOPC  C21121931   8.166   4.798  13.926  0.0436 -0.1387  0.1737
  179DOPC  H11R21932   8.209   4.727  13.852  0.6694  0.1373  0.2742
  179DOPC  H11S21933   8.084   4.853  13.875 -0.6295 -0.0912  1.2752
  179DOPC  C21221934   8.080   4.723  14.034 -0.3269  1.0047 -0.6991
  179DOPC  H12R21935   8.030   4.802  14.093 -0.1325  2.1550 -2.0169
  179DOPC  H12S21936   8.146   4.675  14.110  0.8584  3.0030 -0.3844
  179DOPC  C21321937   7.985   4.627  13.981  0.4822 -0.1755 -0.3900
  179DOPC  H13R21938   8.049   4.542  13.950  1.0300 -0.9321  2.5317
  179DOPC  H13S21939   7.941   4.669  13.888  0.3456 -0.0193 -0.2548
  179DOPC  C21421940   7.888   4.560  14.077  0.4653  0.6935 -0.6773
  179DOPC  H14R21941   7.809   4.510  14.018 -0.7130  1.5437  0.1270
  179DOPC  H14S21942   7.835   4.647  14.123  0.3882 -0.1514  0.8858
  179DOPC  C21521943   7.947   4.461  14.169  0.9403 -0.2698 -0.1408
  179DOPC  H15R21944   8.009   4.512  14.246  0.3092 -1.6073  1.2948
  179DOPC  H15S21945   8.016   4.394  14.113  1.3641  1.6423 -2.0875
  179DOPC  C21621946   7.829   4.391  14.239 -0.3639  0.7280 -0.2652
  179DOPC  H16R21947   7.790   4.329  14.156 -0.3229 -0.9194  0.8772
  179DOPC  H16S21948   7.748   4.457  14.276 -0.6209  0.1572  0.2225
  179DOPC  C21721949   7.872   4.299  14.359 -0.5064 -0.4629 -0.3147
  179DOPC  H17R21950   7.948   4.353  14.418 -1.1225 -1.1283  1.1373
  179DOPC  H17S21951   7.923   4.212  14.312 -0.5308  0.0870 -1.3806
  179DOPC  C21821952   7.754   4.241  14.441 -0.0500  0.2765 -0.2981
  179DOPC  H18R21953   7.715   4.151  14.389 -0.4726  0.4061 -0.2077
  179DOPC  H18S21954   7.678   4.322  14.451  0.3990  0.7476 -0.6604
  179DOPC  H18T21955   7.801   4.204  14.535  0.9279  0.5215 -0.6898
  179DOPC   C3321956   7.753   4.886  13.553 -0.4845 -0.7827 -1.2498
  179DOPC   H3X21957   7.802   4.978  13.517 -1.9752  0.9167  0.8555
  179DOPC   H3Y21958   7.839   4.825  13.587 -0.4604  0.3073  0.7727
  179DOPC   C3421959   7.666   4.905  13.676 -0.2411  0.3170 -0.1671
  179DOPC   H4X21960   7.602   4.816  13.692  0.6503 -0.4571 -0.7823
  179DOPC   H4Y21961   7.594   4.990  13.672 -1.1964 -0.5118 -1.5499
  179DOPC   C3521962   7.755   4.936  13.805 -0.1117  0.3461  0.7075
  179DOPC   H5X21963   7.824   5.018  13.777 -0.4171 -0.0477 -1.3152
  179DOPC   H5Y21964   7.817   4.844  13.815  1.5165  1.2539 -0.4907
  179DOPC   C3621965   7.689   4.977  13.935  0.2745  0.4481  0.0003
  179DOPC   H6X21966   7.621   5.063  13.915  0.4939  0.5055 -0.5088
  179DOPC   H6Y21967   7.626   4.891  13.965 -1.0490  1.9126  1.6613
  179DOPC   C3721968   7.796   5.023  14.040  0.4179 -0.5214  0.2983
  179DOPC   H7X21969   7.874   4.944  14.047  0.3873 -0.5765  0.0057
  179DOPC   H7Y21970   7.841   5.116  13.999 -1.7072 -1.4017 -4.6667
  179DOPC   C3821971   7.733   5.049  14.177 -0.1153 -0.7279 -0.1470
  179DOPC   H8X21972   7.630   5.088  14.159 -1.0936 -1.5278  2.9790
  179DOPC   H8Y21973   7.796   5.122  14.232  0.3015 -1.2578  0.0844
  179DOPC   C3921974   7.707   4.921  14.244 -1.0450 -0.2350 -0.2306
  179DOPC   H9X21975   7.770   4.843  14.198 -0.2446 -0.6934  1.5429
  179DOPC  C31021976   7.630   4.889  14.349  0.2587  0.4871  0.3456
  179DOPC  H10X21977   7.636   4.789  14.394 -0.2402  0.2167 -0.1751
  179DOPC  C31121978   7.552   4.992  14.420  0.1996  0.3893  1.1005
  179DOPC  H11X21979   7.473   4.947  14.484  0.5443 -3.4938 -0.8924
  179DOPC  H11Y21980   7.490   5.051  14.349 -2.3721 -1.3071  1.7669
  179DOPC  C31221981   7.634   5.094  14.501 -0.4030  0.0745 -0.0819
  179DOPC  H12X21982   7.562   5.178  14.510  1.0398  1.4677 -0.8775
  179DOPC  H12Y21983   7.721   5.142  14.451  0.7510  0.2143  1.9694
  179DOPC  C31321984   7.676   5.037  14.633 -0.1654 -0.1972 -0.8049
  179DOPC  H13X21985   7.589   4.980  14.672 -0.7806  0.9252 -0.4920
  179DOPC  H13Y21986   7.754   4.959  14.621  1.5707  1.5469 -1.4024
  179DOPC  C31421987   7.730   5.129  14.737  0.4600 -0.5937  0.2744
  179DOPC  H14X21988   7.815   5.191  14.700  1.6422 -1.8206  0.8386
  179DOPC  H14Y21989   7.645   5.195  14.766  0.0679 -0.6198 -0.7848
  179DOPC  C31521990   7.783   5.061  14.865  0.2380  0.1075  0.6131
  179DOPC  H15X21991   7.863   4.990  14.835  1.6050  1.7946  0.0365
  179DOPC  H15Y21992   7.708   5.001  14.920  0.1405  0.9467  1.4329
  179DOPC  C31621993   7.848   5.167  14.950  0.0291  1.1852 -0.0103
  179DOPC  H16X21994   7.947   5.193  14.907  0.5488  0.0296  0.4433
  179DOPC  H16Y21995   7.768   5.244  14.954 -0.9685  0.1476  3.0975
  179DOPC  C31721996   7.875   5.126  15.098 -0.3853 -0.2035  0.5409
  179DOPC  H17X21997   7.783   5.086  15.145 -0.6774 -1.4976 -1.0605
  179DOPC  H17Y21998   7.949   5.043  15.098  3.1826  2.6817 -0.1737
  179DOPC  C31821999   7.942   5.240  15.180  0.2913 -0.0038  0.8075
  179DOPC  H18X22000   7.888   5.337  15.187  0.6991  0.2417  0.6483
  179DOPC  H18Y22001   7.974   5.217  15.283 -0.0478  0.2326  0.9672
  179DOPC  H18Z22002   8.038   5.247  15.125  1.3833 -2.5509  2.2194
  180DOPC     N22003   6.166   3.439  12.947 -0.0692 -0.2219  0.3549
  180DOPC   C1222004   6.169   3.522  13.073 -0.3124  0.8289  0.4500
  180DOPC  H12A22005   6.227   3.465  13.143 -0.7476  0.9750  0.9423
  180DOPC  H12B22006   6.067   3.538  13.105 -1.5107  1.5733 -3.1969
  180DOPC   C1322007   6.054   3.475  12.848 -0.4742  0.0238 -0.5931
  180DOPC  H13A22008   6.074   3.419  12.759  1.2793 -0.7261  0.2220
  180DOPC  H13B22009   5.956   3.442  12.878  0.1563 -2.5502 -1.1219
  180DOPC  H13C22010   6.046   3.582  12.837 -0.4706 -0.0490 -1.3194
  180DOPC   C1422011   6.139   3.296  12.989 -0.4892  0.0589 -0.0684
  180DOPC  H14A22012   6.105   3.291  13.091 -0.6161 -3.0855 -0.1718
  180DOPC  H14B22013   6.075   3.248  12.917 -1.0447 -0.3066  0.6595
  180DOPC  H14C22014   6.233   3.243  12.983  0.2718  1.3180  0.1757
  180DOPC   C1522015   6.300   3.426  12.881  0.8059  0.8423  0.2704
  180DOPC  H15A22016   6.290   3.366  12.792  1.6612  1.4110 -0.2240
  180DOPC  H15B22017   6.367   3.372  12.946  0.5847 -0.3537 -0.4794
  180DOPC  H15C22018   6.338   3.521  12.847  0.2000  0.2790 -2.1538
  180DOPC   C1122019   6.239   3.664  13.056 -0.1288  0.1491  0.0577
  180DOPC  H11A22020   6.227   3.712  13.155  0.9285 -3.2083  1.9604
  180DOPC  H11B22021   6.347   3.649  13.036 -0.0665  2.7669 -2.3037
  180DOPC     P22022   6.056   3.837  12.973  0.4769 -0.0827 -0.2723
  180DOPC   O1322023   5.979   3.854  12.852 -0.2742  0.1066  0.4098
  180DOPC   O1422024   6.106   3.960  13.040 -0.9655 -0.6044 -1.1169
  180DOPC   O1222025   6.191   3.748  12.953 -0.3869  0.5880 -0.1825
  180DOPC   O1122026   5.967   3.746  13.061  0.6375  0.1396 -0.8135
  180DOPC    C122027   5.851   3.801  13.123 -0.4067  0.3899  0.3940
  180DOPC    HA22028   5.778   3.722  13.149  1.1356 -0.5861  1.9635
  180DOPC    HB22029   5.801   3.867  13.049  0.7755 -1.2456 -2.0213
  180DOPC    C222030   5.883   3.880  13.253  0.0647  0.2851  0.1565
  180DOPC    HS22031   5.956   3.961  13.229 -0.3237  1.2913  2.1411
  180DOPC   O2122032   5.948   3.798  13.350  0.1774 -0.3615 -0.2790
  180DOPC   C2122033   6.033   3.852  13.441  0.0554  0.3333 -0.2518
  180DOPC   O2222034   6.068   3.968  13.446  0.0986 -0.2968 -0.6131
  180DOPC   C2222035   6.060   3.742  13.546  0.4248  0.7106  0.4616
  180DOPC   H2R22036   6.163   3.707  13.521  0.5091  1.4034 -0.2059
  180DOPC   H2S22037   5.987   3.659  13.542  0.3428  0.8253 -0.9542
  180DOPC    C322038   5.751   3.935  13.325  0.5448 -0.6300 -0.0613
  180DOPC    HX22039   5.698   3.989  13.243  1.1495 -1.1884 -0.8348
  180DOPC    HY22040   5.796   4.003  13.400  0.6600 -2.8599  2.0203
  180DOPC   O3122041   5.669   3.850  13.407  0.6258  0.2495  0.0976
  180DOPC   C3122042   5.564   3.793  13.349 -0.0627  0.4566 -0.3272
  180DOPC   O3222043   5.510   3.819  13.242 -0.6821 -0.2273  0.1543
  180DOPC   C3222044   5.513   3.686  13.446  0.2665 -0.6059  0.2371
  180DOPC   H2X22045   5.415   3.642  13.419  0.8385 -2.1789  0.6095
  180DOPC   H2Y22046   5.577   3.595  13.451 -1.2571 -1.8033 -0.9942
  180DOPC   C2322047   6.060   3.811  13.685  0.4964  0.0181 -0.0846
  180DOPC   H3R22048   5.970   3.876  13.685 -0.3341 -1.1117  0.1637
  180DOPC   H3S22049   6.147   3.877  13.706 -0.9333  2.1144 -0.4652
  180DOPC   C2422050   6.042   3.710  13.796  0.1490  0.0394  0.4608
  180DOPC   H4R22051   6.128   3.639  13.798 -0.7265 -1.0463  1.1947
  180DOPC   H4S22052   5.952   3.650  13.771 -1.2219  2.0762  0.3033
  180DOPC   C2522053   6.043   3.766  13.936  0.0132  0.1047  0.4025
  180DOPC   H5R22054   5.960   3.839  13.946  0.9194  1.1011  0.8442
  180DOPC   H5S22055   6.137   3.825  13.931 -1.0787  1.8688 -0.3030
  180DOPC   C2622056   6.018   3.672  14.050 -0.6220  0.5127 -0.7365
  180DOPC   H6R22057   6.088   3.588  14.034  1.1070  1.8358 -0.3688
  180DOPC   H6S22058   5.915   3.632  14.061  0.0656 -0.6521  2.9270
  180DOPC   C2722059   6.042   3.744  14.186  0.0726  0.2307 -0.9335
  180DOPC   H7R22060   5.976   3.833  14.192  1.3232  1.4040 -3.4302
  180DOPC   H7S22061   6.146   3.782  14.187 -0.3858  1.5205 -0.7364
  180DOPC   C2822062   6.014   3.661  14.318 -0.5801 -0.1756 -0.4403
  180DOPC   H8R22063   6.069   3.567  14.294 -0.4643 -0.6213  1.4158
  180DOPC   H8S22064   5.907   3.631  14.322 -1.4204  2.6466  0.0251
  180DOPC   C2922065   6.068   3.719  14.446  0.0240  0.8445  0.0832
  180DOPC   H9R22066   6.013   3.800  14.495  1.0863  0.0686  2.6899
  180DOPC  C21022067   6.188   3.694  14.497 -0.1101 -0.2125 -0.4866
  180DOPC  H10R22068   6.219   3.742  14.591 -0.4883 -0.0190 -0.4587
  180DOPC  C21122069   6.299   3.608  14.442 -0.1364 -0.4838  0.7945
  180DOPC  H11R22070   6.274   3.550  14.351 -0.5985  0.8167  0.0772
  180DOPC  H11S22071   6.325   3.525  14.513 -1.4840 -0.8478  0.8811
  180DOPC  C21222072   6.426   3.690  14.410 -0.1372  0.0280  0.3243
  180DOPC  H12R22073   6.510   3.617  14.409 -0.6895 -0.6341  0.7999
  180DOPC  H12S22074   6.446   3.760  14.493  0.5910  0.0574  0.1226
  180DOPC  C21322075   6.426   3.771  14.279 -0.2326  0.2169 -0.4145
  180DOPC  H13R22076   6.529   3.813  14.288  0.0273 -0.6516  0.9022
  180DOPC  H13S22077   6.346   3.848  14.276  0.7096  1.2707  0.5711
  180DOPC  C21422078   6.427   3.690  14.142 -0.1334 -0.3923 -0.6505
  180DOPC  H14R22079   6.323   3.654  14.129 -0.7790  0.7786  0.9257
  180DOPC  H14S22080   6.502   3.609  14.135  0.6211  0.2046  0.2413
  180DOPC  C21522081   6.466   3.777  14.021  0.2091  0.6399 -0.4586
  180DOPC  H15R22082   6.575   3.796  14.035  0.9804 -3.4420  0.3199
  180DOPC  H15S22083   6.417   3.876  14.030  0.1150  0.4288  2.1112
  180DOPC  C21622084   6.441   3.713  13.889  0.4025 -0.2770 -0.4272
  180DOPC  H16R22085   6.339   3.670  13.902  1.0890 -1.8422  0.0307
  180DOPC  H16S22086   6.514   3.631  13.871  3.0767  2.1407 -1.2045
  180DOPC  C21722087   6.453   3.807  13.764  0.4678  0.0724  0.3886
  180DOPC  H17R22088   6.554   3.853  13.768  2.2942 -3.2140 -2.2599
  180DOPC  H17S22089   6.377   3.886  13.772  1.8849  1.4841  0.4090
  180DOPC  C21822090   6.458   3.749  13.622 -0.1192  0.5330  0.2768
  180DOPC  H18R22091   6.558   3.703  13.609  0.6270  1.1037  3.1593
  180DOPC  H18S22092   6.443   3.820  13.538 -1.6208  0.6680  0.6313
  180DOPC  H18T22093   6.386   3.666  13.605  2.3775 -1.9410  1.0661
  180DOPC   C3322094   5.513   3.738  13.592 -0.2085 -0.1663  0.2332
  180DOPC   H3X22095   5.459   3.834  13.581 -1.8821 -1.1037 -0.0362
  180DOPC   H3Y22096   5.619   3.757  13.619 -0.1610 -1.1834  0.8376
  180DOPC   C3422097   5.451   3.659  13.707  0.1759  0.9597  0.1496
  180DOPC   H4X22098   5.484   3.553  13.695 -0.2747  0.8638 -0.2882
  180DOPC   H4Y22099   5.341   3.672  13.714  0.3543  1.5185  3.8837
  180DOPC   C3522100   5.499   3.720  13.841 -0.9676 -0.4191 -0.9574
  180DOPC   H5X22101   5.457   3.822  13.845 -0.1710 -0.1094 -0.0887
  180DOPC   H5Y22102   5.608   3.721  13.819 -0.0814  0.6961  2.7689
  180DOPC   C3622103   5.459   3.638  13.965 -0.8554  0.0177 -0.4865
  180DOPC   H6X22104   5.358   3.673  13.995 -0.1814 -0.5631  2.8647
  180DOPC   H6Y22105   5.448   3.538  13.918 -2.4694 -0.4068  0.7007
  180DOPC   C3722106   5.553   3.641  14.090  0.1606 -0.1847  0.0591
  180DOPC   H7X22107   5.652   3.618  14.047  0.5591 -0.1343  0.9358
  180DOPC   H7Y22108   5.550   3.747  14.123 -2.1263  0.1764 -1.0921
  180DOPC   C3822109   5.504   3.541  14.194 -0.8378  0.4511  0.3077
  180DOPC   H8X22110   5.485   3.441  14.150  0.4825  0.2016  0.2702
  180DOPC   H8Y22111   5.408   3.580  14.236 -0.1673  0.7534  1.5974
  180DOPC   C3922112   5.596   3.540  14.311 -0.9288  0.4552  0.3469
  180DOPC   H9X22113   5.614   3.638  14.356  0.2608  1.0713 -1.3822
  180DOPC  C31022114   5.675   3.443  14.355  0.5004 -0.3990  0.6708
  180DOPC  H10X22115   5.731   3.458  14.449  2.6650  2.9369 -0.9592
  180DOPC  C31122116   5.681   3.308  14.299 -0.0248 -0.0798 -0.2732
  180DOPC  H11X22117   5.602   3.298  14.222 -0.5077  0.5515  0.1408
  180DOPC  H11Y22118   5.658   3.236  14.381  0.6322  0.4417  0.3841
  180DOPC  C31222119   5.818   3.283  14.234  0.1736 -0.2507  0.7377
  180DOPC  H12X22120   5.841   3.175  14.221 -1.4964 -0.3897 -1.5877
  180DOPC  H12Y22121   5.897   3.306  14.309  1.5217 -2.4450  0.0878
  180DOPC  C31322122   5.853   3.364  14.108  0.2317  0.2092  0.5659
  180DOPC  H13X22123   5.805   3.464  14.114 -0.5802  0.0518 -2.1885
  180DOPC  H13Y22124   5.964   3.372  14.102  0.5341 -1.6807  2.1996
  180DOPC  C31422125   5.797   3.303  13.983  0.5575  0.4243 -0.0368
  180DOPC  H14X22126   5.846   3.203  13.977  0.6219  0.4296  0.3824
  180DOPC  H14Y22127   5.689   3.283  13.993  0.8087 -1.2186 -0.3700
  180DOPC  C31522128   5.824   3.389  13.863  0.1122 -0.3988 -0.0634
  180DOPC  H15X22129   5.931   3.394  13.836  0.5190 -0.9078  1.3514
  180DOPC  H15Y22130   5.800   3.495  13.884  2.0662  0.2847 -1.0718
  180DOPC  C31622131   5.750   3.334  13.743  0.7435 -0.3558 -0.0933
  180DOPC  H16X22132   5.783   3.229  13.729  1.2459 -0.1215 -0.7334
  180DOPC  H16Y22133   5.641   3.332  13.764  0.7316 -0.5477 -0.1694
  180DOPC  C31722134   5.785   3.409  13.618  0.8189  0.4606 -0.1212
  180DOPC  H17X22135   5.752   3.515  13.614 -0.5308  0.2242  2.6467
  180DOPC  H17Y22136   5.896   3.407  13.607  0.6912  1.5588 -2.1068
  180DOPC  C31822137   5.736   3.339  13.490 -0.3696  0.5942 -0.7084
  180DOPC  H18X22138   5.733   3.229  13.504  1.8499  0.4588 -1.0042
  180DOPC  H18Y22139   5.635   3.373  13.456 -0.5733 -0.0773 -0.7839
  180DOPC  H18Z22140   5.803   3.359  13.404  1.0611  1.9076  0.6479
  181DOPC     N22141   1.317   2.651  13.144  0.1531  0.5739 -0.5848
  181DOPC   C1222142   1.365   2.646  13.290  0.0892  0.1731 -0.3168
  181DOPC  H12A22143   1.287   2.619  13.360 -1.0137  1.1797 -1.1178
  181DOPC  H12B22144   1.398   2.745  13.320  1.9278  0.9206 -4.2212
  181DOPC   C1322145   1.213   2.764  13.129  0.5587 -0.0714  0.0548
  181DOPC  H13A22146   1.248   2.862  13.155 -2.5504  1.0780  0.3582
  181DOPC  H13B22147   1.204   2.768  13.021  0.7013  2.5366  0.0815
  181DOPC  H13C22148   1.116   2.744  13.173  0.9405 -1.1635  0.4335
  181DOPC   C1422149   1.257   2.512  13.105 -0.7905 -1.0559  0.5187
  181DOPC  H14A22150   1.179   2.487  13.176 -0.4443  3.0734  2.6724
  181DOPC  H14B22151   1.215   2.515  13.005  1.4480  0.9422 -0.4513
  181DOPC  H14C22152   1.335   2.438  13.107  0.7104  0.3172 -2.0509
  181DOPC   C1522153   1.417   2.686  13.043 -0.2070 -0.5250 -0.8465
  181DOPC  H15A22154   1.471   2.778  13.064 -1.3857 -0.1747  0.7806
  181DOPC  H15B22155   1.370   2.696  12.946 -0.3218 -3.8113 -1.2305
  181DOPC  H15C22156   1.484   2.601  13.033  0.0979 -0.4108  0.1354
  181DOPC   C1122157   1.485   2.544  13.313  1.1305 -0.1225  0.2566
  181DOPC  H11A22158   1.517   2.538  13.419  2.6122 -1.7846 -0.2357
  181DOPC  H11B22159   1.439   2.444  13.295 -1.7558  1.4738 -2.2243
  181DOPC     P22160   1.696   2.666  13.272 -0.0454  0.1066  0.4727
  181DOPC   O1322161   1.636   2.801  13.259  0.8743  0.7961  0.2201
  181DOPC   O1422162   1.821   2.648  13.197 -0.4530 -0.1452 -0.1691
  181DOPC   O1222163   1.598   2.552  13.226 -0.0692 -0.0384 -0.4004
  181DOPC   O1122164   1.721   2.654  13.424  0.6864 -0.2761  0.1568
  181DOPC    C122165   1.807   2.557  13.491  0.5288 -0.4391  0.2138
  181DOPC    HA22166   1.873   2.615  13.559  0.7715  0.0233 -0.4060
  181DOPC    HB22167   1.878   2.509  13.420 -0.4100  0.0547 -1.0791
  181DOPC    C222168   1.734   2.456  13.583 -0.5722  0.1666 -0.5816
  181DOPC    HS22169   1.672   2.390  13.519  0.0828 -0.4269 -0.6239
  181DOPC   O2122170   1.651   2.539  13.673 -0.2255 -0.0235 -0.2839
  181DOPC   C2122171   1.554   2.473  13.735  0.6332  0.6107 -0.2179
  181DOPC   O2222172   1.513   2.360  13.699  0.5909 -0.3872  0.4165
  181DOPC   C2222173   1.513   2.558  13.865  0.2240 -0.2036 -0.6922
  181DOPC   H2R22174   1.470   2.492  13.942 -0.9686 -2.2220 -2.9492
  181DOPC   H2S22175   1.435   2.630  13.832 -1.1705 -0.4194  1.9222
  181DOPC    C322176   1.825   2.355  13.665 -0.4910 -0.9904  0.6587
  181DOPC    HX22177   1.912   2.321  13.605 -1.4270 -2.9062  0.3245
  181DOPC    HY22178   1.753   2.274  13.688 -1.3000 -0.2725  0.7211
  181DOPC   O3122179   1.870   2.415  13.790  0.1132 -0.3769 -0.7520
  181DOPC   C3122180   1.995   2.459  13.791 -0.2871  0.1541 -0.2680
  181DOPC   O3222181   2.069   2.463  13.694  0.3634 -0.2240  0.6612
  181DOPC   C3222182   2.029   2.503  13.931  0.5520  0.3912 -0.4024
  181DOPC   H2X22183   1.955   2.580  13.963  0.0111 -0.6295  0.8885
  181DOPC   H2Y22184   2.007   2.414  13.993 -0.1529  0.5580 -0.3989
  181DOPC   C2322185   1.623   2.652  13.922 -0.5087 -0.2730 -1.2992
  181DOPC   H3R22186   1.659   2.720  13.842  0.8974  1.4615  0.6956
  181DOPC   H3S22187   1.714   2.592  13.946 -1.2453 -1.3551 -1.1659
  181DOPC   C2422188   1.586   2.723  14.051  0.0909 -0.0898 -0.7052
  181DOPC   H4R22189   1.567   2.648  14.130  1.1841 -0.8352 -1.1274
  181DOPC   H4S22190   1.492   2.780  14.033  0.4619  0.1036 -2.1954
  181DOPC   C2522191   1.684   2.828  14.104  0.0181 -0.4260 -0.0955
  181DOPC   H5R22192   1.716   2.888  14.016 -0.5093  0.4175  0.2692
  181DOPC   H5S22193   1.773   2.772  14.139 -0.8399 -0.7413  1.7214
  181DOPC   C2622194   1.619   2.906  14.216  0.6947 -0.0022 -0.0757
  181DOPC   H6R22195   1.629   2.847  14.309 -1.0915 -0.4605 -0.1535
  181DOPC   H6S22196   1.511   2.925  14.198  0.7723  0.1392 -0.4131
  181DOPC   C2722197   1.692   3.035  14.238  0.0725  0.6875 -0.0215
  181DOPC   H7R22198   1.677   3.106  14.153  0.2255  1.0782  0.2745
  181DOPC   H7S22199   1.801   3.012  14.236 -0.0888 -0.1780 -2.4943
  181DOPC   C2822200   1.647   3.114  14.358 -0.3503  0.0223 -0.1618
  181DOPC   H8R22201   1.649   3.040  14.441 -0.7242 -1.6073 -1.5473
  181DOPC   H8S22202   1.545   3.151  14.334  0.0377  1.7976  0.7351
  181DOPC   C2922203   1.733   3.229  14.393  0.3142 -0.2238 -0.1126
  181DOPC   H9R22204   1.715   3.321  14.335 -0.2197  1.1969  2.1907
  181DOPC  C21022205   1.822   3.230  14.489 -0.1127 -0.2463  0.0706
  181DOPC  H10R22206   1.887   3.319  14.491 -2.5756  1.7850 -2.4275
  181DOPC  C21122207   1.868   3.121  14.576 -0.0046  0.4374 -0.4406
  181DOPC  H11R22208   1.979   3.135  14.569 -0.2001  1.1651 -5.1940
  181DOPC  H11S22209   1.836   3.022  14.538 -2.4583  1.0105 -0.0417
  181DOPC  C21222210   1.809   3.138  14.718  0.1271 -0.1596  0.2348
  181DOPC  H12R22211   1.698   3.136  14.707  0.1237  0.9943 -0.0869
  181DOPC  H12S22212   1.831   3.237  14.763  0.8215 -0.5167  0.6988
  181DOPC  C21322213   1.867   3.038  14.817 -0.3286  0.4574  0.9823
  181DOPC  H13R22214   1.841   2.941  14.771  0.7481  1.3533 -1.7451
  181DOPC  H13S22215   1.829   3.051  14.921  0.7045 -2.6652  1.8558
  181DOPC  C21422216   2.028   3.034  14.824 -0.0319  0.3895 -0.3015
  181DOPC  H14R22217   2.070   3.129  14.864  1.2910 -0.1887 -0.2779
  181DOPC  H14S22218   2.077   3.037  14.725 -0.3661  0.8631 -0.4576
  181DOPC  C21522219   2.078   2.908  14.902  0.5215  0.5444  0.2661
  181DOPC  H15R22220   2.035   2.907  15.005 -1.0410 -2.2943 -0.3103
  181DOPC  H15S22221   2.188   2.924  14.907  0.9757 -0.6123 -3.2843
  181DOPC  C21622222   2.035   2.774  14.840  0.9961  0.5565  0.0490
  181DOPC  H16R22223   2.064   2.783  14.734  0.1859 -2.8925 -0.5821
  181DOPC  H16S22224   1.924   2.765  14.843  0.8884  1.7067  2.9726
  181DOPC  C21722225   2.095   2.644  14.898  0.4463 -0.3048 -0.1096
  181DOPC  H17R22226   2.203   2.645  14.869  0.4078  0.7198 -0.2346
  181DOPC  H17S22227   2.036   2.559  14.858 -2.8708  1.1386  1.3932
  181DOPC  C21822228   2.076   2.648  15.051  0.3522 -0.1046 -0.4071
  181DOPC  H18R22229   2.139   2.724  15.101  1.0144 -0.4867 -0.6508
  181DOPC  H18S22230   2.094   2.544  15.085 -2.0354 -0.3107  0.4405
  181DOPC  H18T22231   1.968   2.661  15.076  0.7867  1.8349  0.6905
  181DOPC   C3322232   2.173   2.551  13.931  0.1022  0.5937 -0.5326
  181DOPC   H3X22233   2.188   2.631  13.855  0.3875  0.7973 -0.2665
  181DOPC   H3Y22234   2.235   2.467  13.894  0.9040 -0.1233  2.1584
  181DOPC   C3422235   2.236   2.591  14.065  0.2630 -0.2835 -0.2742
  181DOPC   H4X22236   2.252   2.501  14.127  0.4477 -1.2254 -1.6664
  181DOPC   H4Y22237   2.171   2.669  14.112  1.7461  2.5940 -2.6369
  181DOPC   C3522238   2.382   2.650  14.053  0.2572 -0.7246 -0.6691
  181DOPC   H5X22239   2.361   2.745  14.000 -2.0330 -0.2801  0.8605
  181DOPC   H5Y22240   2.452   2.595  13.987  2.3203  0.9547 -0.0153
  181DOPC   C3622241   2.442   2.690  14.182 -0.2187 -0.1421 -0.1017
  181DOPC   H6X22242   2.514   2.774  14.169 -1.2230  0.5774 -1.1801
  181DOPC   H6Y22243   2.369   2.737  14.252 -0.7209  0.6309 -1.1219
  181DOPC   C3722244   2.515   2.569  14.247 -0.1159  0.2769 -0.3575
  181DOPC   H7X22245   2.449   2.482  14.266  2.1451 -1.2319  0.9609
  181DOPC   H7Y22246   2.584   2.526  14.172 -0.3950 -1.1423  0.1795
  181DOPC   C3822247   2.592   2.604  14.373  0.1620 -0.7815 -0.6474
  181DOPC   H8X22248   2.648   2.699  14.354 -0.4238  0.2778  2.3183
  181DOPC   H8Y22249   2.667   2.522  14.381 -0.7469 -1.9496 -3.3023
  181DOPC   C3922250   2.510   2.641  14.496  0.2787 -0.0450 -0.2957
  181DOPC   H9X22251   2.419   2.695  14.467 -0.7600 -0.9900  1.0632
  181DOPC  C31022252   2.530   2.603  14.629  0.2748  0.0018  0.8319
  181DOPC  H10X22253   2.448   2.618  14.700  0.0350  0.4917  0.4558
  181DOPC  C31122254   2.639   2.511  14.677 -0.0368 -0.2790  0.3382
  181DOPC  H11X22255   2.678   2.451  14.592  1.9966  1.0526  0.2615
  181DOPC  H11Y22256   2.605   2.434  14.749  2.3456 -0.8823  0.9199
  181DOPC  C31222257   2.756   2.581  14.750 -0.0039 -0.4674 -0.1468
  181DOPC  H12X22258   2.821   2.500  14.788  0.7732  0.3035  0.1893
  181DOPC  H12Y22259   2.710   2.639  14.834  2.0948  0.5748  0.3369
  181DOPC  C31322260   2.841   2.672  14.657 -0.6758 -0.4285 -0.0648
  181DOPC  H13X22261   2.862   2.624  14.559 -0.6644 -0.6075  0.0256
  181DOPC  H13Y22262   2.794   2.765  14.619 -1.3540 -1.7262 -2.5783
  181DOPC  C31422263   2.974   2.721  14.720 -0.9460  0.7497 -0.1605
  181DOPC  H14X22264   3.055   2.647  14.701  0.5684  2.7164 -1.8640
  181DOPC  H14Y22265   3.016   2.808  14.665  0.2036 -0.7148 -1.6962
  181DOPC  C31522266   2.961   2.761  14.865 -0.4967  0.3313  0.2461
  181DOPC  H15X22267   2.930   2.677  14.930  1.8182 -1.8747 -1.3157
  181DOPC  H15Y22268   2.890   2.847  14.871 -0.1323  0.5396  2.4539
  181DOPC  C31622269   3.097   2.799  14.927  0.4199 -0.8687 -0.6918
  181DOPC  H16X22270   3.164   2.712  14.907  0.6540 -0.9934  0.5612
  181DOPC  H16Y22271   3.130   2.888  14.868 -1.0260 -0.2584 -0.6072
  181DOPC  C31722272   3.091   2.840  15.074 -0.1294  0.8964  0.2788
  181DOPC  H17X22273   3.025   2.925  15.105 -1.4983 -0.6062  1.7065
  181DOPC  H17Y22274   3.054   2.754  15.133 -0.0257 -0.0175 -0.9594
  181DOPC  C31822275   3.229   2.889  15.123  0.8367  0.0755  0.0549
  181DOPC  H18X22276   3.288   2.939  15.043  0.7079  0.7153  0.3524
  181DOPC  H18Y22277   3.226   2.954  15.213  3.8973 -1.2675  1.2526
  181DOPC  H18Z22278   3.293   2.800  15.140  1.7421  0.6646 -0.2399
  182DOPC     N22279   2.896   6.955  12.535  0.3147 -0.5235  0.3915
  182DOPC   C1222280   2.842   7.093  12.495  0.1877 -0.8211  0.1394
  182DOPC  H12A22281   2.739   7.090  12.526 -0.1007 -2.2545 -0.8555
  182DOPC  H12B22282   2.856   7.105  12.389 -0.3413 -1.7178 -0.0344
  182DOPC   C1322283   3.038   6.943  12.495 -0.5580 -0.0686 -0.4233
  182DOPC  H13A22284   3.066   6.968  12.394  1.6261  1.1925  0.4130
  182DOPC  H13B22285   3.099   7.006  12.559  0.5184 -0.6603 -0.8301
  182DOPC  H13C22286   3.084   6.845  12.495 -1.1867 -0.3760 -1.0920
  182DOPC   C1422287   2.823   6.855  12.454 -0.1352 -0.2506  0.1243
  182DOPC  H14A22288   2.835   6.872  12.348 -3.2635  1.1611 -0.1077
  182DOPC  H14B22289   2.851   6.753  12.475 -0.7912 -1.0191 -2.3852
  182DOPC  H14C22290   2.717   6.861  12.470 -0.5112 -3.3442 -0.6166
  182DOPC   C1522291   2.867   6.926  12.676  0.0545 -0.2759  0.7580
  182DOPC  H15A22292   2.894   7.006  12.743  3.0492 -0.4136 -0.1468
  182DOPC  H15B22293   2.925   6.839  12.702  2.0964  0.5717 -0.6898
  182DOPC  H15C22294   2.762   6.905  12.693 -0.5145  1.2846 -0.4739
  182DOPC   C1122295   2.910   7.230  12.541 -0.0834  0.1376 -0.9085
  182DOPC  H11A22296   3.002   7.248  12.481  0.3946  0.8697  0.0271
  182DOPC  H11B22297   2.847   7.318  12.515  0.2258  0.7880  0.4389
  182DOPC     P22298   3.066   7.299  12.741  0.2485  0.6955 -0.1877
  182DOPC   O1322299   3.031   7.439  12.773  0.4549  0.4494 -0.1886
  182DOPC   O1422300   3.177   7.280  12.648 -0.1716 -0.6930  0.1615
  182DOPC   O1222301   2.940   7.230  12.679  0.8806 -0.4677  0.1331
  182DOPC   O1122302   3.094   7.224  12.879  0.4381 -0.2376  1.0277
  182DOPC    C122303   2.983   7.176  12.952 -0.3228  0.4232 -0.1598
  182DOPC    HA22304   2.935   7.095  12.894 -0.9878 -1.3499  2.6960
  182DOPC    HB22305   2.911   7.261  12.956  0.7103  1.2634  2.2769
  182DOPC    C222306   3.014   7.131  13.095  0.4864 -0.3233  0.0331
  182DOPC    HS22307   2.918   7.146  13.148  2.2085  1.1202  3.0693
  182DOPC   O2122308   3.115   7.216  13.156  0.2507  0.1780 -0.3285
  182DOPC   C2122309   3.095   7.345  13.169 -0.2569  0.1600 -0.0354
  182DOPC   O2222310   2.988   7.398  13.157 -0.4911  0.0352  0.1186
  182DOPC   C2222311   3.222   7.393  13.234 -0.0564 -0.3198  0.4236
  182DOPC   H2R22312   3.275   7.446  13.152  0.0941  0.6629  1.1394
  182DOPC   H2S22313   3.280   7.311  13.281  0.6069 -0.6344 -0.8918
  182DOPC    C322314   3.058   6.987  13.120  0.2278 -0.3156  0.4533
  182DOPC    HX22315   3.169   6.989  13.116  0.3118  1.3197  2.1023
  182DOPC    HY22316   3.011   6.915  13.049  1.1679  2.0614 -2.8312
  182DOPC   O3122317   3.039   6.941  13.259  0.2048  0.0092  0.2040
  182DOPC   C3122318   2.916   6.900  13.282  0.4668 -0.5121 -0.3894
  182DOPC   O3222319   2.824   6.901  13.201 -0.4675 -0.1996 -0.6470
  182DOPC   C3222320   2.907   6.860  13.428 -0.0999 -0.2129 -0.1309
  182DOPC   H2X22321   3.004   6.819  13.462  1.9258  2.5291 -2.0845
  182DOPC   H2Y22322   2.887   6.958  13.477 -1.3595 -0.8004  0.5910
  182DOPC   C2322323   3.185   7.486  13.350 -0.0574 -0.0577  0.3758
  182DOPC   H3R22324   3.124   7.433  13.427  1.1051 -0.2023  1.2128
  182DOPC   H3S22325   3.121   7.568  13.311 -1.2596 -1.3416 -0.4466
  182DOPC   C2422326   3.310   7.538  13.408  0.2293 -0.5544 -0.2345
  182DOPC   H4R22327   3.371   7.587  13.329  2.8591  1.0442  2.5413
  182DOPC   H4S22328   3.373   7.457  13.450 -1.4975 -1.6507  0.3511
  182DOPC   C2522329   3.285   7.656  13.504 -0.7022 -0.3561  0.0347
  182DOPC   H5R22330   3.225   7.738  13.459  1.5801  1.1235 -0.4805
  182DOPC   H5S22331   3.383   7.700  13.534  0.2778 -1.1396 -1.8651
  182DOPC   C2622332   3.197   7.610  13.624 -0.1855 -0.4774 -0.3422
  182DOPC   H6R22333   3.240   7.516  13.664  1.6713  0.6215  0.4003
  182DOPC   H6S22334   3.100   7.583  13.578 -0.0069  1.2046 -1.8248
  182DOPC   C2722335   3.193   7.720  13.738 -0.0301 -0.2141 -0.3531
  182DOPC   H7R22336   3.147   7.810  13.692  0.7295  0.4414  0.1572
  182DOPC   H7S22337   3.297   7.752  13.758  0.4858 -2.5985  1.1709
  182DOPC   C2822338   3.130   7.671  13.871 -0.4229 -0.4801  0.2132
  182DOPC   H8R22339   3.201   7.595  13.910 -0.1475 -0.6131 -0.5154
  182DOPC   H8S22340   3.033   7.622  13.851 -0.1218 -0.6644 -0.8888
  182DOPC   C2922341   3.117   7.778  13.975  0.5885 -0.5534  0.8033
  182DOPC   H9R22342   3.026   7.839  13.965 -0.7232 -2.4012  0.9784
  182DOPC  C21022343   3.206   7.809  14.074 -0.3263  0.1553  0.0714
  182DOPC  H10R22344   3.180   7.894  14.139 -1.8983 -0.2230 -0.0108
  182DOPC  C21122345   3.344   7.751  14.099 -0.0549  0.2954 -0.2409
  182DOPC  H11R22346   3.411   7.837  14.119  0.8137 -0.3858 -0.1554
  182DOPC  H11S22347   3.386   7.708  14.006  0.2166  1.6948 -0.7839
  182DOPC  C21222348   3.361   7.663  14.223 -0.1865 -0.4295  0.5731
  182DOPC  H12R22349   3.469   7.646  14.237 -0.1641 -0.3024  0.5587
  182DOPC  H12S22350   3.310   7.566  14.203  0.7781 -0.4436 -2.4672
  182DOPC  C21322351   3.300   7.727  14.346 -0.1352 -0.3706 -0.4984
  182DOPC  H13R22352   3.197   7.759  14.318  0.4742  2.6326  0.2635
  182DOPC  H13S22353   3.359   7.821  14.358 -2.1679  0.7009  2.0762
  182DOPC  C21422354   3.302   7.637  14.473  0.5273  0.1299 -0.2367
  182DOPC  H14R22355   3.253   7.540  14.453  1.2194  0.0098 -1.4448
  182DOPC  H14S22356   3.242   7.684  14.554  0.2857 -0.7696  0.1252
  182DOPC  C21522357   3.441   7.610  14.522 -0.1900  0.4086 -0.2531
  182DOPC  H15R22358   3.495   7.707  14.512  2.4403 -0.8413  0.8830
  182DOPC  H15S22359   3.497   7.538  14.459 -0.8148 -0.9569  0.7015
  182DOPC  C21622360   3.449   7.579  14.678  0.0636  0.3126 -0.0635
  182DOPC  H16R22361   3.555   7.556  14.700 -0.1657  0.0552  0.8124
  182DOPC  H16S22362   3.392   7.485  14.697  0.0460  0.5337  0.9866
  182DOPC  C21722363   3.399   7.689  14.773 -0.7128 -0.3208 -0.2418
  182DOPC  H17R22364   3.293   7.712  14.751 -0.3119  0.6590 -1.2020
  182DOPC  H17S22365   3.450   7.784  14.746 -1.5687 -0.0310 -0.8651
  182DOPC  C21822366   3.417   7.663  14.922  0.8168 -0.3208  0.0241
  182DOPC  H18R22367   3.372   7.567  14.956  2.3206 -1.4979 -1.1844
  182DOPC  H18S22368   3.373   7.742  14.986  1.9047  0.8961 -0.7008
  182DOPC  H18T22369   3.526   7.654  14.942  1.8732  1.3933 -4.0801
  182DOPC   C3322370   2.786   6.779  13.452 -0.1845 -0.7033 -0.0811
  182DOPC   H3X22371   2.800   6.690  13.387 -0.4948 -0.6172 -0.2709
  182DOPC   H3Y22372   2.692   6.833  13.425 -0.0243 -1.3948 -2.2324
  182DOPC   C3422373   2.774   6.739  13.598 -0.0115  0.4699  0.7977
  182DOPC   H4X22374   2.867   6.697  13.640  1.0681 -0.1634 -2.0076
  182DOPC   H4Y22375   2.702   6.655  13.606 -0.2822  0.5750 -0.2910
  182DOPC   C3522376   2.730   6.853  13.682  0.2916 -0.1891 -0.0292
  182DOPC   H5X22377   2.644   6.900  13.630  0.9846  0.6893 -0.4118
  182DOPC   H5Y22378   2.817   6.923  13.691  0.3148 -0.3436  1.1515
  182DOPC   C3622379   2.686   6.801  13.823 -0.5105  0.4280 -0.0405
  182DOPC   H6X22380   2.634   6.882  13.878  0.2262  0.3213  0.8365
  182DOPC   H6Y22381   2.607   6.725  13.804  1.5778 -1.8958  0.0038
  182DOPC   C3722382   2.789   6.748  13.923 -0.3775 -0.2038 -0.4904
  182DOPC   H7X22383   2.734   6.720  14.015 -1.1669 -0.0285 -0.9001
  182DOPC   H7Y22384   2.828   6.646  13.903 -0.1663 -0.7704  2.3604
  182DOPC   C3822385   2.887   6.856  13.970 -0.0225 -0.0061 -0.8247
  182DOPC   H8X22386   2.826   6.946  13.989 -1.1378 -0.9694  0.3764
  182DOPC   H8Y22387   2.937   6.884  13.875 -0.8695 -0.2777 -1.3625
  182DOPC   C3922388   2.968   6.811  14.091 -0.9646  0.0879 -0.2893
  182DOPC   H9X22389   3.012   6.710  14.087  0.1160  0.4077  1.6709
  182DOPC  C31022390   2.994   6.889  14.203 -0.0695  0.0146  0.1782
  182DOPC  H10X22391   3.056   6.849  14.285 -0.3308 -2.1962 -0.6297
  182DOPC  C31122392   2.940   7.026  14.226 -0.0922 -0.3468  0.2736
  182DOPC  H11X22393   2.906   7.083  14.137  0.3956 -0.2362  0.1551
  182DOPC  H11Y22394   3.033   7.084  14.243 -0.4954  0.7696 -1.0682
  182DOPC  C31222395   2.847   7.044  14.345  0.4337 -0.2954 -0.7497
  182DOPC  H12X22396   2.770   6.965  14.334  0.7952 -0.4874 -2.1781
  182DOPC  H12Y22397   2.806   7.147  14.331  0.8872 -0.1617 -1.1545
  182DOPC  C31322398   2.921   7.031  14.479 -0.1100 -1.1612 -0.7255
  182DOPC  H13X22399   2.931   6.924  14.507 -0.9726 -0.5956  2.1845
  182DOPC  H13Y22400   3.025   7.063  14.461 -0.4044  1.0361  1.0476
  182DOPC  C31422401   2.844   7.085  14.597  0.4073 -0.0440  0.2644
  182DOPC  H14X22402   2.805   7.187  14.575 -0.8626 -0.6714 -0.5169
  182DOPC  H14Y22403   2.753   7.020  14.595 -1.1441  2.0064 -2.5834
  182DOPC  C31522404   2.920   7.083  14.728  0.0570  0.4332  0.2837
  182DOPC  H15X22405   2.975   6.986  14.729 -0.0663  0.3469  1.9211
  182DOPC  H15Y22406   2.846   7.095  14.810 -0.2006  3.6955 -0.3191
  182DOPC  C31622407   3.025   7.198  14.737  0.9114  0.1934 -0.0590
  182DOPC  H16X22408   3.104   7.193  14.659  0.5111  0.7706 -0.5060
  182DOPC  H16Y22409   2.966   7.287  14.707 -1.1717 -1.2114 -0.3412
  182DOPC  C31722410   3.093   7.216  14.869  0.7587  0.1950  1.0626
  182DOPC  H17X22411   3.016   7.235  14.948  1.9751 -0.0551  2.3571
  182DOPC  H17Y22412   3.135   7.116  14.892 -2.0601 -1.7693 -1.5549
  182DOPC  C31822413   3.212   7.310  14.867  0.3720  0.6577  0.2621
  182DOPC  H18X22414   3.239   7.343  14.969 -0.0743  1.0627  0.2561
  182DOPC  H18Y22415   3.298   7.264  14.815 -1.0199 -2.5653  0.5706
  182DOPC  H18Z22416   3.188   7.405  14.813 -0.2261  0.2930 -0.1335
  183DOPC     N22417   1.624   3.910  12.965  0.2003 -0.1504  0.0332
  183DOPC   C1222418   1.617   4.027  13.067 -0.3940  0.2037  0.4526
  183DOPC  H12A22419   1.679   4.006  13.153 -3.2760 -2.1297  2.1783
  183DOPC  H12B22420   1.517   4.054  13.096 -0.1085  0.8673  0.8299
  183DOPC   C1322421   1.565   3.784  13.014  0.2383  0.3645  0.9740
  183DOPC  H13A22422   1.462   3.785  12.981  0.1762 -1.6450  0.9846
  183DOPC  H13B22423   1.615   3.699  12.970  0.0392  0.2037  1.0566
  183DOPC  H13C22424   1.567   3.767  13.121 -1.6619 -0.1337  0.9646
  183DOPC   C1422425   1.760   3.878  12.907 -0.6930  0.4889 -0.1036
  183DOPC  H14A22426   1.841   3.867  12.977 -1.1885  0.1737  0.4257
  183DOPC  H14B22427   1.754   3.791  12.843  2.4650 -0.7128  1.0685
  183DOPC  H14C22428   1.792   3.962  12.847  1.8699  1.7626  2.7642
  183DOPC   C1522429   1.536   3.929  12.845 -0.0692  0.4006  0.3821
  183DOPC  H15A22430   1.434   3.960  12.867 -0.0372  1.7526 -1.1570
  183DOPC  H15B22431   1.532   3.836  12.789  0.5992 -1.3367  3.0723
  183DOPC  H15C22432   1.581   3.995  12.772 -2.9242  1.5471 -0.5137
  183DOPC   C1122433   1.686   4.153  12.998  0.3700  0.0264  0.6220
  183DOPC  H11A22434   1.685   4.224  13.084 -1.3357  0.9364 -0.0909
  183DOPC  H11B22435   1.793   4.136  12.973 -0.0223 -0.1613 -1.0418
  183DOPC     P22436   1.482   4.282  12.910  0.1135  0.5315 -0.1765
  183DOPC   O1322437   1.416   4.303  12.783  0.4676  0.0008  0.2648
  183DOPC   O1422438   1.514   4.393  12.997 -0.7757  0.0893  0.2075
  183DOPC   O1222439   1.619   4.204  12.882  0.8356 -0.5880  0.2332
  183DOPC   O1122440   1.406   4.168  12.992 -0.2100  0.4013 -0.2436
  183DOPC    C122441   1.267   4.170  13.007  0.4038 -0.4021  0.0475
  183DOPC    HA22442   1.238   4.066  13.033 -2.4726  0.6957  1.7493
  183DOPC    HB22443   1.209   4.186  12.914 -0.1701  0.0078  0.4663
  183DOPC    C222444   1.218   4.262  13.127  0.3498 -0.2285  0.4463
  183DOPC    HS22445   1.229   4.367  13.091 -1.1277 -0.4711 -0.8193
  183DOPC   O2122446   1.307   4.242  13.235 -0.0484  0.4193  0.1319
  183DOPC   C2122447   1.340   4.351  13.308  0.3493  0.1053 -0.2878
  183DOPC   O2222448   1.287   4.459  13.287  0.3656  0.4616 -0.3714
  183DOPC   C2222449   1.430   4.314  13.422 -0.3823 -0.4427  0.8329
  183DOPC   H2R22450   1.495   4.233  13.381 -1.1710 -1.6023  1.8071
  183DOPC   H2S22451   1.375   4.264  13.504 -1.9626 -1.2221 -0.6555
  183DOPC    C322452   1.060   4.247  13.148  0.4020 -0.1527  0.3566
  183DOPC    HX22453   1.047   4.138  13.164  1.2358 -0.2229  0.5938
  183DOPC    HY22454   1.011   4.273  13.052  0.7101 -0.1610  0.1970
  183DOPC   O3122455   1.020   4.303  13.268  0.3112  0.4123 -0.7069
  183DOPC   C3122456   1.007   4.439  13.254  0.0987 -0.4033  0.8662
  183DOPC   O3222457   1.026   4.503  13.150  0.3768  0.3553  0.3343
  183DOPC   C3222458   0.984   4.509  13.388 -0.6841  0.4110  0.4389
  183DOPC   H2X22459   0.895   4.465  13.436 -0.6045  0.4697  0.6402
  183DOPC   H2Y22460   1.076   4.498  13.449  0.5436  2.3202 -0.9349
  183DOPC   C2322461   1.527   4.418  13.489 -0.3840 -0.1569  0.1062
  183DOPC   H3R22462   1.581   4.375  13.576  0.6446  1.1205  0.1461
  183DOPC   H3S22463   1.471   4.503  13.534  0.9336  2.0591 -2.1934
  183DOPC   C2422464   1.628   4.485  13.393 -0.1173 -0.4897  0.3922
  183DOPC   H4R22465   1.571   4.524  13.306 -1.0236 -0.8607  0.7966
  183DOPC   H4S22466   1.698   4.413  13.347  3.0002  0.7893  2.8219
  183DOPC   C2522467   1.700   4.614  13.451 -0.0392  0.2352  0.1558
  183DOPC   H5R22468   1.624   4.690  13.482  0.4384  1.0888 -0.7018
  183DOPC   H5S22469   1.770   4.655  13.375 -0.6488 -0.9633 -1.1027
  183DOPC   C2622470   1.784   4.575  13.574 -0.2096 -0.6157  0.2204
  183DOPC   H6R22471   1.716   4.550  13.659 -1.3303  1.2051 -0.0996
  183DOPC   H6S22472   1.837   4.665  13.610 -0.9080  0.5117 -1.4712
  183DOPC   C2722473   1.885   4.458  13.574 -0.0868 -0.5076 -0.4351
  183DOPC   H7R22474   1.962   4.479  13.496  1.1842 -1.5701  0.4812
  183DOPC   H7S22475   1.823   4.367  13.569  0.4147 -0.9196  0.5577
  183DOPC   C2822476   1.975   4.446  13.703 -0.5012 -0.2905 -0.7324
  183DOPC   H8R22477   1.915   4.429  13.795 -0.3785  1.2399 -0.3409
  183DOPC   H8S22478   2.021   4.546  13.713  0.2801 -0.6348 -0.7681
  183DOPC   C2922479   2.090   4.348  13.690 -0.4024  0.4877 -0.3298
  183DOPC   H9R22480   2.166   4.380  13.617  1.2597 -0.5697  0.8627
  183DOPC  C21022481   2.110   4.225  13.744 -0.1915 -0.7353  0.2462
  183DOPC  H10R22482   2.203   4.170  13.728 -0.4572 -1.2483  0.4426
  183DOPC  C21122483   2.026   4.154  13.839  0.4432  0.5112  1.0511
  183DOPC  H11R22484   2.046   4.048  13.809 -1.8298  0.9650 -2.7707
  183DOPC  H11S22485   1.920   4.179  13.819  0.4062  0.4085  1.1175
  183DOPC  C21222486   2.048   4.155  13.994  0.3196  0.3180  0.7411
  183DOPC  H12R22487   1.958   4.106  14.036 -0.1643  1.3754  0.9972
  183DOPC  H12S22488   2.048   4.262  14.025  1.8141  0.3061  0.8268
  183DOPC  C21322489   2.182   4.096  14.044  0.1926 -0.0653  0.3046
  183DOPC  H13R22490   2.259   4.174  14.027 -0.8781  0.7892 -0.7706
  183DOPC  H13S22491   2.192   3.998  13.994 -2.2481 -1.2025  1.8387
  183DOPC  C21422492   2.176   4.062  14.195 -0.1626 -0.1521 -0.3902
  183DOPC  H14R22493   2.272   4.017  14.226 -0.4849  0.5218  1.7472
  183DOPC  H14S22494   2.102   3.979  14.202  3.7265 -3.8670  0.7311
  183DOPC  C21522495   2.139   4.181  14.289  0.0233  0.2156 -0.1238
  183DOPC  H15R22496   2.029   4.191  14.277 -0.4508 -3.6167 -0.3257
  183DOPC  H15S22497   2.193   4.272  14.257 -0.9580  0.0249 -2.5503
  183DOPC  C21622498   2.175   4.148  14.432 -0.0648  0.7044  0.2793
  183DOPC  H16R22499   2.159   4.238  14.494  0.0121  3.8455 -3.7994
  183DOPC  H16S22500   2.284   4.126  14.435  0.0616  0.7428 -1.9876
  183DOPC  C21722501   2.114   4.013  14.477  0.0756 -0.3101 -0.8463
  183DOPC  H17R22502   2.181   3.929  14.446 -1.0720 -2.0323  1.0728
  183DOPC  H17S22503   2.019   4.001  14.421 -0.6472 -0.2241  0.3337
  183DOPC  C21822504   2.080   3.997  14.623 -0.0955 -0.2289 -0.1188
  183DOPC  H18R22505   2.172   3.976  14.683  0.2794  1.4640 -0.0517
  183DOPC  H18S22506   2.015   3.909  14.643  0.7411 -0.7556  0.3638
  183DOPC  H18T22507   2.026   4.086  14.661  3.4028  1.4234  1.4544
  183DOPC   C3322508   0.948   4.660  13.361  0.2352 -0.0833  1.0119
  183DOPC   H3X22509   0.853   4.670  13.305  0.8270 -2.5232 -0.6130
  183DOPC   H3Y22510   1.027   4.712  13.303 -2.0297  1.6445 -0.6969
  183DOPC   C3422511   0.937   4.742  13.499 -0.2200 -0.2515  0.1603
  183DOPC   H4X22512   0.845   4.711  13.553  0.2111 -0.8884  0.5460
  183DOPC   H4Y22513   0.931   4.848  13.466  1.5987 -0.1030  0.1856
  183DOPC   C3522514   1.070   4.733  13.581 -0.1255  0.4240 -0.5130
  183DOPC   H5X22515   1.155   4.756  13.512  0.5200 -2.7624 -0.9520
  183DOPC   H5Y22516   1.072   4.626  13.613  0.0317 -0.0285 -1.9416
  183DOPC   C3622517   1.080   4.832  13.702  0.0476 -0.6634 -0.1664
  183DOPC   H6X22518   1.187   4.827  13.729 -0.0560  1.1337  0.7313
  183DOPC   H6Y22519   1.053   4.935  13.671  1.3045 -0.5758 -1.0141
  183DOPC   C3722520   0.982   4.809  13.822  0.0578  0.2494 -0.9567
  183DOPC   H7X22521   0.875   4.809  13.792 -0.1359  1.3908 -0.2933
  183DOPC   H7Y22522   1.001   4.705  13.857  1.4474  0.6291 -0.5039
  183DOPC   C3822523   0.995   4.911  13.937  0.6331 -0.4843 -0.6065
  183DOPC   H8X22524   0.954   5.008  13.903  2.4630  0.2419 -0.8767
  183DOPC   H8Y22525   1.104   4.933  13.934  0.6305 -0.5601 -1.9603
  183DOPC   C3922526   0.944   4.865  14.075  0.4139 -0.8558  0.0521
  183DOPC   H9X22527   0.897   4.767  14.056 -1.7806  0.6015 -2.9253
  183DOPC  C31022528   0.957   4.922  14.202 -0.1881 -0.7396  0.9822
  183DOPC  H10X22529   0.913   4.868  14.287 -0.6785 -0.7613  0.7194
  183DOPC  C31122530   1.006   5.066  14.230 -0.1063 -0.6321  0.2147
  183DOPC  H11X22531   0.943   5.123  14.302  0.1040  0.6639 -0.6007
  183DOPC  H11Y22532   1.000   5.123  14.135 -1.4053 -0.9858  0.0557
  183DOPC  C31222533   1.157   5.078  14.278 -0.6430 -0.3637  0.8285
  183DOPC  H12X22534   1.177   5.187  14.294 -0.6355 -0.4516  1.4333
  183DOPC  H12Y22535   1.224   5.039  14.199 -3.7757 -2.5323 -0.9459
  183DOPC  C31322536   1.195   4.997  14.401 -0.3194 -0.0978 -0.4380
  183DOPC  H13X22537   1.130   5.003  14.491 -1.8272  1.1131 -1.5710
  183DOPC  H13Y22538   1.200   4.893  14.362 -2.3286 -0.6011  0.5342
  183DOPC  C31422539   1.333   5.039  14.459 -1.4802  0.4314  0.3052
  183DOPC  H14X22540   1.418   5.014  14.392 -0.4336  3.6804  0.2380
  183DOPC  H14Y22541   1.341   5.149  14.474 -2.3383  0.5131  0.2328
  183DOPC  C31522542   1.374   4.964  14.587 -0.3962 -0.0817 -0.5826
  183DOPC  H15X22543   1.483   4.977  14.604 -0.2410  1.0689 -2.2730
  183DOPC  H15Y22544   1.347   4.856  14.585 -0.6799 -0.0159 -0.3711
  183DOPC  C31622545   1.307   5.029  14.717 -0.4336  0.9081 -0.0990
  183DOPC  H16X22546   1.310   5.140  14.711 -2.4683  1.0316  0.4086
  183DOPC  H16Y22547   1.200   5.001  14.713 -0.0867 -0.4265 -0.7526
  183DOPC  C31722548   1.365   4.985  14.849  0.5434 -0.1876 -0.1288
  183DOPC  H17X22549   1.347   4.875  14.847 -0.4855 -0.0192 -0.3812
  183DOPC  H17Y22550   1.474   5.002  14.864  0.0910  5.0876 -1.1224
  183DOPC  C31822551   1.290   5.062  14.958  0.5500 -0.3859  0.1850
  183DOPC  H18X22552   1.330   5.030  15.057 -1.3394 -0.6671  0.9031
  183DOPC  H18Y22553   1.313   5.167  14.928  3.5122 -0.7637  0.8123
  183DOPC  H18Z22554   1.181   5.041  14.958  0.2844  0.8383 -0.9422
  184DOPC     N22555   6.720   1.614  12.606 -0.0440  0.4809  0.0186
  184DOPC   C1222556   6.672   1.471  12.563 -0.6134  0.0861 -0.2004
  184DOPC  H12A22557   6.755   1.403  12.577  0.1063  1.0955  0.6142
  184DOPC  H12B22558   6.649   1.475  12.458  0.8373  0.4963 -0.5205
  184DOPC   C1322559   6.798   1.676  12.502 -0.3922 -0.0536 -0.0631
  184DOPC  H13A22560   6.882   1.614  12.472  0.5914  0.0427  2.2556
  184DOPC  H13B22561   6.740   1.709  12.417 -1.6590 -1.4226  0.2437
  184DOPC  H13C22562   6.838   1.766  12.546  0.8542 -1.3039  1.4733
  184DOPC   C1422563   6.787   1.616  12.734  0.5765 -0.5709 -0.1544
  184DOPC  H14A22564   6.819   1.719  12.742 -1.0639  0.0863 -1.4814
  184DOPC  H14B22565   6.723   1.587  12.816  0.7786  1.8423  0.9356
  184DOPC  H14C22566   6.878   1.557  12.731  3.1942  3.1278 -0.2635
  184DOPC   C1522567   6.603   1.708  12.623  0.4324 -0.0428 -0.5847
  184DOPC  H15A22568   6.523   1.691  12.552 -0.8984  0.4089  0.7587
  184DOPC  H15B22569   6.623   1.814  12.621 -3.0815  0.7420 -1.1049
  184DOPC  H15C22570   6.545   1.684  12.711  0.9826 -3.9332 -1.0738
  184DOPC   C1122571   6.561   1.396  12.638  0.2197  0.3649 -0.8653
  184DOPC  H11A22572   6.481   1.471  12.656 -0.6904 -0.2509 -2.1785
  184DOPC  H11B22573   6.515   1.326  12.565 -1.7719  3.6685 -3.0381
  184DOPC     P22574   6.637   1.194  12.795  0.0395  0.4254  0.3697
  184DOPC   O1322575   6.788   1.175  12.800  0.5521 -0.5804 -0.0304
  184DOPC   O1422576   6.561   1.110  12.699 -0.5261  0.0213 -0.2793
  184DOPC   O1222577   6.597   1.343  12.770  0.0721 -0.4273  0.4629
  184DOPC   O1122578   6.588   1.166  12.943 -0.2976  0.0100  0.1182
  184DOPC    C122579   6.643   1.236  13.056 -0.0355 -0.0978 -0.0932
  184DOPC    HA22580   6.562   1.280  13.117  0.6627  0.9719  0.0955
  184DOPC    HB22581   6.699   1.327  13.023  0.7130 -0.9249 -1.1840
  184DOPC    C222582   6.726   1.140  13.152  0.8927 -0.0479 -0.6134
  184DOPC    HS22583   6.801   1.084  13.093  0.7261 -2.0345  0.9534
  184DOPC   O2122584   6.636   1.042  13.211  0.0708 -0.4506 -0.5241
  184DOPC   C2122585   6.693   0.950  13.281  0.7669 -0.3209 -0.3375
  184DOPC   O2222586   6.809   0.936  13.310  0.4574  0.2497 -1.0104
  184DOPC   C2222587   6.574   0.856  13.308  0.0723 -0.2413  0.4316
  184DOPC   H2R22588   6.570   0.780  13.227 -0.5400 -1.1121  1.2547
  184DOPC   H2S22589   6.475   0.905  13.312  0.3553  0.2739  2.4125
  184DOPC    C322590   6.802   1.227  13.262  0.2977  0.1835 -0.5434
  184DOPC    HX22591   6.885   1.276  13.207 -0.7931 -0.0242 -2.4485
  184DOPC    HY22592   6.836   1.171  13.352 -1.9983  1.8153  1.4956
  184DOPC   O3122593   6.707   1.332  13.310  0.0215 -0.1017  0.0372
  184DOPC   C3122594   6.752   1.430  13.376  0.4472 -0.6586  0.3643
  184DOPC   O3222595   6.865   1.463  13.403 -0.2724  0.4408 -0.0230
  184DOPC   C3222596   6.630   1.524  13.418 -0.5103  0.3531  0.1586
  184DOPC   H2X22597   6.632   1.605  13.342  2.8615 -1.7739 -2.3495
  184DOPC   H2Y22598   6.536   1.465  13.413 -1.5396  1.7854  1.7091
  184DOPC   C2322599   6.594   0.764  13.437 -0.2698  0.7884  0.0545
  184DOPC   H3R22600   6.555   0.815  13.528 -1.4127 -0.9757  0.5777
  184DOPC   H3S22601   6.699   0.730  13.451  0.3047  2.6888  0.6634
  184DOPC   C2422602   6.511   0.633  13.447 -0.3386 -0.2973 -0.3636
  184DOPC   H4R22603   6.402   0.652  13.455 -0.2652 -0.5581  1.7654
  184DOPC   H4S22604   6.544   0.586  13.542  0.5361  2.2277  0.6466
  184DOPC   C2522605   6.538   0.529  13.337 -0.1377  0.4059 -0.0370
  184DOPC   H5R22606   6.621   0.468  13.378  1.2109  1.9311 -0.3833
  184DOPC   H5S22607   6.571   0.576  13.241  0.3450  0.1184 -0.0112
  184DOPC   C2622608   6.402   0.452  13.302  0.7180 -0.2624 -0.3051
  184DOPC   H6R22609   6.423   0.389  13.213  0.6040 -0.8978  0.1061
  184DOPC   H6S22610   6.327   0.529  13.274  0.9683  2.3736  4.9981
  184DOPC   C2722611   6.342   0.372  13.421  0.0339 -0.6104  0.0048
  184DOPC   H7R22612   6.328   0.440  13.507  1.6269  1.7696 -1.5117
  184DOPC   H7S22613   6.417   0.296  13.452  0.9490 -0.0308 -0.7121
  184DOPC   C2822614   6.204   0.299  13.395 -0.1339 -0.1420 -0.7981
  184DOPC   H8R22615   6.168   0.239  13.481  0.4274 -0.8950 -1.0759
  184DOPC   H8S22616   6.229   0.232  13.310 -1.6763  0.5398 -1.8181
  184DOPC   C2922617   6.093   0.402  13.368  0.3107 -0.2244  0.1720
  184DOPC   H9R22618   6.132   0.480  13.301  2.0937 -3.4004 -2.7939
  184DOPC  C21022619   5.972   0.405  13.429  0.2261 -0.3030 -0.0206
  184DOPC  H10R22620   5.899   0.479  13.391  0.8027  0.6518  0.6810
  184DOPC  C21122621   5.914   0.310  13.529  0.5930  0.4984  0.3008
  184DOPC  H11R22622   5.925   0.206  13.490 -1.3484  0.0736  0.7670
  184DOPC  H11S22623   5.804   0.329  13.534  0.2260 -1.5338  0.8202
  184DOPC  C21222624   5.959   0.309  13.673 -0.4852 -0.3141 -0.2296
  184DOPC  H12R22625   5.893   0.384  13.722  0.2485 -0.1883  0.6039
  184DOPC  H12S22626   6.060   0.354  13.678 -0.9263  0.5889  1.2698
  184DOPC  C21322627   5.961   0.172  13.743 -0.1982 -0.1215  0.6614
  184DOPC  H13R22628   5.873   0.109  13.716  0.9295 -1.3409 -0.3433
  184DOPC  H13S22629   5.941   0.187  13.851 -0.9306 -4.5854  1.3507
  184DOPC  C21422630   6.089   0.095  13.725  0.4361 -0.2113 -0.0820
  184DOPC  H14R22631   6.174   0.159  13.756 -1.3738  2.4082 -0.1447
  184DOPC  H14S22632   6.093   0.074  13.616 -0.2711  1.2845 -0.4294
  184DOPC  C21522633   6.091  -0.039  13.798 -0.2604 -0.1251  0.0081
  184DOPC  H15R22634   6.007  -0.098  13.755 -0.5218  1.0484 -1.1706
  184DOPC  H15S22635   6.073  -0.026  13.907 -2.9853 -0.8677 -0.2695
  184DOPC  C21622636   6.213  -0.121  13.756  0.3331  0.6834 -0.3622
  184DOPC  H16R22637   6.299  -0.058  13.789  0.0163  1.4616 -0.9788
  184DOPC  H16S22638   6.213  -0.133  13.646  0.6839 -1.9627 -0.1302
  184DOPC  C21722639   6.208  -0.253  13.827  0.2179  0.8715  0.2976
  184DOPC  H17R22640   6.273  -0.330  13.781  0.1594  0.6261  0.6306
  184DOPC  H17S22641   6.104  -0.289  13.812  0.7481 -0.3186 -0.6975
  184DOPC  C21822642   6.231  -0.252  13.976 -0.6484  0.2720 -0.6181
  184DOPC  H18R22643   6.313  -0.180  13.991  0.5783 -1.3106  0.7227
  184DOPC  H18S22644   6.261  -0.352  14.016  2.1654  1.3924  0.3013
  184DOPC  H18T22645   6.140  -0.219  14.031  0.2262  0.1502  0.9628
  184DOPC   C3322646   6.641   1.567  13.563 -0.1281  0.3415 -0.1323
  184DOPC   H3X22647   6.688   1.667  13.572 -0.7737  0.9375 -2.6416
  184DOPC   H3Y22648   6.711   1.501  13.618 -0.3601 -0.6110 -0.9320
  184DOPC   C3422649   6.505   1.586  13.630 -0.1002  0.3140  0.3747
  184DOPC   H4X22650   6.445   1.500  13.594  1.6840 -1.1753  0.7914
  184DOPC   H4Y22651   6.448   1.678  13.606 -1.5949 -0.9126 -1.0603
  184DOPC   C3522652   6.528   1.581  13.784  0.2244 -0.4066  0.0616
  184DOPC   H5X22653   6.603   1.661  13.803 -1.2272  1.0086  0.0364
  184DOPC   H5Y22654   6.551   1.479  13.820 -1.7901 -1.7965 -2.2988
  184DOPC   C3622655   6.396   1.623  13.853  0.1449  0.3896 -0.2698
  184DOPC   H6X22656   6.354   1.719  13.816  1.3477  1.9265  2.0666
  184DOPC   H6Y22657   6.317   1.557  13.812 -0.9867  0.9786  0.8790
  184DOPC   C3722658   6.410   1.601  14.005 -0.1247 -0.2639  0.7574
  184DOPC   H7X22659   6.418   1.493  14.029 -0.7065 -0.2433  1.0561
  184DOPC   H7Y22660   6.498   1.663  14.031  0.6448 -1.6139  1.4721
  184DOPC   C3822661   6.294   1.667  14.081 -0.0722  0.2094  0.0592
  184DOPC   H8X22662   6.307   1.642  14.188 -2.3013 -1.5632 -0.0039
  184DOPC   H8Y22663   6.205   1.611  14.043  0.5716  0.8982 -2.7068
  184DOPC   C3922664   6.268   1.813  14.057 -0.4214 -0.5227  0.2056
  184DOPC   H9X22665   6.349   1.877  14.020  1.2193 -1.2078  2.3887
  184DOPC  C31022666   6.149   1.872  14.070 -0.3029 -0.0038  0.1807
  184DOPC  H10X22667   6.141   1.978  14.043  3.1930  0.0757 -1.0795
  184DOPC  C31122668   6.023   1.823  14.134  0.3082  0.2822 -0.2266
  184DOPC  H11X22669   6.040   1.717  14.165  0.6292  0.0897 -1.0531
  184DOPC  H11Y22670   5.943   1.824  14.057  0.1185  1.7953 -0.0251
  184DOPC  C31222671   5.975   1.895  14.261 -0.2303 -0.3249 -0.5732
  184DOPC  H12X22672   6.055   1.880  14.336  0.4447  2.6850 -0.5412
  184DOPC  H12Y22673   5.873   1.863  14.290 -0.7164  1.9939  0.5352
  184DOPC  C31322674   5.957   2.051  14.262 -0.8990  0.3273  0.3548
  184DOPC  H13X22675   5.940   2.088  14.365 -0.7632 -0.5426  0.7000
  184DOPC  H13Y22676   6.053   2.097  14.229 -1.6433  0.6881 -1.4411
  184DOPC  C31422677   5.862   2.102  14.152 -0.0539 -0.3609 -0.2345
  184DOPC  H14X22678   5.904   2.075  14.052 -2.0664 -3.6531 -0.3423
  184DOPC  H14Y22679   5.769   2.041  14.147 -1.0997  1.2634 -2.4118
  184DOPC  C31522680   5.833   2.252  14.157  0.1786 -0.0600 -0.0111
  184DOPC  H15X22681   5.813   2.293  14.259 -1.5214 -0.8502 -0.0029
  184DOPC  H15Y22682   5.737   2.267  14.104  0.1028  1.7824  0.5840
  184DOPC  C31622683   5.939   2.359  14.099  0.0226 -0.4853 -0.0254
  184DOPC  H16X22684   5.917   2.460  14.140 -1.0289  0.2926 -2.3039
  184DOPC  H16Y22685   6.045   2.332  14.121  0.8291  1.2109 -1.5149
  184DOPC  C31722686   5.920   2.395  13.948  0.1312  0.2451  0.0814
  184DOPC  H17X22687   5.926   2.301  13.888  1.2496  0.4838 -0.1861
  184DOPC  H17Y22688   5.816   2.433  13.947 -0.2643 -0.7212  1.3883
  184DOPC  C31822689   6.015   2.496  13.891 -0.5256  0.0617  0.1212
  184DOPC  H18X22690   5.994   2.508  13.782  0.0763 -2.7543 -0.4036
  184DOPC  H18Y22691   5.994   2.592  13.942 -1.9295 -0.6356  0.8899
  184DOPC  H18Z22692   6.121   2.467  13.905 -0.3128  0.6580 -0.1856
  185DOPC     N22693   7.668   5.858  12.707  0.4386  0.3194 -0.5344
  185DOPC   C1222694   7.763   5.930  12.813 -0.1003  0.2424  0.1911
  185DOPC  H12A22695   7.748   6.036  12.819 -1.0733  0.0743  1.1412
  185DOPC  H12B22696   7.865   5.919  12.778  0.3704  0.0428  1.5708
  185DOPC   C1322697   7.725   5.719  12.687 -0.5109 -0.8918 -0.1664
  185DOPC  H13A22698   7.659   5.663  12.622  0.7713 -0.5649 -1.7866
  185DOPC  H13B22699   7.830   5.724  12.664 -0.6307  1.9734 -0.3902
  185DOPC  H13C22700   7.717   5.658  12.776 -1.4538 -0.2292  0.2270
  185DOPC   C1422701   7.667   5.935  12.574  0.3891 -0.0157 -0.0260
  185DOPC  H14A22702   7.758   5.908  12.522  0.3028  0.7346 -0.5999
  185DOPC  H14B22703   7.578   5.921  12.515 -0.0657 -0.5886  0.7774
  185DOPC  H14C22704   7.679   6.040  12.600 -1.7230  0.2542  0.0420
  185DOPC   C1522705   7.526   5.836  12.763 -0.3299  0.0661  0.5930
  185DOPC  H15A22706   7.528   5.769  12.848  0.2775 -1.2989 -0.4629
  185DOPC  H15B22707   7.470   5.786  12.686  3.5890 -1.5000 -1.5483
  185DOPC  H15C22708   7.469   5.923  12.794 -0.0860  0.5154 -0.1763
  185DOPC   C1122709   7.762   5.873  12.959  0.0808  0.7580  0.4810
  185DOPC  H11A22710   7.847   5.917  13.015 -0.1572  1.7559  0.0820
  185DOPC  H11B22711   7.666   5.910  13.000  0.3121  0.2718  1.4750
  185DOPC     P22712   7.850   5.646  13.066  0.4729 -0.4109 -0.0315
  185DOPC   O1322713   7.950   5.727  13.140 -0.2461 -0.0608 -0.2968
  185DOPC   O1422714   7.897   5.519  13.003  0.1098  0.1681  0.0999
  185DOPC   O1222715   7.779   5.730  12.962 -0.1872 -0.5832  0.0412
  185DOPC   O1122716   7.730   5.605  13.156 -0.2729  0.2752  0.0692
  185DOPC    C122717   7.665   5.698  13.243  0.1991  0.1503  0.0017
  185DOPC    HA22718   7.555   5.681  13.245  0.3433 -0.7997  1.3957
  185DOPC    HB22719   7.677   5.803  13.208 -1.4459  1.2469  2.4588
  185DOPC    C222720   7.720   5.674  13.383  0.0813  0.3060 -0.0666
  185DOPC    HS22721   7.827   5.690  13.362  0.1456 -0.0419 -0.0185
  185DOPC   O2122722   7.688   5.538  13.422 -0.6568 -0.0571  0.5860
  185DOPC   C2122723   7.788   5.461  13.463  0.3139 -0.6641  0.7457
  185DOPC   O2222724   7.908   5.496  13.452 -0.0993 -0.3687 -0.1772
  185DOPC   C2222725   7.738   5.321  13.500 -0.2544 -0.4372 -0.4017
  185DOPC   H2R22726   7.825   5.261  13.533  0.6748  1.5432  0.9377
  185DOPC   H2S22727   7.691   5.279  13.408 -0.4767 -0.5782 -0.2233
  185DOPC    C322728   7.667   5.774  13.489  0.1699  0.2285 -0.4016
  185DOPC    HX22729   7.559   5.757  13.505 -0.5726  4.4416  0.1874
  185DOPC    HY22730   7.671   5.879  13.452 -3.0815  0.0365 -1.5653
  185DOPC   O3122731   7.723   5.753  13.622 -0.7550 -0.1825 -0.1305
  185DOPC   C3122732   7.837   5.820  13.650  0.3704  0.0869  0.1924
  185DOPC   O3222733   7.884   5.906  13.577 -0.0372  0.4163 -0.3943
  185DOPC   C3222734   7.904   5.749  13.765 -0.0238  0.4427 -0.0905
  185DOPC   H2X22735   7.839   5.748  13.856 -1.0609  0.8625 -0.8031
  185DOPC   H2Y22736   7.914   5.639  13.750 -0.0631  0.3045  0.7841
  185DOPC   C2322737   7.636   5.342  13.623 -0.3938 -0.6171  0.0258
  185DOPC   H3R22738   7.604   5.244  13.665  2.3761 -1.7951 -0.4034
  185DOPC   H3S22739   7.543   5.396  13.596  1.0804  2.4616  0.7400
  185DOPC   C2422740   7.696   5.420  13.743 -0.1489 -0.2933  0.2178
  185DOPC   H4R22741   7.716   5.529  13.730  0.1038 -0.0931  2.0418
  185DOPC   H4S22742   7.800   5.391  13.769  0.3893  0.6557 -0.7592
  185DOPC   C2522743   7.610   5.390  13.865 -0.0992 -0.0942  0.3193
  185DOPC   H5R22744   7.610   5.282  13.892 -1.0549 -0.0719  0.4283
  185DOPC   H5S22745   7.503   5.402  13.839  0.0549  0.7993  0.0787
  185DOPC   C2622746   7.649   5.493  13.967 -0.3936  0.1499 -0.4190
  185DOPC   H6R22747   7.598   5.588  13.938 -2.3273 -0.1733  1.6982
  185DOPC   H6S22748   7.760   5.500  13.973 -0.1868 -0.6668 -2.3897
  185DOPC   C2722749   7.615   5.449  14.112  0.2588 -0.8468 -0.4771
  185DOPC   H7R22750   7.661   5.348  14.123 -1.7173 -1.9102 -1.3918
  185DOPC   H7S22751   7.505   5.435  14.109  0.0518  0.0611  1.6595
  185DOPC   C2822752   7.662   5.544  14.225 -0.4002  0.2051  0.6961
  185DOPC   H8R22753   7.610   5.640  14.208  1.6598  1.1147 -0.8018
  185DOPC   H8S22754   7.772   5.559  14.231  0.5089 -3.8267 -1.6038
  185DOPC   C2922755   7.620   5.484  14.357  0.0277  0.4407 -0.0953
  185DOPC   H9R22756   7.690   5.403  14.382  2.5803  2.2024 -1.1156
  185DOPC  C21022757   7.519   5.513  14.440 -0.0780  0.2851  0.4466
  185DOPC  H10R22758   7.512   5.467  14.540  1.4216  0.3010  0.5730
  185DOPC  C21122759   7.421   5.632  14.431  0.3940 -0.1412  0.2686
  185DOPC  H11R22760   7.318   5.594  14.446  0.8073 -2.5804 -2.3268
  185DOPC  H11S22761   7.425   5.666  14.326 -0.5956  0.6599  0.4789
  185DOPC  C21222762   7.441   5.749  14.536  0.5408  0.4652  0.3292
  185DOPC  H12R22763   7.389   5.717  14.629  0.6589 -0.5492  0.0518
  185DOPC  H12S22764   7.403   5.839  14.482 -1.5171 -0.4401  0.2102
  185DOPC  C21322765   7.591   5.779  14.570 -0.0169 -0.9675 -0.2665
  185DOPC  H13R22766   7.632   5.834  14.483 -1.4889  1.6056  0.5669
  185DOPC  H13S22767   7.651   5.693  14.607 -0.3328 -0.0535  2.5538
  185DOPC  C21422768   7.602   5.878  14.687 -0.2837  0.1620 -0.0924
  185DOPC  H14R22769   7.581   5.832  14.786  1.0172  0.0689  0.1541
  185DOPC  H14S22770   7.524   5.954  14.669 -1.9772 -1.7936 -1.5009
  185DOPC  C21522771   7.739   5.945  14.720 -0.2585  0.8122 -0.2126
  185DOPC  H15R22772   7.754   6.018  14.638 -2.3291  0.7532 -0.7180
  185DOPC  H15S22773   7.815   5.865  14.719 -1.0091  0.0844 -0.6890
  185DOPC  C21622774   7.725   6.023  14.852 -0.0697 -0.5716 -0.1863
  185DOPC  H16R22775   7.687   5.969  14.941 -0.2374 -0.3533 -0.1215
  185DOPC  H16S22776   7.650   6.103  14.832  1.3814  1.0748  0.7100
  185DOPC  C21722777   7.857   6.091  14.894  0.0576  0.4457 -0.3539
  185DOPC  H17R22778   7.940   6.029  14.935 -0.3379  0.4446  0.4724
  185DOPC  H17S22779   7.831   6.155  14.981  1.0237 -1.0381  1.0945
  185DOPC  C21822780   7.931   6.181  14.791  0.0672 -0.0593  0.6136
  185DOPC  H18R22781   7.963   6.108  14.714 -0.2834  0.5412 -0.1078
  185DOPC  H18S22782   8.022   6.224  14.838 -1.4730  2.3410  1.6139
  185DOPC  H18T22783   7.869   6.267  14.758 -1.0620 -0.4766  1.5660
  185DOPC   C3322784   8.044   5.801  13.806  0.2442  0.4633  0.5907
  185DOPC   H3X22785   8.032   5.905  13.842  0.2863  1.0221 -0.9400
  185DOPC   H3Y22786   8.120   5.801  13.725  0.9600  0.4010  1.2478
  185DOPC   C3422787   8.107   5.708  13.917  0.7466  0.2274  0.1178
  185DOPC   H4X22788   8.047   5.708  14.011  0.9050 -1.6842  0.2698
  185DOPC   H4Y22789   8.209   5.747  13.938  2.1024 -2.6398 -0.6691
  185DOPC   C3522790   8.143   5.567  13.874  0.6391  0.1390 -0.4581
  185DOPC   H5X22791   8.213   5.585  13.789  1.5095  2.7025  0.6995
  185DOPC   H5Y22792   8.044   5.526  13.843 -0.0320  1.9955 -0.9139
  185DOPC   C3622793   8.196   5.485  13.990 -0.2281  0.5029 -0.4735
  185DOPC   H6X22794   8.223   5.389  13.940  2.6325  0.4377  1.0405
  185DOPC   H6Y22795   8.287   5.532  14.032  0.4079  0.3866 -1.6616
  185DOPC   C3722796   8.093   5.449  14.107  0.2036  0.0152  0.1691
  185DOPC   H7X22797   8.102   5.531  14.182 -1.5808  0.5803 -0.2084
  185DOPC   H7Y22798   7.996   5.464  14.056  0.5595  1.8806 -0.0500
  185DOPC   C3822799   8.112   5.312  14.170  0.3965 -0.2669 -0.2387
  185DOPC   H8X22800   8.124   5.245  14.083 -0.5890 -1.5021  0.5249
  185DOPC   H8Y22801   8.017   5.283  14.222 -0.4540  0.9554 -1.0561
  185DOPC   C3922802   8.239   5.301  14.250 -0.2143 -0.2718  0.0895
  185DOPC   H9X22803   8.320   5.363  14.210 -1.0938  0.1083 -1.1642
  185DOPC  C31022804   8.253   5.225  14.363 -0.3114 -0.3851 -0.1595
  185DOPC  H10X22805   8.338   5.236  14.433 -0.1530  0.5571 -0.4864
  185DOPC  C31122806   8.147   5.135  14.429 -0.2347 -0.4979 -0.3893
  185DOPC  H11X22807   8.047   5.171  14.398 -0.2137 -0.8657 -0.8818
  185DOPC  H11Y22808   8.149   5.155  14.539  0.2410 -0.9479 -0.3101
  185DOPC  C31222809   8.165   4.985  14.410  0.2960  0.4227  0.7213
  185DOPC  H12X22810   8.268   4.950  14.433  0.5851  1.3890  0.9145
  185DOPC  H12Y22811   8.150   4.975  14.300 -0.0540 -1.4304  0.8990
  185DOPC  C31322812   8.058   4.897  14.487 -0.1699  0.2903  0.1104
  185DOPC  H13X22813   7.967   4.958  14.469  0.8014  1.2099 -2.0937
  185DOPC  H13Y22814   8.041   4.802  14.433  1.4899 -1.1050  1.9036
  185DOPC  C31422815   8.086   4.883  14.635  0.3729  0.5464  0.3006
  185DOPC  H14X22816   8.197   4.879  14.645  0.5639  0.3818 -1.5369
  185DOPC  H14Y22817   8.060   4.979  14.684  0.6162  1.2310 -0.8737
  185DOPC  C31522818   8.008   4.772  14.705  0.3200  0.3379  0.0043
  185DOPC  H15X22819   7.902   4.780  14.673  0.7997  1.9874 -1.2951
  185DOPC  H15Y22820   8.010   4.796  14.813  0.8429  1.7776 -0.3007
  185DOPC  C31622821   8.068   4.628  14.682 -0.4476 -0.0374 -0.6074
  185DOPC  H16X22822   8.059   4.600  14.575  0.9269  0.8087 -0.9668
  185DOPC  H16Y22823   8.178   4.628  14.698 -0.4474 -2.2939 -0.2100
  185DOPC  C31722824   8.022   4.519  14.777 -0.3715 -0.2586 -0.2881
  185DOPC  H17X22825   8.089   4.432  14.761  0.1839  0.5250 -2.5725
  185DOPC  H17Y22826   8.037   4.547  14.884 -1.0289 -2.2492  0.3556
  185DOPC  C31822827   7.875   4.482  14.746  0.0485  0.6079 -0.5404
  185DOPC  H18X22828   7.836   4.418  14.829 -0.1149 -0.6515 -1.5566
  185DOPC  H18Y22829   7.822   4.579  14.731  1.4052  1.3244 -0.8552
  185DOPC  H18Z22830   7.874   4.429  14.649 -3.4910  0.0803 -0.3481
  186DOPC     N22831   0.022   2.284  12.504  0.1001 -0.0578 -0.4831
  186DOPC   C1222832  -0.100   2.212  12.557 -0.4524  0.0763  0.0730
  186DOPC  H12A22833  -0.076   2.107  12.544  0.7000  0.4124 -0.6646
  186DOPC  H12B22834  -0.185   2.239  12.495  0.2352  1.3380 -0.3633
  186DOPC   C1322835   0.056   2.223  12.374  0.1518  0.4882 -0.4845
  186DOPC  H13A22836   0.099   2.124  12.385 -0.4100 -0.0586 -2.7000
  186DOPC  H13B22837  -0.030   2.214  12.309 -0.0268  0.5778 -0.2600
  186DOPC  H13C22838   0.133   2.276  12.321 -0.6002  1.9146 -0.2082
  186DOPC   C1422839   0.143   2.275  12.595  0.0028  0.2204  0.5361
  186DOPC  H14A22840   0.179   2.174  12.587 -1.1099 -0.2135  0.8075
  186DOPC  H14B22841   0.211   2.352  12.561  1.0225 -1.4041 -1.3334
  186DOPC  H14C22842   0.109   2.290  12.696  1.0778  0.2205  0.9053
  186DOPC   C1522843  -0.006   2.431  12.488  0.5606  0.3706 -0.3026
  186DOPC  H15A22844  -0.038   2.468  12.585  0.6838 -0.6682  0.1521
  186DOPC  H15B22845  -0.077   2.457  12.411 -1.0272  1.4039  1.4370
  186DOPC  H15C22846   0.081   2.492  12.472 -0.1121  1.4007 -0.1557
  186DOPC   C1122847  -0.139   2.230  12.700 -0.5796  0.6333 -0.2375
  186DOPC  H11A22848  -0.161   2.338  12.697  0.2615  0.7980 -2.2311
  186DOPC  H11B22849  -0.233   2.176  12.726  0.2381 -0.6949  0.0888
  186DOPC     P22850  -0.045   2.235  12.946  0.0188 -0.2796  0.2659
  186DOPC   O1322851   0.086   2.294  12.981 -0.0964  1.0893 -0.1234
  186DOPC   O1422852  -0.078   2.112  13.021 -0.0495  0.3934 -0.2081
  186DOPC   O1222853  -0.036   2.193  12.791  0.6703  0.0787 -0.4971
  186DOPC   O1122854  -0.156   2.346  12.948 -0.3960  0.0635  0.3155
  186DOPC    C122855  -0.245   2.371  13.052  0.1216 -0.1180 -0.3002
  186DOPC    HA22856  -0.296   2.277  13.083  0.1815 -0.6649 -1.7769
  186DOPC    HB22857  -0.326   2.429  13.002  1.5655  1.3245 -1.0408
  186DOPC    C222858  -0.176   2.438  13.181  0.0402  0.1473  0.2597
  186DOPC    HS22859  -0.104   2.511  13.139  0.4093 -0.4199 -0.1185
  186DOPC   O2122860  -0.100   2.342  13.260  0.0273 -0.1515 -0.2817
  186DOPC   C2122861   0.002   2.401  13.326  0.2229  0.1542  0.4774
  186DOPC   O2222862   0.030   2.519  13.305 -0.0111  0.2918  0.7834
  186DOPC   C2222863   0.066   2.300  13.418 -0.5795  0.8835  0.0453
  186DOPC   H2R22864  -0.014   2.247  13.475 -0.2603 -0.4026 -0.6484
  186DOPC   H2S22865   0.146   2.352  13.474 -1.3097  2.0437  0.0319
  186DOPC    C322866  -0.270   2.530  13.262 -0.6352 -0.6044 -0.0803
  186DOPC    HX22867  -0.310   2.616  13.205  1.7726  0.5539 -0.1675
  186DOPC    HY22868  -0.212   2.576  13.345 -0.6726 -1.0810  0.2130
  186DOPC   O3122869  -0.374   2.442  13.316 -0.1584 -0.2173 -0.2348
  186DOPC   C3122870  -0.372   2.404  13.447 -0.1895  0.3613 -0.3251
  186DOPC   O3222871  -0.299   2.452  13.529 -0.4535  0.8517 -0.0058
  186DOPC   C3222872  -0.470   2.292  13.473  0.1544 -0.0549  0.4908
  186DOPC   H2X22873  -0.567   2.322  13.427 -0.5305  1.7609  2.9418
  186DOPC   H2Y22874  -0.426   2.214  13.407  0.7762  2.3090 -2.0577
  186DOPC   C2322875   0.139   2.183  13.333  0.8656 -0.6374  0.0996
  186DOPC   H3R22876   0.235   2.219  13.290  0.2035  1.2115  0.0852
  186DOPC   H3S22877   0.072   2.142  13.254 -2.7927  1.0833  2.0521
  186DOPC   C2422878   0.162   2.072  13.433  0.1262  0.9137  0.2719
  186DOPC   H4R22879   0.066   2.028  13.465  0.8867  0.7152  2.4639
  186DOPC   H4S22880   0.206   2.112  13.527  0.2994  1.1351  0.0999
  186DOPC   C2522881   0.262   1.978  13.365 -0.0820  0.1000 -0.0893
  186DOPC   H5R22882   0.360   2.031  13.367  1.6618 -2.8963  0.2139
  186DOPC   H5S22883   0.221   1.954  13.265 -0.8741  1.8407 -0.2169
  186DOPC   C2622884   0.292   1.850  13.439 -0.2834  0.0830 -0.3266
  186DOPC   H6R22885   0.331   1.783  13.359  0.9271  0.6228 -0.2096
  186DOPC   H6S22886   0.198   1.792  13.454  0.0504 -0.8193 -1.5321
  186DOPC   C2722887   0.377   1.866  13.570 -0.1296 -0.2156 -0.0095
  186DOPC   H7R22888   0.332   1.947  13.631  0.6854  1.2514 -1.2670
  186DOPC   H7S22889   0.483   1.891  13.547  0.4519 -2.1263  0.3845
  186DOPC   C2822890   0.379   1.730  13.647  0.2215 -0.5171 -0.4233
  186DOPC   H8R22891   0.424   1.664  13.571  1.1914 -0.3010 -0.0542
  186DOPC   H8S22892   0.271   1.725  13.673  0.2782  1.2735  0.3232
  186DOPC   C2922893   0.463   1.715  13.770 -0.0266  0.9511  0.1030
  186DOPC   H9R22894   0.481   1.609  13.789 -0.2480  0.9635  0.3819
  186DOPC  C21022895   0.490   1.803  13.873  0.4138  0.3108  0.3259
  186DOPC  H10R22896   0.559   1.770  13.952 -1.2291 -2.7230  0.6461
  186DOPC  C21122897   0.435   1.943  13.883  1.3601 -0.5109 -0.7284
  186DOPC  H11R22898   0.332   1.947  13.841  0.6610  2.9408  1.0047
  186DOPC  H11S22899   0.501   2.018  13.836  0.4524  0.6071 -0.2537
  186DOPC  C21222900   0.409   2.003  14.023 -0.4486 -0.3668  0.0004
  186DOPC  H12R22901   0.503   2.020  14.079 -1.3594  1.0409  1.1856
  186DOPC  H12S22902   0.346   1.932  14.081 -0.8340  0.2600  0.3732
  186DOPC  C21322903   0.353   2.151  14.010  0.4895 -0.3642  0.5009
  186DOPC  H13R22904   0.248   2.137  13.975 -0.0877 -1.7970  2.6505
  186DOPC  H13S22905   0.412   2.207  13.934 -0.4161  0.8137  0.6367
  186DOPC  C21422906   0.368   2.229  14.144  0.3994 -0.5711 -0.1102
  186DOPC  H14R22907   0.476   2.242  14.167 -0.0309  1.1022  1.2165
  186DOPC  H14S22908   0.306   2.177  14.220  0.7571  1.3417  1.5711
  186DOPC  C21522909   0.308   2.372  14.123  0.2549  0.0992 -0.1507
  186DOPC  H15R22910   0.203   2.368  14.088 -0.0139  2.1049  0.3108
  186DOPC  H15S22911   0.366   2.429  14.047  1.4228 -0.2654  0.4413
  186DOPC  C21622912   0.323   2.449  14.260  0.8817 -0.1789 -0.0259
  186DOPC  H16R22913   0.429   2.440  14.290  0.7490  0.9409  0.8153
  186DOPC  H16S22914   0.254   2.403  14.333 -1.0032 -0.0902 -1.6536
  186DOPC  C21722915   0.286   2.593  14.250  0.6687 -0.1910  0.5635
  186DOPC  H17R22916   0.182   2.597  14.212  0.9762 -1.0609 -0.4392
  186DOPC  H17S22917   0.353   2.642  14.176 -1.0675 -2.2443 -2.6215
  186DOPC  C21822918   0.283   2.669  14.380  0.6947  0.0525  0.2242
  186DOPC  H18R22919   0.377   2.652  14.437  0.8450 -1.9861 -0.5273
  186DOPC  H18S22920   0.202   2.639  14.451 -0.2094  2.9047  0.5215
  186DOPC  H18T22921   0.256   2.775  14.360 -0.1729  0.0032  1.0721
  186DOPC   C3322922  -0.485   2.257  13.618  0.2382  0.8742 -0.4569
  186DOPC   H3X22923  -0.506   2.347  13.679  1.0779  0.1964  0.8932
  186DOPC   H3Y22924  -0.379   2.237  13.645  0.4835 -1.5271 -2.8190
  186DOPC   C3422925  -0.569   2.130  13.651  0.0677  0.0824  0.0742
  186DOPC   H4X22926  -0.521   2.043  13.601  0.4709 -0.8857  2.0323
  186DOPC   H4Y22927  -0.659   2.144  13.588 -0.3017 -0.2734  0.5084
  186DOPC   C3522928  -0.593   2.101  13.798 -0.0410 -0.5742  0.3475
  186DOPC   H5X22929  -0.678   2.031  13.790 -1.8352  1.6033 -0.8897
  186DOPC   H5Y22930  -0.636   2.189  13.851  0.8815  0.7051 -0.9452
  186DOPC   C3622931  -0.479   2.039  13.875  0.7006  0.2122  0.3103
  186DOPC   H6X22932  -0.440   1.962  13.805  1.4386  0.6279  0.2504
  186DOPC   H6Y22933  -0.411   2.126  13.888  2.0561  0.0078 -3.9466
  186DOPC   C3722934  -0.519   1.988  14.010 -0.0397 -0.5650 -0.6925
  186DOPC   H7X22935  -0.557   2.068  14.077  2.3061  1.9532 -2.2110
  186DOPC   H7Y22936  -0.611   1.926  13.999  0.2048 -0.8485 -1.1290
  186DOPC   C3822937  -0.416   1.899  14.082  0.3034  1.1289  0.3050
  186DOPC   H8X22938  -0.453   1.894  14.186  0.9878  3.7389  0.7567
  186DOPC   H8Y22939  -0.314   1.944  14.083  2.8188 -3.7005 -1.7151
  186DOPC   C3922940  -0.390   1.755  14.017 -0.0062 -0.6448  0.8526
  186DOPC   H9X22941  -0.329   1.752  13.926 -2.2980  0.2470 -0.8321
  186DOPC  C31022942  -0.463   1.647  14.047  0.8805  0.3394 -0.2473
  186DOPC  H10X22943  -0.452   1.561  13.979 -2.4448 -1.5375  1.3561
  186DOPC  C31122944  -0.568   1.654  14.149 -0.1029  0.0559 -0.7012
  186DOPC  H11X22945  -0.647   1.585  14.112  0.0041 -0.3449 -0.2006
  186DOPC  H11Y22946  -0.621   1.752  14.150 -1.0273 -0.4266 -0.0986
  186DOPC  C31222947  -0.538   1.625  14.296  0.1217  0.1834 -0.2298
  186DOPC  H12X22948  -0.616   1.671  14.361 -0.0299 -0.1058 -0.2053
  186DOPC  H12Y22949  -0.436   1.664  14.316  0.6306 -0.4275 -1.5410
  186DOPC  C31322950  -0.536   1.477  14.328 -0.2013 -0.4365  0.3943
  186DOPC  H13X22951  -0.639   1.440  14.306 -1.3337  1.6035  1.9727
  186DOPC  H13Y22952  -0.470   1.418  14.261  0.7642 -1.3333  2.0408
  186DOPC  C31422953  -0.497   1.448  14.475  0.4339 -0.8409  0.2716
  186DOPC  H14X22954  -0.572   1.500  14.538 -0.6154 -2.9475  0.8552
  186DOPC  H14Y22955  -0.514   1.340  14.499 -0.5918 -0.4332  1.4782
  186DOPC  C31522956  -0.358   1.494  14.512 -0.1330  0.6874  0.2090
  186DOPC  H15X22957  -0.364   1.604  14.524  2.2066  0.9903 -0.9504
  186DOPC  H15Y22958  -0.279   1.477  14.436 -1.1734  0.7846 -0.9257
  186DOPC  C31622959  -0.311   1.443  14.650 -0.0444 -0.0464  0.4342
  186DOPC  H16X22960  -0.364   1.348  14.673 -0.9754  0.4474  0.4176
  186DOPC  H16Y22961  -0.204   1.415  14.647  0.6639  1.8647  3.2218
  186DOPC  C31722962  -0.331   1.544  14.764  0.0982 -0.5741  0.1607
  186DOPC  H17X22963  -0.281   1.636  14.730  0.1918 -1.2719 -1.7195
  186DOPC  H17Y22964  -0.438   1.569  14.779 -0.1123 -1.5202  0.2982
  186DOPC  C31822965  -0.271   1.491  14.893  0.3390  0.6900  0.1789
  186DOPC  H18X22966  -0.302   1.558  14.976  1.6122  1.2043  0.2543
  186DOPC  H18Y22967  -0.310   1.388  14.911 -3.3171  1.9825  0.5310
  186DOPC  H18Z22968  -0.161   1.492  14.888  0.3056 -0.6077 -2.2541
  187DOPC     N22969   6.807   0.762  12.854 -0.3926 -0.2509 -0.4405
  187DOPC   C1222970   6.910   0.711  12.747 -0.4116  0.1719  0.2500
  187DOPC  H12A22971   6.920   0.782  12.666 -0.6834  1.2694  1.1518
  187DOPC  H12B22972   6.869   0.620  12.705  0.8869 -0.7838  0.9756
  187DOPC   C1322973   6.782   0.660  12.967 -0.0165 -0.1634  0.6312
  187DOPC  H13A22974   6.723   0.697  13.050  0.0910 -0.0907  0.6763
  187DOPC  H13B22975   6.729   0.573  12.931 -2.3194  0.7171  1.7028
  187DOPC  H13C22976   6.866   0.622  13.023 -1.2877 -0.1576  2.6634
  187DOPC   C1422977   6.672   0.792  12.798 -0.1406  0.1823 -0.1262
  187DOPC  H14A22978   6.613   0.704  12.779  2.3974 -1.7257  0.2346
  187DOPC  H14B22979   6.615   0.850  12.870  0.6007  1.5441 -0.5883
  187DOPC  H14C22980   6.682   0.858  12.713  0.5088  0.8809  0.4727
  187DOPC   C1522981   6.862   0.882  12.926  0.2402  0.1255  0.2444
  187DOPC  H15A22982   6.950   0.855  12.983  0.7837  1.1016 -0.0942
  187DOPC  H15B22983   6.796   0.922  13.002  1.5489 -1.7474  2.4897
  187DOPC  H15C22984   6.891   0.964  12.862 -1.2846 -0.5721 -1.4154
  187DOPC   C1122985   7.048   0.663  12.797 -0.4400 -1.0513  0.2815
  187DOPC  H11A22986   7.106   0.658  12.702 -1.2724 -0.5797 -0.2672
  187DOPC  H11B22987   7.092   0.731  12.872 -0.6247  0.1864 -0.6980
  187DOPC     P22988   7.059   0.401  12.778  0.0102  0.3600 -0.0467
  187DOPC   O1322989   7.192   0.398  12.712 -0.8719  0.0104 -0.3440
  187DOPC   O1422990   6.937   0.383  12.696 -0.1742  0.3162  0.1395
  187DOPC   O1222991   7.047   0.533  12.857 -0.6749 -0.0657 -0.4472
  187DOPC   O1122992   7.053   0.295  12.897 -1.0647  0.3632  0.2553
  187DOPC    C122993   6.947   0.289  12.989 -0.0508 -0.2809  0.2866
  187DOPC    HA22994   6.889   0.195  12.970  1.5637 -1.2895  0.1766
  187DOPC    HB22995   6.867   0.363  12.971 -0.0443  0.0318  1.4786
  187DOPC    C222996   6.987   0.315  13.136  0.0859  0.0708 -0.4481
  187DOPC    HS22997   7.066   0.393  13.141  0.2116 -0.1541  2.6119
  187DOPC   O2122998   7.039   0.189  13.184 -0.3259 -0.3674 -0.3793
  187DOPC   C2122999   7.130   0.202  13.277 -0.5092 -0.3365 -0.3406
  187DOPC   O2223000   7.179   0.309  13.310 -0.4886  0.3944  0.5693
  187DOPC   C2223001   7.159   0.070  13.334 -0.2053 -0.1657 -0.6169
  187DOPC   H2R23002   7.218   0.007  13.265  0.3274  0.3736 -0.6556
  187DOPC   H2S23003   7.064   0.014  13.351  1.2455 -2.9859 -1.1958
  187DOPC    C323004   6.865   0.355  13.224 -0.5539 -0.1570 -0.5804
  187DOPC    HX23005   6.802   0.263  13.226  0.4364 -0.8691  1.8266
  187DOPC    HY23006   6.806   0.435  13.174  0.3109  1.3693  0.7595
  187DOPC   O3123007   6.899   0.384  13.368 -0.4452 -0.0732 -0.2662
  187DOPC   C3123008   6.939   0.501  13.394  0.2052 -0.3254  0.4138
  187DOPC   O3223009   6.934   0.594  13.312 -0.4418  0.7664  0.0111
  187DOPC   C3223010   6.994   0.522  13.536 -0.0761  0.2370  0.2944
  187DOPC   H2X23011   6.911   0.491  13.602 -0.1491  0.5427  0.3495
  187DOPC   H2Y23012   7.085   0.459  13.551  0.1290  1.2434  4.7958
  187DOPC   C2323013   7.239   0.087  13.466  0.3839  0.3555 -0.1101
  187DOPC   H3R23014   7.326   0.152  13.444  0.0897  0.5242 -0.8056
  187DOPC   H3S23015   7.289  -0.006  13.501  1.9431  1.8553  1.8957
  187DOPC   C2423016   7.144   0.140  13.579 -0.1447 -0.3807  0.0582
  187DOPC   H4R23017   7.073   0.054  13.578 -1.9814  1.0853 -0.8404
  187DOPC   H4S23018   7.085   0.228  13.547  2.5287  1.1407 -1.0314
  187DOPC   C2523019   7.230   0.175  13.697  0.3473  0.3513  0.4778
  187DOPC   H5R23020   7.314   0.238  13.662  2.0251 -1.0889  1.7298
  187DOPC   H5S23021   7.279   0.085  13.739 -0.4581 -0.3165  0.0351
  187DOPC   C2623022   7.148   0.234  13.814 -0.0714 -0.5156  0.2712
  187DOPC   H6R23023   7.082   0.155  13.857 -0.7291  0.3238  0.8354
  187DOPC   H6S23024   7.086   0.324  13.791  0.4852  0.3866  2.0750
  187DOPC   C2723025   7.237   0.285  13.938  0.1800  0.5560 -0.7704
  187DOPC   H7R23026   7.311   0.206  13.962 -1.3377 -0.9828 -0.9864
  187DOPC   H7S23027   7.173   0.292  14.029  1.4676  1.1867  0.1166
  187DOPC   C2823028   7.302   0.422  13.920  0.8778 -0.6909 -0.1670
  187DOPC   H8R23029   7.218   0.490  13.947  0.6920 -0.9040 -0.2096
  187DOPC   H8S23030   7.327   0.439  13.813  0.7001 -0.6695 -0.2064
  187DOPC   C2923031   7.414   0.457  14.016 -0.2817 -0.2948 -0.5544
  187DOPC   H9R23032   7.513   0.474  13.970 -0.0099 -0.7282 -0.1351
  187DOPC  C21023033   7.400   0.483  14.144  1.1382  0.3445 -0.8482
  187DOPC  H10R23034   7.491   0.507  14.202  1.5327  0.2556 -1.4158
  187DOPC  C21123035   7.273   0.500  14.215 -0.4116  0.4927  0.0329
  187DOPC  H11R23036   7.185   0.488  14.148 -0.2945  2.3057 -0.5166
  187DOPC  H11S23037   7.253   0.607  14.239 -2.6006  0.5888 -1.8413
  187DOPC  C21223038   7.262   0.407  14.342  0.8632 -0.6426 -0.3990
  187DOPC  H12R23039   7.341   0.421  14.420 -0.9533  2.4301  1.0804
  187DOPC  H12S23040   7.258   0.306  14.295 -1.7013 -0.9301  0.2901
  187DOPC  C21323041   7.129   0.443  14.410  0.2168  0.7740  0.4453
  187DOPC  H13R23042   7.081   0.363  14.471  0.4792 -0.1364 -0.5062
  187DOPC  H13S23043   7.053   0.463  14.331  0.0016  1.5784  0.8471
  187DOPC  C21423044   7.144   0.559  14.515 -0.0243 -0.6654 -0.3552
  187DOPC  H14R23045   7.220   0.628  14.472 -0.1609 -1.0502 -1.2240
  187DOPC  H14S23046   7.178   0.508  14.608 -2.2193 -0.5056  0.6006
  187DOPC  C21523047   7.017   0.640  14.539  0.4263 -0.1277 -0.7130
  187DOPC  H15R23048   6.970   0.603  14.633  0.0568  3.3206  0.6104
  187DOPC  H15S23049   6.942   0.620  14.459 -2.4978  0.0541  1.7799
  187DOPC  C21623050   7.032   0.790  14.540 -0.1728  0.5894  0.4412
  187DOPC  H16R23051   7.055   0.834  14.441  1.5329  2.1622  1.4487
  187DOPC  H16S23052   7.111   0.808  14.617 -0.5195  1.3182  0.6324
  187DOPC  C21723053   6.899   0.859  14.585  0.3310  0.1014 -0.0912
  187DOPC  H17R23054   6.864   0.816  14.680  1.4398  2.2817  1.3933
  187DOPC  H17S23055   6.828   0.845  14.500  1.4688 -0.4654 -0.9816
  187DOPC  C21823056   6.905   1.011  14.604 -0.2598  0.5064 -0.0527
  187DOPC  H18R23057   6.957   1.056  14.517 -0.8843 -1.2640 -1.3853
  187DOPC  H18S23058   6.973   1.032  14.690 -0.5996 -1.4432  0.7451
  187DOPC  H18T23059   6.804   1.055  14.615  1.1486  4.0644  0.0638
  187DOPC   C3323060   7.017   0.675  13.558  0.9509  0.6493 -0.0556
  187DOPC   H3X23061   6.919   0.725  13.555  1.7116  2.1500 -0.6410
  187DOPC   H3Y23062   7.084   0.717  13.480  1.6131 -0.3353 -0.0432
  187DOPC   C3423063   7.053   0.710  13.708 -0.2725 -0.1726 -0.4124
  187DOPC   H4X23064   7.077   0.819  13.710 -1.6612  0.1534  0.3931
  187DOPC   H4Y23065   7.143   0.651  13.734 -0.2580 -0.0545 -0.1922
  187DOPC   C3523066   6.947   0.674  13.812  0.2026 -0.0539  0.3435
  187DOPC   H5X23067   6.937   0.564  13.823  0.4034  0.0750  2.1076
  187DOPC   H5Y23068   6.847   0.708  13.777  0.8335 -1.1898 -2.9108
  187DOPC   C3623069   6.976   0.740  13.942 -0.2917  0.4985 -0.7432
  187DOPC   H6X23070   6.911   0.690  14.018  1.7536 -0.5449  0.4109
  187DOPC   H6Y23071   7.076   0.707  13.977 -1.2375 -0.7435  0.9259
  187DOPC   C3723072   6.967   0.889  13.950 -0.1596 -0.5242 -0.3027
  187DOPC   H7X23073   7.033   0.943  13.879 -0.4968 -0.6924 -0.7554
  187DOPC   H7Y23074   6.863   0.925  13.934 -1.0421 -2.2410  1.1576
  187DOPC   C3823075   7.000   0.934  14.090  0.1941 -0.5947 -0.5917
  187DOPC   H8X23076   7.037   1.039  14.085  0.9444 -0.8966 -2.6684
  187DOPC   H8Y23077   7.081   0.866  14.124  0.8119  0.7860  0.8455
  187DOPC   C3923078   6.878   0.930  14.186 -0.8700 -0.0657  0.5442
  187DOPC   H9X23079   6.854   0.827  14.214 -0.9489 -0.8102 -2.0247
  187DOPC  C31023080   6.806   1.033  14.233  0.0891  0.4111  0.3038
  187DOPC  H10X23081   6.730   1.005  14.308 -0.9056  1.1924 -0.3850
  187DOPC  C31123082   6.820   1.178  14.208  0.2006 -0.0841 -0.3905
  187DOPC  H11X23083   6.914   1.207  14.158  1.0264 -1.4789  0.2818
  187DOPC  H11Y23084   6.826   1.240  14.300 -0.8876 -0.3903 -0.0928
  187DOPC  C31223085   6.700   1.242  14.129 -0.1758  0.4023  0.0036
  187DOPC  H12X23086   6.611   1.252  14.195  0.9747 -0.1786  1.7289
  187DOPC  H12Y23087   6.671   1.177  14.044 -2.5427  0.2230  0.8547
  187DOPC  C31323088   6.735   1.383  14.089  0.0274 -0.4887  0.0727
  187DOPC  H13X23089   6.645   1.425  14.040 -0.1937 -1.9140 -0.7883
  187DOPC  H13Y23090   6.747   1.442  14.182 -1.9062 -0.8203  0.5794
  187DOPC  C31423091   6.850   1.399  13.987  0.3503  0.2852  0.4056
  187DOPC  H14X23092   6.955   1.383  14.020  0.0973 -2.1782  0.2273
  187DOPC  H14Y23093   6.837   1.306  13.926  0.1803 -0.3291  1.3646
  187DOPC  C31523094   6.853   1.526  13.902  0.3630 -0.2321 -0.0786
  187DOPC  H15X23095   6.851   1.616  13.966 -2.3679  0.4080 -0.9205
  187DOPC  H15Y23096   6.757   1.530  13.847 -1.0609  0.0208  2.3250
  187DOPC  C31623097   6.970   1.534  13.808  0.1457  0.4058  0.2846
  187DOPC  H16X23098   7.059   1.521  13.874  0.6559  0.5142 -0.3798
  187DOPC  H16Y23099   6.982   1.452  13.734 -0.2504 -0.3248  1.0143
  187DOPC  C31723100   6.977   1.668  13.725 -0.4290 -0.6024  0.1272
  187DOPC  H17X23101   6.891   1.674  13.655 -1.5394  0.0007  1.4694
  187DOPC  H17Y23102   6.955   1.750  13.798 -0.9474  0.4763 -1.1975
  187DOPC  C31823103   7.121   1.678  13.677 -0.5694 -0.0375  0.0319
  187DOPC  H18X23104   7.139   1.782  13.642  2.4773 -0.8739 -1.2736
  187DOPC  H18Y23105   7.200   1.651  13.751  1.0249 -0.9195 -1.9049
  187DOPC  H18Z23106   7.146   1.606  13.596 -0.3803 -1.6192  1.4167
  188DOPC     N23107   1.915   1.050  12.799  0.0597  0.0264 -0.5136
  188DOPC   C1223108   1.804   1.014  12.898  0.5344 -0.0754  0.0809
  188DOPC  H12A23109   1.709   1.028  12.848  0.7510 -0.5762 -0.4716
  188DOPC  H12B23110   1.802   1.086  12.979  1.9148 -0.0444  0.1160
  188DOPC   C1323111   2.044   1.003  12.850 -0.4265 -0.4769 -0.2826
  188DOPC  H13A23112   2.046   0.896  12.861 -0.2866 -0.4016  0.5281
  188DOPC  H13B23113   2.127   1.028  12.786  1.5856 -2.1506  1.4968
  188DOPC  H13C23114   2.075   1.036  12.948 -1.3871  0.3237 -0.2363
  188DOPC   C1423115   1.918   1.194  12.758 -0.7428 -0.5517  1.1299
  188DOPC  H14A23116   1.828   1.232  12.710 -0.2943 -1.6101 -0.6634
  188DOPC  H14B23117   1.948   1.257  12.839  0.0776 -1.1111  1.2675
  188DOPC  H14C23118   1.994   1.212  12.684  1.2378  0.7327  3.3511
  188DOPC   C1523119   1.884   0.978  12.672 -0.6968  0.3709  0.0644
  188DOPC  H15A23120   1.869   0.873  12.694 -0.5773 -0.0226 -1.5831
  188DOPC  H15B23121   1.966   0.980  12.602 -1.4288  0.3807 -0.8176
  188DOPC  H15C23122   1.804   1.025  12.617 -1.4379 -1.6436 -0.6658
  188DOPC   C1123123   1.812   0.878  12.970  0.4139 -0.6614 -0.7144
  188DOPC  H11A23124   1.906   0.882  13.029 -0.9024 -0.0772  1.4405
  188DOPC  H11B23125   1.731   0.877  13.046  0.4738  0.3474 -0.6261
  188DOPC     P23126   1.911   0.656  12.893  0.0578 -0.1473 -0.2507
  188DOPC   O1323127   2.037   0.683  12.827  0.4058 -0.1846 -0.7001
  188DOPC   O1423128   1.839   0.541  12.848 -0.0976 -0.2142  0.7353
  188DOPC   O1223129   1.809   0.774  12.870  0.0882 -0.0111 -0.3665
  188DOPC   O1123130   1.934   0.646  13.050 -0.3850  0.2537 -0.1693
  188DOPC    C123131   2.061   0.674  13.104 -0.6688  0.5397  0.6851
  188DOPC    HA23132   2.108   0.757  13.047 -1.5300  0.9942  0.6227
  188DOPC    HB23133   2.109   0.574  13.095 -2.1605 -0.0475 -1.3990
  188DOPC    C223134   2.065   0.708  13.255 -0.0024 -0.1301  0.0596
  188DOPC    HS23135   2.172   0.735  13.266  0.2173  0.1402 -2.1651
  188DOPC   O2123136   2.014   0.595  13.325 -0.1082 -0.8284 -0.4931
  188DOPC   C2123137   2.099   0.547  13.414 -0.6833 -0.0081 -0.1738
  188DOPC   O2223138   2.212   0.593  13.433 -0.0811  0.3249 -0.2067
  188DOPC   C2223139   2.037   0.432  13.493  0.4270  0.2884  0.0330
  188DOPC   H2R23140   2.026   0.348  13.421 -3.0526  2.0657 -1.7899
  188DOPC   H2S23141   1.934   0.458  13.526 -0.3059 -4.0500  1.8409
  188DOPC    C323142   1.986   0.841  13.288 -0.4117 -0.0161 -0.0684
  188DOPC    HX23143   1.877   0.819  13.281 -0.0497 -2.2245  0.5133
  188DOPC    HY23144   2.009   0.925  13.219  1.8431  0.8465  1.6272
  188DOPC   O3123145   2.012   0.891  13.423 -0.9225 -0.3734 -0.0638
  188DOPC   C3123146   2.136   0.933  13.452  0.6420  0.0177 -0.8148
  188DOPC   O3223147   2.233   0.931  13.370  0.8541  0.3377  0.0475
  188DOPC   C3223148   2.146   0.970  13.604 -0.6059  0.5531  0.2359
  188DOPC   H2X23149   2.173   1.078  13.608 -2.2043  1.0032 -0.1153
  188DOPC   H2Y23150   2.042   0.957  13.642 -0.7015  1.3012  0.2573
  188DOPC   C2323151   2.122   0.365  13.599  0.7095  0.3031 -0.3483
  188DOPC   H3R23152   2.227   0.379  13.566  0.6343  0.8905 -0.3486
  188DOPC   H3S23153   2.106   0.255  13.596  0.8687  0.2893 -0.8736
  188DOPC   C2423154   2.094   0.410  13.745 -0.8478 -0.0782 -0.3572
  188DOPC   H4R23155   1.986   0.423  13.771 -0.5471 -0.1199  0.9714
  188DOPC   H4S23156   2.151   0.505  13.751  0.8883 -1.0124 -1.4137
  188DOPC   C2523157   2.152   0.313  13.848  0.1331 -0.3637 -0.5986
  188DOPC   H5R23158   2.258   0.291  13.826  1.0515  0.4198  2.4307
  188DOPC   H5S23159   2.097   0.217  13.852  0.5950 -0.6213 -0.3615
  188DOPC   C2623160   2.148   0.373  13.992  0.2660  0.6633 -0.3359
  188DOPC   H6R23161   2.047   0.420  14.003 -0.3529 -0.8306  0.6381
  188DOPC   H6S23162   2.227   0.451  13.996  1.0170 -0.0784 -0.5186
  188DOPC   C2723163   2.170   0.266  14.102 -0.6485 -0.2316  0.4061
  188DOPC   H7R23164   2.275   0.235  14.088 -0.3512  0.3913  1.1747
  188DOPC   H7S23165   2.087   0.194  14.084 -1.4513  1.0613 -1.3319
  188DOPC   C2823166   2.180   0.328  14.239 -0.3836 -0.3219  0.2606
  188DOPC   H8R23167   2.280   0.372  14.257  1.0041 -2.5790 -1.3849
  188DOPC   H8S23168   2.174   0.244  14.312 -1.6890 -1.5934 -1.2203
  188DOPC   C2923169   2.078   0.434  14.276 -0.1947 -0.0055  0.3874
  188DOPC   H9R23170   2.095   0.530  14.224  0.4783 -0.2429  0.1606
  188DOPC  C21023171   1.985   0.419  14.378  0.4999  0.3578 -0.4009
  188DOPC  H10R23172   1.909   0.499  14.385 -1.6452 -1.6364  0.5091
  188DOPC  C21123173   1.962   0.301  14.470 -0.3059 -0.7667 -0.4729
  188DOPC  H11R23174   1.922   0.337  14.567  0.8041  0.5641 -0.4808
  188DOPC  H11S23175   2.057   0.254  14.502 -0.1979  1.2813  2.6054
  188DOPC  C21223176   1.887   0.193  14.399  0.4420  0.1057 -0.0575
  188DOPC  H12R23177   1.904   0.095  14.450 -0.2844 -0.0621 -0.1277
  188DOPC  H12S23178   1.925   0.180  14.295 -2.2459  0.5699 -1.1736
  188DOPC  C21323179   1.730   0.208  14.391  0.0452  0.0810 -0.0712
  188DOPC  H13R23180   1.716   0.317  14.377  3.0879  0.7609  1.4357
  188DOPC  H13S23181   1.679   0.189  14.488 -0.6981 -2.0084 -0.8110
  188DOPC  C21423182   1.653   0.131  14.280 -0.6848  0.4219  1.0179
  188DOPC  H14R23183   1.545   0.154  14.291 -0.9808 -0.0749 -0.6474
  188DOPC  H14S23184   1.663   0.022  14.295 -3.1883 -0.2720 -1.5097
  188DOPC  C21523185   1.707   0.148  14.141 -0.0451  0.1718 -0.1041
  188DOPC  H15R23186   1.810   0.117  14.113 -1.3455 -3.0469 -1.8820
  188DOPC  H15S23187   1.694   0.253  14.108  1.2327 -0.0363 -1.3669
  188DOPC  C21623188   1.634   0.072  14.023 -0.7253 -0.3860 -0.2006
  188DOPC  H16R23189   1.526   0.099  14.030 -0.3752  0.7585  1.6551
  188DOPC  H16S23190   1.650  -0.036  14.045  0.4169 -0.1155  0.3743
  188DOPC  C21723191   1.704   0.117  13.886 -0.7549 -0.4162 -0.5512
  188DOPC  H17R23192   1.814   0.104  13.877 -0.4947  1.2798 -0.2078
  188DOPC  H17S23193   1.684   0.224  13.865  0.9894 -0.3235 -1.9815
  188DOPC  C21823194   1.656   0.027  13.773 -0.2270 -0.3158  0.9857
  188DOPC  H18R23195   1.689  -0.075  13.800  0.8439 -0.0891  0.6094
  188DOPC  H18S23196   1.713   0.066  13.685 -0.5443 -1.9869 -0.0080
  188DOPC  H18T23197   1.547   0.036  13.753 -0.0648  1.7249  0.7487
  188DOPC   C3323198   2.238   0.887  13.683 -0.6265 -0.3652 -0.0896
  188DOPC   H3X23199   2.338   0.900  13.635 -0.2262 -0.7491  0.6203
  188DOPC   H3Y23200   2.215   0.779  13.695  0.0653 -0.4468  0.6136
  188DOPC   C3423201   2.250   0.933  13.828 -0.0783 -0.2949  0.5878
  188DOPC   H4X23202   2.249   1.044  13.830 -0.7128 -0.2924  0.3906
  188DOPC   H4Y23203   2.348   0.906  13.871  0.8377  0.9025 -0.6910
  188DOPC   C3523204   2.145   0.878  13.924  0.3679 -0.1978  0.5469
  188DOPC   H5X23205   2.183   0.776  13.949  0.9871 -0.0957  0.0532
  188DOPC   H5Y23206   2.045   0.874  13.877  0.8395  0.5833 -0.5514
  188DOPC   C3623207   2.117   0.963  14.049 -0.9203 -0.5970 -0.1399
  188DOPC   H6X23208   2.213   1.020  14.057 -2.3067  2.0389 -1.1849
  188DOPC   H6Y23209   2.034   1.036  14.038 -0.5254 -0.1461 -0.1600
  188DOPC   C3723210   2.114   0.887  14.181 -0.5452  0.0622 -0.1746
  188DOPC   H7X23211   2.046   0.803  14.154 -0.7366  0.4252 -0.8457
  188DOPC   H7Y23212   2.213   0.844  14.209 -0.2581  0.0324 -1.1795
  188DOPC   C3823213   2.043   0.957  14.294 -0.5028 -0.1191 -0.7507
  188DOPC   H8X23214   2.028   0.885  14.378 -1.2144 -1.0336 -1.6367
  188DOPC   H8Y23215   1.943   0.988  14.259  0.6312 -0.3612 -4.7566
  188DOPC   C3923216   2.131   1.071  14.345 -0.8557 -0.7337  0.1567
  188DOPC   H9X23217   2.204   1.115  14.276  0.8127 -2.6241  0.5725
  188DOPC  C31023218   2.157   1.091  14.477  0.3169  0.2555 -0.1021
  188DOPC  H10X23219   2.226   1.169  14.512 -0.0921 -0.0293  1.3952
  188DOPC  C31123220   2.084   1.020  14.590 -0.2804 -0.1545  0.1613
  188DOPC  H11X23221   2.142   0.928  14.614 -0.1318  0.0313  0.5256
  188DOPC  H11Y23222   1.985   0.986  14.554 -0.0779 -0.8206  0.2033
  188DOPC  C31223223   2.052   1.106  14.713 -0.1670 -0.1856  0.1244
  188DOPC  H12X23224   1.995   1.198  14.689 -2.0708 -1.1971  0.5957
  188DOPC  H12Y23225   2.143   1.148  14.760 -0.6056  1.1496 -0.1746
  188DOPC  C31323226   1.959   1.037  14.815  0.2457  0.1964 -0.0510
  188DOPC  H13X23227   1.861   1.006  14.772  0.6797  1.3001 -1.9270
  188DOPC  H13Y23228   2.013   0.943  14.840 -2.0650 -1.2644 -0.2259
  188DOPC  C31423229   1.948   1.131  14.935 -0.3173  0.4053 -0.0810
  188DOPC  H14X23230   2.037   1.195  14.950  0.2985 -0.6231  0.8336
  188DOPC  H14Y23231   1.858   1.197  14.937 -1.2934 -0.8799  0.0363
  188DOPC  C31523232   1.930   1.044  15.056  0.0798 -0.8593 -1.1903
  188DOPC  H15X23233   1.996   0.955  15.055  0.4024 -0.6200 -2.3648
  188DOPC  H15Y23234   1.828   0.999  15.057 -0.9046  1.2234 -1.6800
  188DOPC  C31623235   1.947   1.116  15.199 -0.7020  0.1428 -0.1871
  188DOPC  H16X23236   2.039   1.178  15.204 -2.2386  2.6131 -0.9128
  188DOPC  H16Y23237   1.860   1.182  15.219 -2.5917 -2.2372 -0.0668
  188DOPC  C31723238   1.949   1.015  15.320  0.0210 -0.0860  0.3040
  188DOPC  H17X23239   1.871   0.938  15.304 -0.7161  0.6044  0.5428
  188DOPC  H17Y23240   2.037   0.951  15.296 -0.0570 -0.1582  0.2080
  188DOPC  C31823241   1.955   1.075  15.462  0.5615  0.1371 -0.3828
  188DOPC  H18X23242   2.019   1.165  15.466  1.1751 -0.2977 -0.2787
  188DOPC  H18Y23243   1.855   1.111  15.494  0.5986 -1.6455  1.9959
  188DOPC  H18Z23244   1.989   1.001  15.538 -1.5866 -2.9132 -2.1288
  189DOPC     N23245   5.262   7.548  12.701 -0.0903  0.4032 -0.7246
  189DOPC   C1223246   5.173   7.501  12.816 -0.1951 -0.3237 -0.4577
  189DOPC  H12A23247   5.157   7.394  12.813  0.6766 -0.4596 -0.4266
  189DOPC  H12B23248   5.074   7.545  12.816 -0.8663 -1.6981 -2.3410
  189DOPC   C1323249   5.184   7.499  12.577 -0.8498 -0.4890 -0.0957
  189DOPC  H13A23250   5.179   7.392  12.577  0.5675 -0.5833  0.4243
  189DOPC  H13B23251   5.081   7.528  12.566 -0.9760 -0.9564 -0.1602
  189DOPC  H13C23252   5.246   7.533  12.495  1.2440 -0.5891  1.3593
  189DOPC   C1423253   5.402   7.508  12.720 -0.8509  0.2651 -0.2946
  189DOPC  H14A23254   5.438   7.554  12.811  0.7790 -0.9587 -0.2738
  189DOPC  H14B23255   5.412   7.400  12.725  0.0879  0.3522 -0.1546
  189DOPC  H14C23256   5.460   7.546  12.637  0.4969  1.7671  1.2751
  189DOPC   C1523257   5.257   7.693  12.686  0.5481  0.3494 -0.4399
  189DOPC  H15A23258   5.265   7.738  12.784  0.9342 -1.9778  0.6750
  189DOPC  H15B23259   5.162   7.721  12.642 -1.3053 -3.6252  0.6110
  189DOPC  H15C23260   5.342   7.729  12.631  0.5445  0.1681 -0.5627
  189DOPC   C1123261   5.226   7.529  12.967  0.0626  1.1110  0.1998
  189DOPC  H11A23262   5.147   7.487  13.033  0.2583 -0.9730 -0.8141
  189DOPC  H11B23263   5.315   7.468  12.994 -0.5872 -0.7253 -1.5565
  189DOPC     P23264   5.371   7.746  13.045 -0.5143 -0.1575  0.5468
  189DOPC   O1323265   5.354   7.893  13.028  0.2939  0.3681  0.1536
  189DOPC   O1423266   5.486   7.685  12.974  0.5753  0.2441 -0.3013
  189DOPC   O1223267   5.239   7.669  12.998  0.4370  0.0813  0.3156
  189DOPC   O1123268   5.376   7.707  13.196 -0.2975 -0.0307  0.1129
  189DOPC    C123269   5.268   7.715  13.285 -0.0916 -0.2153  0.4066
  189DOPC    HA23270   5.284   7.656  13.378  1.8245  0.3420  0.4710
  189DOPC    HB23271   5.176   7.674  13.239 -0.4708  0.0497  0.9082
  189DOPC    C223272   5.248   7.864  13.331  0.0647 -0.1085 -0.0810
  189DOPC    HS23273   5.228   7.938  13.250  0.0502 -1.0232 -0.9251
  189DOPC   O2123274   5.364   7.910  13.403  0.3102  0.3846 -0.5853
  189DOPC   C2123275   5.383   8.045  13.404  0.1889  0.5301  0.1165
  189DOPC   O2223276   5.317   8.127  13.346 -0.6780 -0.2638  0.0500
  189DOPC   C2223277   5.500   8.081  13.506 -0.2535  0.3591  0.2249
  189DOPC   H2R23278   5.586   8.019  13.471 -0.8147 -0.3194  0.0299
  189DOPC   H2S23279   5.472   8.028  13.599  2.5421 -0.5560  0.6608
  189DOPC    C323280   5.136   7.868  13.440 -0.7314 -0.5115  0.0479
  189DOPC    HX23281   5.128   7.972  13.477 -0.9679  0.0606 -1.5481
  189DOPC    HY23282   5.177   7.796  13.515  1.9371 -0.2172 -1.0281
  189DOPC   O3123283   5.010   7.817  13.397 -0.3059  0.1794 -0.1986
  189DOPC   C3123284   4.927   7.912  13.352 -0.0116 -0.0814 -1.1393
  189DOPC   O3223285   4.958   8.026  13.327  0.2501  0.0230 -0.2238
  189DOPC   C3223286   4.790   7.849  13.330  0.8520  0.1781 -0.0754
  189DOPC   H2X23287   4.753   7.866  13.227  0.3021  0.9052  0.2381
  189DOPC   H2Y23288   4.792   7.738  13.342 -3.5115 -0.0811 -0.2866
  189DOPC   C2323289   5.530   8.226  13.525  0.2781  0.1271 -0.0626
  189DOPC   H3R23290   5.442   8.292  13.546  0.0413 -0.8951  2.5393
  189DOPC   H3S23291   5.583   8.253  13.431  0.2737  0.5487  0.0549
  189DOPC   C2423292   5.637   8.251  13.635  0.6999  0.2034  0.2028
  189DOPC   H4R23293   5.729   8.210  13.589 -0.0364 -0.5708 -0.6352
  189DOPC   H4S23294   5.602   8.201  13.728  1.4407  1.7452  1.3344
  189DOPC   C2523295   5.669   8.395  13.670 -0.2058  0.5830  0.1999
  189DOPC   H5R23296   5.590   8.441  13.734 -1.7379 -0.1172 -1.0951
  189DOPC   H5S23297   5.664   8.456  13.576  0.4228  1.0432  0.4608
  189DOPC   C2623298   5.800   8.414  13.734  0.3171  0.4004 -0.3603
  189DOPC   H6R23299   5.832   8.520  13.723  3.4873 -0.6258 -2.2864
  189DOPC   H6S23300   5.882   8.365  13.678  0.2581  0.4987 -0.5334
  189DOPC   C2723301   5.803   8.360  13.877 -0.6020 -0.0003 -0.0010
  189DOPC   H7R23302   5.804   8.250  13.861 -0.6135  0.2301 -1.8335
  189DOPC   H7S23303   5.703   8.378  13.922 -0.7410  0.5377 -0.5106
  189DOPC   C2823304   5.923   8.408  13.961 -0.3246  0.5965 -0.1345
  189DOPC   H8R23305   5.892   8.508  13.996  0.6325  0.5288  0.9722
  189DOPC   H8S23306   6.017   8.410  13.901 -0.1517  0.8033  0.1396
  189DOPC   C2923307   5.925   8.315  14.078  1.0386  0.2959 -0.1710
  189DOPC   H9R23308   5.840   8.326  14.146  0.3460 -1.9878 -0.5696
  189DOPC  C21023309   6.024   8.231  14.112 -0.5168  0.1860 -0.1064
  189DOPC  H10R23310   6.004   8.169  14.200  0.4139  0.8533  0.5888
  189DOPC  C21123311   6.149   8.203  14.043 -0.5703  0.8067 -0.3923
  189DOPC  H11R23312   6.238   8.242  14.096 -1.4001  0.1242  1.5859
  189DOPC  H11S23313   6.154   8.239  13.938  1.6059  1.1300 -0.2268
  189DOPC  C21223314   6.173   8.050  14.022  0.5662  0.8056 -0.3769
  189DOPC  H12R23315   6.254   8.045  13.947 -0.6874  1.0020 -1.7887
  189DOPC  H12S23316   6.082   8.003  13.979 -0.3755  1.1219  1.1685
  189DOPC  C21323317   6.209   7.980  14.157 -0.3292  0.3060 -0.3424
  189DOPC  H13R23318   6.136   7.996  14.240 -0.2714 -1.0517 -0.0120
  189DOPC  H13S23319   6.310   8.015  14.188  1.2505 -3.0252 -1.3212
  189DOPC  C21423320   6.232   7.828  14.145  0.1876 -0.5462  0.7529
  189DOPC  H14R23321   6.297   7.801  14.059  0.4327  1.6073  0.2051
  189DOPC  H14S23322   6.129   7.798  14.117 -0.9001  2.6201  0.9436
  189DOPC  C21523323   6.290   7.773  14.271 -0.2021 -0.0808 -0.4420
  189DOPC  H15R23324   6.217   7.755  14.353  0.1639 -0.3263 -0.1677
  189DOPC  H15S23325   6.366   7.848  14.303  0.0516  0.0493 -1.3296
  189DOPC  C21623326   6.363   7.626  14.250 -0.3592 -0.6977  0.3493
  189DOPC  H16R23327   6.421   7.621  14.156 -1.0249  0.0695 -0.1147
  189DOPC  H16S23328   6.279   7.555  14.233 -0.7001 -0.1453 -0.3274
  189DOPC  C21723329   6.458   7.594  14.366 -0.0206 -0.4996 -0.3549
  189DOPC  H17R23330   6.530   7.679  14.371 -0.5089  0.0877 -2.3690
  189DOPC  H17S23331   6.520   7.504  14.346  1.2692 -0.1139  1.5134
  189DOPC  C21823332   6.380   7.574  14.500  0.1601 -0.1672  0.3419
  189DOPC  H18R23333   6.303   7.650  14.523 -0.6850 -1.0028  0.3488
  189DOPC  H18S23334   6.455   7.565  14.581  0.1641  2.1595  0.6516
  189DOPC  H18T23335   6.322   7.481  14.482  0.8699 -0.3481 -1.1641
  189DOPC   C3323336   4.687   7.898  13.434  0.4731 -0.7549  0.4654
  189DOPC   H3X23337   4.595   7.839  13.410 -0.7679  0.2695  2.4418
  189DOPC   H3Y23338   4.677   8.005  13.406  2.5480 -1.0107 -1.5361
  189DOPC   C3423339   4.731   7.879  13.577  0.9281 -0.2319  0.8581
  189DOPC   H4X23340   4.804   7.954  13.614  1.6507 -1.3244  1.7188
  189DOPC   H4Y23341   4.787   7.786  13.600  1.8658 -0.1428 -0.8916
  189DOPC   C3523342   4.603   7.896  13.665  0.3751 -0.0334 -1.0626
  189DOPC   H5X23343   4.530   7.818  13.634  0.2329  0.4571 -1.9802
  189DOPC   H5Y23344   4.544   7.988  13.643 -1.0321 -1.1774 -2.2466
  189DOPC   C3623345   4.646   7.901  13.814 -0.2205 -0.0144  0.3168
  189DOPC   H6X23346   4.556   7.876  13.875 -0.7016 -0.0268 -0.3971
  189DOPC   H6Y23347   4.722   7.822  13.833  0.4943  0.4762 -0.4654
  189DOPC   C3723348   4.701   8.038  13.856  0.2505 -0.6570 -1.0797
  189DOPC   H7X23349   4.791   8.066  13.797  0.8399  2.4109  1.0540
  189DOPC   H7Y23350   4.624   8.118  13.845  0.4704  0.2012  2.5554
  189DOPC   C3823351   4.741   8.049  14.010  0.6105  0.2403 -0.4030
  189DOPC   H8X23352   4.773   8.154  14.030 -0.0625  0.4454 -0.4051
  189DOPC   H8Y23353   4.819   7.975  14.038 -1.3569 -1.3273  1.2346
  189DOPC   C3923354   4.621   8.015  14.102 -0.3373  0.4068  0.2331
  189DOPC   H9X23355   4.547   8.095  14.115  0.2035  0.6365  2.2227
  189DOPC  C31023356   4.608   7.912  14.190 -0.2111  0.9766 -0.6221
  189DOPC  H10X23357   4.524   7.910  14.261 -1.0675  0.9540 -1.6141
  189DOPC  C31123358   4.713   7.800  14.214 -0.0969 -0.1520 -0.1730
  189DOPC  H11X23359   4.803   7.806  14.148  0.0682  0.6296  0.1028
  189DOPC  H11Y23360   4.670   7.699  14.198 -1.3420  0.5804 -1.7698
  189DOPC  C31223361   4.766   7.801  14.360  0.2380  0.0028  0.2275
  189DOPC  H12X23362   4.672   7.796  14.419 -0.1866  0.4658 -0.3967
  189DOPC  H12Y23363   4.813   7.900  14.375 -0.9739  0.6960 -0.4238
  189DOPC  C31323364   4.859   7.690  14.394 -0.2309  0.3736  0.3850
  189DOPC  H13X23365   4.815   7.588  14.388  1.8916 -0.5640 -0.2844
  189DOPC  H13Y23366   4.942   7.689  14.320 -0.5508 -1.9197 -0.0002
  189DOPC  C31423367   4.937   7.710  14.527  0.9080 -0.0758  0.1898
  189DOPC  H14X23368   4.975   7.814  14.532  1.0865 -0.0495 -1.3179
  189DOPC  H14Y23369   4.854   7.704  14.601 -1.6729 -0.0547 -2.5325
  189DOPC  C31523370   5.054   7.616  14.555 -0.3522 -0.9040  0.6368
  189DOPC  H15X23371   5.097   7.641  14.655 -1.1658 -1.1390  1.0561
  189DOPC  H15Y23372   5.134   7.643  14.483 -1.5040  1.5221  0.1523
  189DOPC  C31623373   5.037   7.471  14.548 -0.5741  0.0146  0.0260
  189DOPC  H16X23374   4.944   7.449  14.606 -0.6848 -0.8199 -0.4507
  189DOPC  H16Y23375   5.022   7.439  14.443 -0.2715  0.8747 -0.2864
  189DOPC  C31723376   5.152   7.388  14.614  0.2437 -0.8101  0.5498
  189DOPC  H17X23377   5.249   7.436  14.593 -0.3652  0.1802 -0.0588
  189DOPC  H17Y23378   5.136   7.391  14.724  0.6898  0.1695  0.5965
  189DOPC  C31823379   5.148   7.244  14.569 -0.1544 -0.4745 -0.4846
  189DOPC  H18X23380   5.050   7.197  14.549 -0.5831  1.0614 -2.2713
  189DOPC  H18Y23381   5.201   7.237  14.471  0.3244  0.3297 -0.2920
  189DOPC  H18Z23382   5.191   7.189  14.655 -2.0682  1.1027  1.5912
  190DOPC     N23383   3.980   6.605  12.902 -0.0958 -0.7454  0.2086
  190DOPC   C1223384   3.848   6.556  12.968  0.0507 -0.1670  0.3028
  190DOPC  H12A23385   3.862   6.452  12.994 -2.8327 -1.5673 -2.8999
  190DOPC  H12B23386   3.769   6.567  12.895  0.0503  4.3306  0.6980
  190DOPC   C1323387   3.960   6.742  12.839  0.4006  0.2173  0.0374
  190DOPC  H13A23388   3.893   6.808  12.893  0.7132 -1.4999  2.7552
  190DOPC  H13B23389   4.054   6.789  12.815  0.8138 -2.0079 -3.1766
  190DOPC  H13C23390   3.902   6.731  12.749  1.2596 -2.5570 -0.2615
  190DOPC   C1423391   4.021   6.512  12.792 -0.3704  0.1082 -0.5770
  190DOPC  H14A23392   4.033   6.414  12.835 -2.3998 -0.8253 -1.9983
  190DOPC  H14B23393   3.949   6.502  12.712 -1.3926 -3.3379  0.6034
  190DOPC  H14C23394   4.120   6.544  12.762 -0.3262  0.2082 -0.3283
  190DOPC   C1523395   4.087   6.606  13.003  0.6392  0.7098  0.2193
  190DOPC  H15A23396   4.176   6.652  12.962  1.7044  0.3177  1.9630
  190DOPC  H15B23397   4.113   6.506  13.036 -1.7205  0.3550  1.1528
  190DOPC  H15C23398   4.065   6.671  13.086 -1.6509  1.3860 -0.8381
  190DOPC   C1123399   3.787   6.632  13.091  0.3445  0.1034  0.0254
  190DOPC  H11A23400   3.699   6.586  13.140  1.4213 -0.1937  1.7822
  190DOPC  H11B23401   3.868   6.644  13.166  0.0582  0.2422  0.3193
  190DOPC     P23402   3.613   6.805  12.985 -0.0693  0.2161  0.1919
  190DOPC   O1323403   3.549   6.694  12.913  0.0835  0.4067  0.3966
  190DOPC   O1423404   3.625   6.934  12.911 -0.4022  0.1381  0.1105
  190DOPC   O1223405   3.754   6.762  13.039 -0.4070 -0.2994 -0.3161
  190DOPC   O1123406   3.529   6.824  13.114  0.2071 -0.1894 -0.2968
  190DOPC    C123407   3.521   6.950  13.185 -0.2841 -0.4038  0.1055
  190DOPC    HA23408   3.429   6.942  13.247  0.5548 -1.5212  1.2426
  190DOPC    HB23409   3.506   7.038  13.118 -1.8820 -2.1286 -1.9756
  190DOPC    C223410   3.637   6.975  13.284 -0.4888 -0.3906  0.1632
  190DOPC    HS23411   3.725   6.971  13.217 -1.8543  1.4785 -1.8906
  190DOPC   O2123412   3.641   6.865  13.371 -0.2175  0.1514  0.3674
  190DOPC   C2123413   3.759   6.846  13.424 -0.3459  0.0179 -0.2111
  190DOPC   O2223414   3.857   6.921  13.399  0.2072  0.6343  0.0117
  190DOPC   C2223415   3.768   6.716  13.510 -0.1217 -0.0997 -0.1562
  190DOPC   H2R23416   3.831   6.641  13.457 -0.4342 -1.0683  0.7935
  190DOPC   H2S23417   3.661   6.689  13.519 -0.3062  0.4958 -0.5463
  190DOPC    C323418   3.621   7.114  13.357 -0.6100  0.7696  0.3815
  190DOPC    HX23419   3.631   7.190  13.277 -0.8878  1.3077  0.8588
  190DOPC    HY23420   3.704   7.133  13.428 -0.8193  0.4745  0.7075
  190DOPC   O3123421   3.493   7.124  13.415 -0.2808 -0.0492  0.5048
  190DOPC   C3123422   3.488   7.118  13.548 -0.3981 -0.1674 -0.1759
  190DOPC   O3223423   3.584   7.124  13.622  0.3020 -0.4929 -0.4561
  190DOPC   C3223424   3.347   7.119  13.591  0.1449  0.3413  0.1478
  190DOPC   H2X23425   3.352   7.095  13.699 -0.3135 -1.4618 -0.2031
  190DOPC   H2Y23426   3.302   7.220  13.582 -1.0792 -0.1758  0.2614
  190DOPC   C2323427   3.825   6.735  13.650  0.3983 -0.2858  0.0210
  190DOPC   H3R23428   3.935   6.750  13.648  0.3869 -0.2089 -0.0937
  190DOPC   H3S23429   3.803   6.649  13.717 -0.9634  0.3881  0.4664
  190DOPC   C2423430   3.747   6.853  13.722 -0.0505 -0.8277 -0.2508
  190DOPC   H4R23431   3.640   6.847  13.695 -0.2235 -0.9285  0.4399
  190DOPC   H4S23432   3.791   6.951  13.692  0.3677 -0.6502  0.8809
  190DOPC   C2523433   3.751   6.849  13.874 -0.3720 -0.2715 -0.5022
  190DOPC   H5R23434   3.854   6.851  13.914 -0.8032 -0.7502  0.6781
  190DOPC   H5S23435   3.717   6.746  13.899 -1.3622  0.1504 -0.0335
  190DOPC   C2623436   3.655   6.942  13.948  0.5672 -0.1850 -0.3038
  190DOPC   H6R23437   3.549   6.909  13.936  1.2531 -2.4776 -0.5489
  190DOPC   H6S23438   3.658   7.047  13.911 -3.1869  0.0467 -0.3096
  190DOPC   C2723439   3.674   6.934  14.102 -0.2503 -0.4470  0.0795
  190DOPC   H7R23440   3.777   6.955  14.139 -1.2033  0.1278  2.6462
  190DOPC   H7S23441   3.649   6.834  14.143 -1.5678 -0.4035 -0.5554
  190DOPC   C2823442   3.583   7.031  14.173  0.5432 -0.2965  0.1178
  190DOPC   H8R23443   3.613   7.131  14.136  2.0384 -0.4961  0.7200
  190DOPC   H8S23444   3.593   7.019  14.283 -2.2136 -2.4615  0.2624
  190DOPC   C2923445   3.432   7.015  14.141 -0.2197  0.3676 -0.5526
  190DOPC   H9R23446   3.408   6.907  14.141  0.1905  0.2709 -0.9794
  190DOPC  C21023447   3.340   7.106  14.116  0.1909 -0.4982 -1.0626
  190DOPC  H10R23448   3.245   7.070  14.073 -0.3520 -1.4091  0.8162
  190DOPC  C21123449   3.379   7.255  14.102 -0.4155  0.2650  0.0209
  190DOPC  H11R23450   3.465   7.280  14.167 -0.8565  0.3828  0.5717
  190DOPC  H11S23451   3.301   7.325  14.138 -1.0236 -0.2347 -0.2989
  190DOPC  C21223452   3.407   7.279  13.951  0.0489  0.9163  0.1414
  190DOPC  H12R23453   3.312   7.239  13.909  1.3058 -1.8535 -0.2828
  190DOPC  H12S23454   3.485   7.208  13.916  0.3386  1.2844  0.0363
  190DOPC  C21323455   3.446   7.416  13.905  0.5282  0.1773 -0.2221
  190DOPC  H13R23456   3.527   7.451  13.973 -0.1108  3.0911 -0.8298
  190DOPC  H13S23457   3.361   7.486  13.918  1.0882  0.7196  0.6789
  190DOPC  C21423458   3.513   7.423  13.770  0.1306  0.0231  0.3805
  190DOPC  H14R23459   3.432   7.399  13.698 -0.3656 -0.2622  1.0261
  190DOPC  H14S23460   3.597   7.353  13.753  0.4343  0.6907 -1.0030
  190DOPC  C21523461   3.568   7.565  13.750  0.2217 -0.1141 -0.0195
  190DOPC  H15R23462   3.630   7.573  13.843  2.7283 -2.0213 -1.3853
  190DOPC  H15S23463   3.486   7.638  13.744  1.3271  1.0740 -1.2461
  190DOPC  C21623464   3.682   7.581  13.645  0.0297  0.1815 -0.1782
  190DOPC  H16R23465   3.637   7.600  13.545  0.1321  0.2296 -0.2155
  190DOPC  H16S23466   3.728   7.481  13.638  2.6665  1.3677 -1.3306
  190DOPC  C21723467   3.777   7.690  13.682 -0.5085  0.5066 -0.9245
  190DOPC  H17R23468   3.807   7.667  13.786 -0.8337  1.2859 -0.6572
  190DOPC  H17S23469   3.729   7.789  13.668  1.3248  1.4959 -0.5377
  190DOPC  C21823470   3.899   7.683  13.588 -0.3260 -0.2202  0.1810
  190DOPC  H18R23471   3.860   7.667  13.485  0.1919 -0.0418 -0.0436
  190DOPC  H18S23472   3.965   7.596  13.610  0.0874 -0.3449 -1.4457
  190DOPC  H18T23473   3.957   7.778  13.592  0.4552 -0.7216  1.9515
  190DOPC   C3323474   3.273   7.020  13.515  0.1470 -0.6075 -0.2662
  190DOPC   H3X23475   3.294   7.034  13.407  0.6936  1.9333  0.1141
  190DOPC   H3Y23476   3.165   7.040  13.531  0.3783  1.1772 -0.7961
  190DOPC   C3423477   3.295   6.881  13.573 -0.4949  0.6339  0.3810
  190DOPC   H4X23478   3.403   6.859  13.589 -0.5093  1.3748  1.6059
  190DOPC   H4Y23479   3.255   6.810  13.497  1.0245 -1.2061  1.1904
  190DOPC   C3523480   3.222   6.840  13.703  0.0141 -0.1183 -0.6276
  190DOPC   H5X23481   3.113   6.847  13.682  0.2097 -2.2657 -2.8162
  190DOPC   H5Y23482   3.257   6.898  13.791 -0.8255 -2.9990  1.8152
  190DOPC   C3623483   3.244   6.690  13.745  0.2368  0.5492 -0.4413
  190DOPC   H6X23484   3.163   6.651  13.810  0.0866 -1.4348 -1.7361
  190DOPC   H6Y23485   3.237   6.635  13.648 -1.8558 -0.4131  0.1918
  190DOPC   C3723486   3.384   6.663  13.808  0.1329 -0.2718 -0.1124
  190DOPC   H7X23487   3.459   6.688  13.729  0.0697  0.2412 -0.0107
  190DOPC   H7Y23488   3.403   6.739  13.886  0.3129 -0.4186 -0.0128
  190DOPC   C3823489   3.397   6.519  13.855 -0.3106  0.6841 -0.1994
  190DOPC   H8X23490   3.388   6.458  13.763 -0.0645  1.6458 -0.8809
  190DOPC   H8Y23491   3.312   6.492  13.921  0.3582 -0.1585  0.3379
  190DOPC   C3923492   3.531   6.499  13.911 -0.1416 -0.3093  0.4415
  190DOPC   H9X23493   3.612   6.490  13.836 -1.8167 -0.6426 -1.4313
  190DOPC  C31023494   3.564   6.490  14.040 -0.0268  0.4386  0.2631
  190DOPC  H10X23495   3.669   6.481  14.070 -0.3746 -1.4279  1.0533
  190DOPC  C31123496   3.470   6.491  14.164  0.4872  1.0447  0.6583
  190DOPC  H11X23497   3.501   6.420  14.243  0.5054  0.3855  0.0667
  190DOPC  H11Y23498   3.373   6.450  14.128  2.1156 -1.0793 -1.6489
  190DOPC  C31223499   3.447   6.628  14.230  0.2257 -0.5608 -0.2624
  190DOPC  H12X23500   3.403   6.697  14.154  1.0253  0.8708  0.5366
  190DOPC  H12Y23501   3.542   6.677  14.260 -0.2831 -1.2991  2.9197
  190DOPC  C31323502   3.350   6.632  14.354  0.0750  0.4447 -0.5854
  190DOPC  H13X23503   3.246   6.617  14.318  0.0719 -1.1976  0.0208
  190DOPC  H13Y23504   3.373   6.546  14.421  1.8354 -1.5904 -3.6124
  190DOPC  C31423505   3.350   6.767  14.424 -0.0377  0.4717  0.1823
  190DOPC  H14X23506   3.444   6.779  14.482 -0.5648 -0.8089  1.3721
  190DOPC  H14Y23507   3.354   6.847  14.348 -2.5866 -0.5982 -1.2006
  190DOPC  C31523508   3.239   6.784  14.530  0.8301  0.2405 -0.5292
  190DOPC  H15X23509   3.139   6.795  14.482 -1.3882 -0.9228  3.3752
  190DOPC  H15Y23510   3.260   6.885  14.573  2.5446 -0.9841  1.6964
  190DOPC  C31623511   3.226   6.674  14.635  0.1099  0.3224  0.1297
  190DOPC  H16X23512   3.203   6.580  14.581  0.7150  0.5246 -0.4887
  190DOPC  H16Y23513   3.325   6.665  14.685  0.8569  2.6179 -0.7799
  190DOPC  C31723514   3.116   6.696  14.736 -0.8363  0.0968 -0.1709
  190DOPC  H17X23515   3.125   6.805  14.759  1.7068  0.4168 -2.2593
  190DOPC  H17Y23516   3.014   6.682  14.695 -1.3346  1.5913  0.4510
  190DOPC  C31823517   3.138   6.626  14.874  0.2622  0.0770  0.1913
  190DOPC  H18X23518   3.159   6.518  14.857 -1.6514 -0.1468 -1.1109
  190DOPC  H18Y23519   3.230   6.660  14.926  0.5661  0.5986 -0.6601
  190DOPC  H18Z23520   3.049   6.651  14.935 -0.9509 -1.3802 -0.9041
  191DOPC     N23521   6.045   7.215  12.683  0.5436  0.4935 -0.0802
  191DOPC   C1223522   5.940   7.260  12.780 -0.0624 -0.5166 -0.0707
  191DOPC  H12A23523   5.889   7.176  12.824  0.8304 -1.2229 -0.3617
  191DOPC  H12B23524   5.868   7.321  12.727 -0.2089  3.1155  3.7322
  191DOPC   C1323525   6.157   7.150  12.758  0.4366  0.1565 -0.7004
  191DOPC  H13A23526   6.225   7.097  12.693 -0.9604 -1.9587 -0.5280
  191DOPC  H13B23527   6.221   7.216  12.814 -1.2733  0.3224  1.1593
  191DOPC  H13C23528   6.116   7.074  12.822 -1.3606  1.0264 -0.7545
  191DOPC   C1423529   6.103   7.331  12.607 -0.2042 -0.0991 -0.1329
  191DOPC  H14A23530   6.192   7.300  12.554  1.2071  1.3058  1.3018
  191DOPC  H14B23531   6.035   7.370  12.533 -0.9690 -0.5429  0.3228
  191DOPC  H14C23532   6.139   7.410  12.671 -1.8344 -1.3006  2.4229
  191DOPC   C1523533   5.989   7.117  12.581  0.3511 -0.3485  0.0664
  191DOPC  H15A23534   6.068   7.058  12.537  0.2952  2.4042 -4.3967
  191DOPC  H15B23535   5.945   7.178  12.503  0.4041 -2.4227 -1.6815
  191DOPC  H15C23536   5.915   7.053  12.626 -0.2322  0.4231  0.2154
  191DOPC   C1123537   5.989   7.366  12.887 -0.0008  0.9658 -0.5536
  191DOPC  H11A23538   5.901   7.362  12.955  0.0557 -0.1868 -0.5189
  191DOPC  H11B23539   6.072   7.320  12.945 -0.3792 -0.0426 -0.7785
  191DOPC     P23540   5.924   7.616  12.831 -0.1685 -0.2570 -0.1386
  191DOPC   O1323541   5.856   7.614  12.697 -0.5793 -0.0192  0.3653
  191DOPC   O1423542   6.000   7.740  12.866 -0.1981  0.3483 -0.6661
  191DOPC   O1223543   6.025   7.494  12.838  0.3140  0.2757 -0.0388
  191DOPC   O1123544   5.823   7.576  12.941  0.7927 -0.2633 -0.3664
  191DOPC    C123545   5.821   7.654  13.068 -0.5581 -0.1686 -0.3938
  191DOPC    HA23546   5.724   7.641  13.122 -0.6807 -1.2876 -0.8526
  191DOPC    HB23547   5.815   7.764  13.055 -1.5274 -0.1097  0.3934
  191DOPC    C223548   5.941   7.613  13.162 -0.1872  0.4904 -0.3754
  191DOPC    HS23549   6.029   7.637  13.098 -0.0268 -2.6333 -1.5138
  191DOPC   O2123550   5.958   7.468  13.185  0.3229 -0.4031 -0.5367
  191DOPC   C2123551   6.079   7.420  13.225  0.3365 -0.0271 -0.2600
  191DOPC   O2223552   6.179   7.485  13.226 -0.1745 -0.0486 -0.2176
  191DOPC   C2223553   6.055   7.275  13.252  0.0409  0.3127  0.2304
  191DOPC   H2R23554   6.029   7.238  13.151  0.4284 -0.4942  0.4231
  191DOPC   H2S23555   5.960   7.263  13.308 -0.4932  0.1619 -0.6871
  191DOPC    C323556   5.933   7.692  13.292 -0.0844  0.4950 -0.0145
  191DOPC    HX23557   5.955   7.799  13.275  2.3755 -0.0308 -0.4622
  191DOPC    HY23558   6.013   7.654  13.359  2.2604  1.4474 -2.1427
  191DOPC   O3123559   5.801   7.694  13.348  0.3777 -0.5856 -0.3550
  191DOPC   C3123560   5.786   7.615  13.454  0.0004  0.6792  0.2804
  191DOPC   O3223561   5.868   7.530  13.487  0.3737  0.5523 -0.6771
  191DOPC   C3223562   5.654   7.645  13.531  0.9934  0.9188  0.8502
  191DOPC   H2X23563   5.647   7.754  13.549 -1.4586  0.7569  1.2286
  191DOPC   H2Y23564   5.568   7.609  13.470  2.7228 -1.9501 -0.0936
  191DOPC   C2323565   6.176   7.202  13.319  0.1253  0.2949  0.2845
  191DOPC   H3R23566   6.266   7.229  13.260 -0.5429 -0.1194 -0.9590
  191DOPC   H3S23567   6.153   7.094  13.306  0.5654  0.4227 -1.8160
  191DOPC   C2423568   6.201   7.232  13.466 -0.4595 -0.6651  0.5133
  191DOPC   H4R23569   6.112   7.240  13.532  0.7175  2.7251  1.9184
  191DOPC   H4S23570   6.233   7.338  13.475  0.9513 -1.1555  1.6074
  191DOPC   C2523571   6.304   7.140  13.527 -0.0815  0.5405 -0.2465
  191DOPC   H5R23572   6.326   7.182  13.627  0.8451 -1.4435  0.4372
  191DOPC   H5S23573   6.394   7.135  13.461 -0.7556 -1.9931 -1.1042
  191DOPC   C2623574   6.241   7.003  13.552 -0.3714 -0.2279 -0.3671
  191DOPC   H6R23575   6.310   6.918  13.565 -0.6331 -0.3430  0.3032
  191DOPC   H6S23576   6.169   6.974  13.473 -1.6517 -0.2031  0.7586
  191DOPC   C2723577   6.150   7.006  13.673  0.4599 -0.3342 -0.6569
  191DOPC   H7R23578   6.057   7.063  13.654 -0.2282 -1.2161 -0.0289
  191DOPC   H7S23579   6.193   7.057  13.762 -2.5228 -0.0890  0.7648
  191DOPC   C2823580   6.101   6.876  13.725 -0.0456  0.0545  0.3350
  191DOPC   H8R23581   6.183   6.810  13.761  1.9492 -0.1209 -3.8986
  191DOPC   H8S23582   6.053   6.821  13.641  0.2151  0.0080  0.2165
  191DOPC   C2923583   5.973   6.885  13.810 -0.9157 -0.4033  0.0468
  191DOPC   H9R23584   5.880   6.886  13.751 -1.7591  0.4569  1.3443
  191DOPC  C21023585   5.978   6.894  13.942  0.0922  0.5921  0.4919
  191DOPC  H10R23586   5.885   6.876  13.999  0.4165  2.1017  1.5327
  191DOPC  C21123587   6.106   6.921  14.019  0.5958  1.0725 -0.2432
  191DOPC  H11R23588   6.191   6.908  13.949  0.3065 -1.5521 -0.2010
  191DOPC  H11S23589   6.120   6.843  14.097 -2.5738  1.2209  0.5983
  191DOPC  C21223590   6.116   7.053  14.095  0.1154  0.3242  1.5737
  191DOPC  H12R23591   6.113   7.136  14.022  3.0918 -0.0043  0.9628
  191DOPC  H12S23592   6.218   7.069  14.135  0.5948  0.5390  0.3056
  191DOPC  C21323593   6.020   7.086  14.206 -0.7447  0.7965 -0.0825
  191DOPC  H13R23594   6.019   6.996  14.271 -1.2236  0.4016 -0.6212
  191DOPC  H13S23595   5.911   7.085  14.184 -0.6387 -0.0946 -0.6168
  191DOPC  C21423596   6.047   7.213  14.288 -0.2408  0.2212  1.0298
  191DOPC  H14R23597   6.028   7.298  14.220 -0.7385  0.1831  1.1175
  191DOPC  H14S23598   6.151   7.214  14.328 -0.1924  0.4483  0.9005
  191DOPC  C21523599   5.956   7.224  14.412  0.5135 -0.1906  0.3355
  191DOPC  H15R23600   5.945   7.132  14.474 -1.5991 -0.1093  0.1497
  191DOPC  H15S23601   5.854   7.254  14.382  1.4271  1.0867 -1.7420
  191DOPC  C21623602   6.008   7.330  14.505  0.2252  0.1721 -0.0075
  191DOPC  H16R23603   6.061   7.407  14.446 -2.1774  0.8755 -1.4101
  191DOPC  H16S23604   6.084   7.275  14.565 -1.7165 -2.0100  0.6357
  191DOPC  C21723605   5.902   7.375  14.605  0.0321 -0.7177  0.4282
  191DOPC  H17R23606   5.831   7.431  14.540  2.6798  2.4944  0.0784
  191DOPC  H17S23607   5.946   7.446  14.678 -0.9235  1.4322 -0.9747
  191DOPC  C21823608   5.828   7.273  14.685  0.0299  0.1454  0.4521
  191DOPC  H18R23609   5.752   7.327  14.744  0.4782  0.5990  0.6243
  191DOPC  H18S23610   5.897   7.223  14.757  0.5598 -0.9506 -0.7575
  191DOPC  H18T23611   5.792   7.196  14.613  1.3454 -1.0231  0.9881
  191DOPC   C3323612   5.658   7.573  13.666  0.3031 -0.0835  0.6602
  191DOPC   H3X23613   5.743   7.615  13.723  2.5734 -1.6078 -1.3959
  191DOPC   H3Y23614   5.683   7.465  13.660  2.1661  0.3895 -1.5429
  191DOPC   C3423615   5.531   7.580  13.738  0.7805  0.1782 -0.8780
  191DOPC   H4X23616   5.552   7.526  13.834  4.8632 -3.0970 -3.2383
  191DOPC   H4Y23617   5.448   7.527  13.688  0.8517 -0.8624  0.0567
  191DOPC   C3523618   5.484   7.732  13.762 -0.7486  0.2723  0.2916
  191DOPC   H5X23619   5.380   7.724  13.800 -0.7063  1.5008  0.7250
  191DOPC   H5Y23620   5.491   7.785  13.665  1.1285 -0.0327  0.2258
  191DOPC   C3623621   5.574   7.791  13.869 -0.0851  0.1176 -0.1285
  191DOPC   H6X23622   5.577   7.715  13.949 -0.6630 -0.6129 -0.7800
  191DOPC   H6Y23623   5.676   7.800  13.827  0.6616 -3.0231  0.7753
  191DOPC   C3723624   5.534   7.931  13.917 -0.5012 -0.3424  0.7381
  191DOPC   H7X23625   5.534   8.004  13.833  0.7869 -0.3130  0.7458
  191DOPC   H7Y23626   5.431   7.932  13.960 -0.0216  2.0598  2.0367
  191DOPC   C3823627   5.630   7.983  14.025  0.4877 -0.2590 -0.0746
  191DOPC   H8X23628   5.741   7.984  14.018  0.9160  2.1360  3.5997
  191DOPC   H8Y23629   5.617   7.922  14.117 -2.2235  0.4492  0.0880
  191DOPC   C3923630   5.581   8.127  14.049  0.0203  1.2068 -0.4151
  191DOPC   H9X23631   5.536   8.171  13.959  0.4684  2.9288  0.1617
  191DOPC  C31023632   5.553   8.184  14.170  0.6550 -0.1865  0.1490
  191DOPC  H10X23633   5.507   8.283  14.179  0.7137 -0.2337  1.0582
  191DOPC  C31123634   5.592   8.130  14.302  0.5480  0.2403  0.0760
  191DOPC  H11X23635   5.656   8.041  14.289 -0.4347 -0.2069 -2.3475
  191DOPC  H11Y23636   5.502   8.092  14.356  0.0385 -2.1056 -2.2293
  191DOPC  C31223637   5.669   8.227  14.394  0.4030  0.7858  0.7090
  191DOPC  H12X23638   5.761   8.261  14.342  1.1017 -2.7847 -0.6921
  191DOPC  H12Y23639   5.688   8.176  14.490  0.1505 -0.1514  0.2708
  191DOPC  C31323640   5.584   8.341  14.437  0.4215 -0.7201 -0.1789
  191DOPC  H13X23641   5.653   8.415  14.483 -0.0979 -1.1554  1.3682
  191DOPC  H13Y23642   5.547   8.401  14.351 -2.3748 -1.0467  0.6850
  191DOPC  C31423643   5.473   8.303  14.540 -0.0445 -0.1268 -0.3411
  191DOPC  H14X23644   5.401   8.231  14.496 -0.7241  1.2777 -1.5972
  191DOPC  H14Y23645   5.529   8.258  14.626 -0.5577  2.3988  1.4188
  191DOPC  C31523646   5.402   8.415  14.611 -0.0294  0.1201 -0.5478
  191DOPC  H15X23647   5.340   8.474  14.541 -1.1856  0.4603  0.7255
  191DOPC  H15Y23648   5.482   8.475  14.659  1.7430 -2.3787 -0.1904
  191DOPC  C31623649   5.296   8.370  14.709 -0.0345  0.6350 -0.1090
  191DOPC  H16X23650   5.237   8.296  14.651 -1.2163  0.8663  0.7469
  191DOPC  H16Y23651   5.351   8.318  14.790 -0.0247  0.2814 -0.3380
  191DOPC  C31723652   5.198   8.474  14.754  0.0817  0.1913 -1.0642
  191DOPC  H17X23653   5.253   8.570  14.767 -0.1879  0.2141 -0.0229
  191DOPC  H17Y23654   5.129   8.503  14.673 -2.0963  0.0035  0.6306
  191DOPC  C31823655   5.125   8.430  14.887  0.5807 -0.0980  1.0712
  191DOPC  H18X23656   5.186   8.459  14.975  0.6921 -0.6994  1.1962
  191DOPC  H18Y23657   5.032   8.490  14.892 -0.1543 -1.0935 -0.0222
  191DOPC  H18Z23658   5.101   8.322  14.878  1.4142 -0.1557 -1.1230
  192DOPC     N23659   2.289   4.034  13.343  1.0874 -0.3940  0.0747
  192DOPC   C1223660   2.147   4.072  13.392  0.4193 -0.4980  0.0298
  192DOPC  H12A23661   2.079   4.059  13.310 -0.0515 -0.6016  0.4340
  192DOPC  H12B23662   2.143   4.176  13.421  1.7139  0.0704 -1.6413
  192DOPC   C1323663   2.323   4.105  13.215 -0.2568 -0.1102  0.5411
  192DOPC  H13A23664   2.308   4.211  13.226  0.8545  0.0452  0.6015
  192DOPC  H13B23665   2.425   4.090  13.185 -0.7925  0.0879 -1.5078
  192DOPC  H13C23666   2.262   4.058  13.140  2.2187 -2.0846 -0.3681
  192DOPC   C1423667   2.293   3.886  13.321 -0.6033 -0.0385  0.1654
  192DOPC  H14A23668   2.262   3.836  13.411  3.4814 -0.0056  1.8219
  192DOPC  H14B23669   2.226   3.861  13.240 -0.5637 -2.0323  0.7002
  192DOPC  H14C23670   2.391   3.854  13.289  0.5029  1.2468  2.0525
  192DOPC   C1523671   2.384   4.059  13.453 -0.4742 -0.3978 -0.3279
  192DOPC  H15A23672   2.485   4.056  13.416  0.1964 -1.1702  1.4624
  192DOPC  H15B23673   2.385   3.983  13.530 -0.4687  1.2197  1.3257
  192DOPC  H15C23674   2.371   4.151  13.507  1.2569 -0.7651  0.7824
  192DOPC   C1123675   2.083   3.983  13.498 -0.3969  0.3192 -0.4394
  192DOPC  H11A23676   2.136   3.970  13.595  1.2004 -0.0653 -1.3258
  192DOPC  H11B23677   1.991   4.042  13.518 -0.0294  0.9928 -0.7294
  192DOPC     P23678   1.930   3.825  13.352 -0.3888  0.2077 -0.0436
  192DOPC   O1323679   1.943   3.680  13.320  0.5308  0.1255 -0.1069
  192DOPC   O1423680   1.918   3.921  13.236 -0.1805  0.8227  0.7886
  192DOPC   O1223681   2.046   3.858  13.446  0.2134  0.1770  0.0836
  192DOPC   O1123682   1.801   3.860  13.442 -0.3732 -0.7502  0.3162
  192DOPC    C123683   1.739   3.759  13.525  0.4220 -0.2303 -0.0532
  192DOPC    HA23684   1.779   3.656  13.512  1.3398  0.2302 -1.0841
  192DOPC    HB23685   1.633   3.765  13.491  0.7201 -0.6488 -1.1089
  192DOPC    C223686   1.743   3.784  13.681 -0.5614 -0.5850 -0.1269
  192DOPC    HS23687   1.688   3.695  13.718  1.6759 -1.9227  0.2127
  192DOPC   O2123688   1.691   3.917  13.716  0.3055  0.2566  0.0325
  192DOPC   C2123689   1.556   3.926  13.713 -0.6768 -0.7183 -0.0659
  192DOPC   O2223690   1.481   3.834  13.694 -0.4328 -0.0240 -0.7357
  192DOPC   C2223691   1.509   4.060  13.766 -0.0707  0.3311 -0.8765
  192DOPC   H2R23692   1.402   4.044  13.790  0.4397 -0.8520  0.7998
  192DOPC   H2S23693   1.510   4.137  13.687  1.1719 -0.0906 -1.2973
  192DOPC    C323694   1.883   3.768  13.726  0.2025 -0.2137 -0.8484
  192DOPC    HX23695   1.943   3.852  13.683  1.4792 -1.4339 -1.5334
  192DOPC    HY23696   1.930   3.681  13.676 -1.1695 -0.6496 -1.4225
  192DOPC   O3123697   1.886   3.755  13.871  0.4498 -0.1254  0.0290
  192DOPC   C3123698   2.010   3.755  13.927 -0.0415 -0.5312 -0.5842
  192DOPC   O3223699   2.113   3.758  13.861 -0.2537 -0.7081 -0.1727
  192DOPC   C3223700   1.992   3.735  14.079 -0.4561 -0.0531 -0.2975
  192DOPC   H2X23701   1.967   3.837  14.115  1.9183  0.2591  0.5766
  192DOPC   H2Y23702   1.910   3.660  14.093  1.7718 -3.0944 -2.2427
  192DOPC   C2323703   1.583   4.114  13.890 -1.3735 -1.1463 -0.6762
  192DOPC   H3R23704   1.679   4.154  13.851 -0.9185  1.4476  2.6381
  192DOPC   H3S23705   1.614   4.038  13.965  0.7561  1.0603  0.8807
  192DOPC   C2423706   1.530   4.252  13.951 -0.6860 -0.0923 -0.1529
  192DOPC   H4R23707   1.590   4.270  14.043 -0.8056  2.6239 -0.5254
  192DOPC   H4S23708   1.424   4.243  13.982 -1.2442  1.4563 -1.4762
  192DOPC   C2523709   1.564   4.370  13.862  0.2771  0.6091 -0.5532
  192DOPC   H5R23710   1.519   4.368  13.761 -1.4577 -0.3112  0.1812
  192DOPC   H5S23711   1.672   4.373  13.837  0.1883  1.0392 -0.8719
  192DOPC   C2623712   1.534   4.511  13.921  0.2356 -0.1712 -0.2680
  192DOPC   H6R23713   1.426   4.517  13.947  0.0154 -0.7000 -1.0578
  192DOPC   H6S23714   1.566   4.581  13.841  0.2897 -0.8947 -0.8847
  192DOPC   C2723715   1.624   4.542  14.047  0.4167  0.4180 -0.3586
  192DOPC   H7R23716   1.731   4.518  14.034  0.5434  1.0479 -0.5447
  192DOPC   H7S23717   1.575   4.475  14.121  1.4750 -2.3608 -2.0215
  192DOPC   C2823718   1.605   4.688  14.092 -0.4670  0.2933 -0.4830
  192DOPC   H8R23719   1.659   4.698  14.188 -0.4149  1.1643 -0.5930
  192DOPC   H8S23720   1.497   4.709  14.105 -0.6785 -1.1831  0.2725
  192DOPC   C2923721   1.682   4.777  13.995 -0.1980  0.0175  0.5287
  192DOPC   H9R23722   1.791   4.765  14.002 -0.4993 -3.4981  0.9283
  192DOPC  C21023723   1.633   4.860  13.894 -0.1178 -0.1399 -0.0170
  192DOPC  H10R23724   1.694   4.904  13.814  0.1918  1.1621  0.9052
  192DOPC  C21123725   1.483   4.891  13.881  0.5262 -0.4934 -0.3919
  192DOPC  H11R23726   1.428   4.795  13.893  0.0922 -0.4921 -2.1351
  192DOPC  H11S23727   1.443   4.922  13.782 -1.9987 -1.3423  0.2705
  192DOPC  C21223728   1.424   4.982  13.996  0.4506  0.2199 -0.0654
  192DOPC  H12R23729   1.436   4.923  14.090  0.1420 -0.1432 -0.2505
  192DOPC  H12S23730   1.315   4.983  13.975  0.0647 -1.2919  1.5500
  192DOPC  C21323731   1.456   5.127  14.006  0.5241 -0.2675  0.3225
  192DOPC  H13R23732   1.377   5.184  14.059 -0.4737 -0.2929 -1.0906
  192DOPC  H13S23733   1.464   5.175  13.906 -1.4605 -0.4847  0.0358
  192DOPC  C21423734   1.596   5.170  14.063  0.3575 -0.1855  0.1349
  192DOPC  H14R23735   1.600   5.280  14.046 -1.0500 -0.2579 -0.8525
  192DOPC  H14S23736   1.679   5.113  14.014 -1.2698 -2.0509 -0.6064
  192DOPC  C21523737   1.585   5.139  14.214 -0.6595  0.5099  0.0294
  192DOPC  H15R23738   1.546   5.041  14.246 -3.8677  1.9844  1.0333
  192DOPC  H15S23739   1.503   5.207  14.245 -0.5215  0.8626 -0.3623
  192DOPC  C21623740   1.702   5.193  14.297 -0.1918  0.1083  0.1122
  192DOPC  H16R23741   1.692   5.303  14.290 -0.7781  0.1753  1.5861
  192DOPC  H16S23742   1.791   5.168  14.236  0.4133  3.0574 -0.3392
  192DOPC  C21723743   1.704   5.139  14.441 -0.4562  0.6143 -0.1185
  192DOPC  H17R23744   1.600   5.145  14.480 -0.0392  0.7366  1.0190
  192DOPC  H17S23745   1.764   5.215  14.496 -0.7070  1.0741 -0.4662
  192DOPC  C21823746   1.751   5.000  14.465  0.2804  0.3578  0.4996
  192DOPC  H18R23747   1.711   4.961  14.561  1.4101 -1.0587  0.4261
  192DOPC  H18S23748   1.863   4.999  14.468  0.5291  2.9314 -2.6511
  192DOPC  H18T23749   1.730   4.932  14.380 -1.8084  1.2054  0.2807
  192DOPC   C3323750   2.119   3.666  14.141  0.2683 -0.0954  0.0702
  192DOPC   H3X23751   2.197   3.740  14.167 -1.4534  1.0788  2.2652
  192DOPC   H3Y23752   2.161   3.595  14.066  2.2758  1.2170 -0.1214
  192DOPC   C3423753   2.084   3.584  14.264  0.2601  0.5589 -0.1023
  192DOPC   H4X23754   2.011   3.503  14.245 -1.3054  2.1742 -1.3331
  192DOPC   H4Y23755   2.038   3.658  14.333  0.2691  0.7287 -0.2770
  192DOPC   C3523756   2.201   3.516  14.343  0.4380 -0.4481 -0.0670
  192DOPC   H5X23757   2.296   3.575  14.342 -0.3148  0.7903 -0.4933
  192DOPC   H5Y23758   2.221   3.416  14.300 -0.8263 -1.3079  1.2647
  192DOPC   C3623759   2.160   3.467  14.482 -0.0039 -0.3674 -0.5658
  192DOPC   H6X23760   2.080   3.390  14.484 -0.1283 -0.2942  2.8247
  192DOPC   H6Y23761   2.245   3.410  14.524 -0.1136 -1.0632 -1.2726
  192DOPC   C3723762   2.127   3.578  14.587  0.5592  0.2416 -0.2163
  192DOPC   H7X23763   2.203   3.658  14.597  0.1334  0.5480  0.6330
  192DOPC   H7Y23764   2.035   3.628  14.552  0.1206 -1.2567 -1.3119
  192DOPC   C3823765   2.101   3.519  14.723  0.0749  0.3666  0.1090
  192DOPC   H8X23766   2.194   3.468  14.757  0.2281  0.0131 -0.8000
  192DOPC   H8Y23767   2.026   3.438  14.713  1.4826 -0.7480 -2.5792
  192DOPC   C3923768   2.065   3.625  14.825 -0.5245  0.1331 -0.7711
  192DOPC   H9X23769   2.157   3.653  14.878 -0.1480  0.6608 -1.6959
  192DOPC  C31023770   1.938   3.659  14.853  0.6221  0.0920  0.3746
  192DOPC  H10X23771   1.930   3.739  14.928  0.9515 -0.4512  0.9955
  192DOPC  C31123772   1.821   3.611  14.774  0.6516  0.1862 -0.0398
  192DOPC  H11X23773   1.852   3.547  14.689 -0.4446  0.0990 -0.3984
  192DOPC  H11Y23774   1.760   3.696  14.735 -2.7029 -1.8152  0.3978
  192DOPC  C31223775   1.723   3.529  14.865 -0.0711  0.7697  0.0886
  192DOPC  H12X23776   1.669   3.603  14.928  0.7611  0.1755  1.5507
  192DOPC  H12Y23777   1.785   3.469  14.935  0.1014 -0.0272 -0.7332
  192DOPC  C31323778   1.618   3.451  14.788  0.2022  0.3296 -0.9428
  192DOPC  H13X23779   1.658   3.399  14.698  1.1046  0.5791 -0.6967
  192DOPC  H13Y23780   1.581   3.366  14.850 -3.0761 -0.3393 -3.5280
  192DOPC  C31423781   1.506   3.546  14.743  0.3913  0.2320  0.2150
  192DOPC  H14X23782   1.452   3.591  14.830  0.9213 -1.4397  1.4599
  192DOPC  H14Y23783   1.556   3.626  14.684 -1.7987  2.6155  1.3850
  192DOPC  C31523784   1.398   3.475  14.657 -0.0247  0.1209 -0.3065
  192DOPC  H15X23785   1.343   3.400  14.717 -1.4481  1.6397  0.3943
  192DOPC  H15Y23786   1.440   3.422  14.570  1.5663 -1.1291  1.1710
  192DOPC  C31623787   1.288   3.563  14.604  0.8541 -0.0994  0.0489
  192DOPC  H16X23788   1.241   3.595  14.699  0.8914 -1.6974  0.6331
  192DOPC  H16Y23789   1.329   3.644  14.541  0.9041 -0.1980 -0.0449
  192DOPC  C31723790   1.176   3.495  14.520  0.6274 -0.8252  0.1642
  192DOPC  H17X23791   1.128   3.416  14.582  1.4706 -0.8545  0.7941
  192DOPC  H17Y23792   1.093   3.564  14.495  0.1166 -1.7300 -0.7407
  192DOPC  C31823793   1.235   3.442  14.388  0.0922  0.9753 -1.5733
  192DOPC  H18X23794   1.294   3.350  14.406  1.0219  1.4890 -1.9727
  192DOPC  H18Y23795   1.147   3.419  14.323 -1.2671  1.3367  0.0763
  192DOPC  H18Z23796   1.302   3.515  14.338  1.6817  1.4103  1.0267
  193DOPC     N23797   0.751   0.589  12.722  0.2495 -0.3594  0.9269
  193DOPC   C1223798   0.766   0.508  12.854  0.6286 -0.3092  0.3537
  193DOPC  H12A23799   0.867   0.471  12.861  1.3644  0.8485 -2.6775
  193DOPC  H12B23800   0.705   0.419  12.843 -1.3970  1.1067 -0.4684
  193DOPC   C1323801   0.796   0.499  12.615  0.1948  0.3930 -0.9132
  193DOPC  H13A23802   0.724   0.423  12.590 -1.0116  1.2439 -0.1441
  193DOPC  H13B23803   0.808   0.551  12.520 -1.0206  3.8965  0.6612
  193DOPC  H13C23804   0.883   0.445  12.648 -0.1443  0.1721 -0.3751
  193DOPC   C1423805   0.839   0.713  12.726 -0.2568  0.3452 -0.1883
  193DOPC  H14A23806   0.814   0.759  12.821  0.4440  0.6628 -0.1475
  193DOPC  H14B23807   0.944   0.686  12.716 -0.9340 -2.2324 -1.0905
  193DOPC  H14C23808   0.814   0.784  12.649  1.0597  2.0169  0.8344
  193DOPC   C1523809   0.610   0.631  12.691 -0.0409  0.4756  0.6545
  193DOPC  H15A23810   0.583   0.717  12.750 -3.3364  0.8965 -1.2220
  193DOPC  H15B23811   0.538   0.551  12.698 -0.2868  0.4945 -1.2210
  193DOPC  H15C23812   0.587   0.666  12.592  0.4875  0.8101  0.6450
  193DOPC   C1123813   0.725   0.578  12.995 -0.1516  0.0618 -0.1292
  193DOPC  H11A23814   0.736   0.501  13.074  1.9870 -1.9681 -2.1867
  193DOPC  H11B23815   0.804   0.657  12.994  0.0074 -0.0724 -2.0914
  193DOPC     P23816   0.464   0.572  13.029 -0.4004 -0.0341  0.1601
  193DOPC   O1323817   0.492   0.428  13.015  0.3740 -0.4073 -0.5227
  193DOPC   O1423818   0.355   0.619  12.937  0.2930  0.4313 -0.3872
  193DOPC   O1223819   0.597   0.639  12.983  0.0999 -0.2104  0.1444
  193DOPC   O1123820   0.439   0.621  13.176 -0.9790  1.1762  0.5057
  193DOPC    C123821   0.472   0.753  13.195  0.1546 -0.1745 -0.1668
  193DOPC    HA23822   0.410   0.814  13.126 -1.7787  0.9938  2.4334
  193DOPC    HB23823   0.580   0.776  13.178  0.2457  0.0812  0.6886
  193DOPC    C223824   0.437   0.799  13.339  0.1426 -1.0039 -0.1855
  193DOPC    HS23825   0.486   0.898  13.354 -0.3276 -0.9801  1.3815
  193DOPC   O2123826   0.474   0.700  13.442 -0.0517 -0.1612 -0.1797
  193DOPC   C2123827   0.608   0.699  13.471  0.3532  0.4668  0.0598
  193DOPC   O2223828   0.690   0.777  13.428 -0.0312 -0.4324  0.2468
  193DOPC   C2223829   0.636   0.577  13.559  0.5371 -0.2263  0.2626
  193DOPC   H2R23830   0.722   0.590  13.628  0.6961 -0.4945  0.1178
  193DOPC   H2S23831   0.686   0.505  13.491  0.9010 -1.6685  1.9912
  193DOPC    C323832   0.290   0.849  13.358  0.0873 -0.4596  0.3119
  193DOPC    HX23833   0.224   0.761  13.346 -1.3294  0.6408 -0.3869
  193DOPC    HY23834   0.281   0.912  13.267 -0.3958  1.0084  1.3251
  193DOPC   O3123835   0.266   0.929  13.476  0.1352 -0.0545  0.3838
  193DOPC   C3123836   0.140   0.961  13.492  0.0647 -0.8078  0.2279
  193DOPC   O3223837   0.050   0.927  13.415 -0.0106 -0.0993 -0.3491
  193DOPC   C3223838   0.137   1.038  13.621  1.0687 -0.1990 -0.2985
  193DOPC   H2X23839   0.096   1.139  13.596 -0.4772 -0.8578 -0.5308
  193DOPC   H2Y23840   0.055   0.993  13.681  1.8118 -1.7509 -0.3979
  193DOPC   C2323841   0.507   0.518  13.625 -0.4933 -0.3500 -0.0021
  193DOPC   H3R23842   0.430   0.495  13.548 -0.2208  1.5752 -0.9030
  193DOPC   H3S23843   0.455   0.592  13.690 -1.8631 -1.3549  0.1037
  193DOPC   C2423844   0.546   0.382  13.703  0.1616 -1.0282 -0.0196
  193DOPC   H4R23845   0.628   0.411  13.774  0.2491  0.3705 -0.6555
  193DOPC   H4S23846   0.573   0.300  13.634  1.5903  0.3689 -1.1921
  193DOPC   C2523847   0.426   0.325  13.791 -0.4226 -0.2408 -0.4363
  193DOPC   H5R23848   0.470   0.248  13.858  0.3889  0.5810  0.0008
  193DOPC   H5S23849   0.341   0.285  13.731 -1.1262  0.0049  0.3678
  193DOPC   C2623850   0.363   0.436  13.877  0.1164 -0.2804  0.3052
  193DOPC   H6R23851   0.314   0.509  13.810  1.0420  1.8995  1.8841
  193DOPC   H6S23852   0.439   0.501  13.925 -2.2300  0.4274  3.3532
  193DOPC   C2723853   0.282   0.382  13.993 -0.3183  0.1694 -0.1457
  193DOPC   H7R23854   0.356   0.323  14.050 -1.7296 -1.2531  0.2614
  193DOPC   H7S23855   0.204   0.312  13.957  0.9194 -1.4965  0.2817
  193DOPC   C2823856   0.227   0.495  14.076  0.6935 -0.6509 -0.3099
  193DOPC   H8R23857   0.308   0.556  14.121 -0.1499  1.1882 -1.1685
  193DOPC   H8S23858   0.174   0.456  14.165  0.9198 -0.9959 -0.3263
  193DOPC   C2923859   0.134   0.586  13.993  0.2559  0.3503 -0.3983
  193DOPC   H9R23860   0.110   0.547  13.893 -1.8524 -0.9198  0.5439
  193DOPC  C21023861   0.082   0.699  14.043 -0.3814 -0.5761 -0.6414
  193DOPC  H10R23862   0.015   0.762  13.983 -1.0553 -1.9944 -1.4244
  193DOPC  C21123863   0.124   0.762  14.177 -0.0253 -0.4202 -0.4334
  193DOPC  H11R23864   0.166   0.689  14.249  0.2734  0.4873  0.3302
  193DOPC  H11S23865   0.030   0.803  14.219  0.5159  0.5298 -0.1163
  193DOPC  C21223866   0.222   0.877  14.165  0.0351  0.8729 -0.7542
  193DOPC  H12R23867   0.203   0.942  14.077 -0.7552 -0.6632 -1.7831
  193DOPC  H12S23868   0.318   0.825  14.143  0.1615  0.6293  0.3399
  193DOPC  C21323869   0.252   0.966  14.288  0.0564 -0.5249 -0.0783
  193DOPC  H13R23870   0.318   0.905  14.353  0.5575 -0.7850 -0.8206
  193DOPC  H13S23871   0.158   0.995  14.339  1.1582  2.6428  0.4174
  193DOPC  C21423872   0.318   1.101  14.245  0.6067  0.1616 -0.8525
  193DOPC  H14R23873   0.329   1.151  14.343  0.3317 -1.8489  0.2667
  193DOPC  H14S23874   0.247   1.159  14.182  0.6097  1.9744  0.7599
  193DOPC  C21523875   0.456   1.088  14.177 -0.8376 -0.8454 -0.3956
  193DOPC  H15R23876   0.461   1.050  14.073  1.8446 -1.5689 -0.0792
  193DOPC  H15S23877   0.504   1.015  14.245  0.1634  1.5895  1.6511
  193DOPC  C21623878   0.544   1.219  14.179 -0.5327  0.3101 -0.3527
  193DOPC  H16R23879   0.644   1.180  14.149 -1.2267 -1.0867 -0.9553
  193DOPC  H16S23880   0.546   1.254  14.284 -3.4651 -0.0776 -0.0975
  193DOPC  C21723881   0.492   1.326  14.091 -0.0714  0.3867  0.7091
  193DOPC  H17R23882   0.402   1.376  14.132  0.0169  0.2008  1.1295
  193DOPC  H17S23883   0.469   1.276  13.994  0.4349  0.8657  0.3296
  193DOPC  C21823884   0.583   1.451  14.064  0.0417 -0.4297 -0.1727
  193DOPC  H18R23885   0.625   1.505  14.152  0.2417  2.1606 -1.7535
  193DOPC  H18S23886   0.517   1.525  14.014 -0.9877 -0.1706  1.4887
  193DOPC  H18T23887   0.666   1.427  13.995  0.5499 -2.6099  1.1178
  193DOPC   C3323888   0.261   1.050  13.707 -0.6976 -0.2659 -0.4102
  193DOPC   H3X23889   0.335   1.108  13.648 -1.0401  0.8035  0.1783
  193DOPC   H3Y23890   0.296   0.952  13.744  2.1392  0.5818 -0.6267
  193DOPC   C3423891   0.222   1.124  13.839 -0.5575  0.4548  1.2693
  193DOPC   H4X23892   0.312   1.120  13.903 -0.8821  1.7314  1.8279
  193DOPC   H4Y23893   0.142   1.057  13.877 -0.6715 -0.5494 -0.5916
  193DOPC   C3523894   0.165   1.268  13.828  0.2436  0.6019  0.2828
  193DOPC   H5X23895   0.064   1.256  13.782 -1.2297 -2.3317  3.8094
  193DOPC   H5Y23896   0.232   1.337  13.772 -0.9733  0.4439 -1.4516
  193DOPC   C3623897   0.134   1.334  13.961  0.8050 -1.1582 -0.1378
  193DOPC   H6X23898   0.041   1.291  14.005 -0.3871 -0.3407 -1.7658
  193DOPC   H6Y23899   0.215   1.312  14.033  1.3013 -0.6770 -0.5416
  193DOPC   C3723900   0.123   1.488  13.949  0.1769 -0.0706 -0.3476
  193DOPC   H7X23901   0.220   1.522  13.906  1.6323 -1.1491  1.8809
  193DOPC   H7Y23902   0.032   1.504  13.887  0.0352  0.0382 -0.1113
  193DOPC   C3823903   0.121   1.543  14.090 -0.3332 -0.3524  0.5768
  193DOPC   H8X23904   0.194   1.627  14.090  0.7911 -1.2782 -1.1036
  193DOPC   H8Y23905   0.160   1.471  14.165 -0.5807  0.3141  1.3711
  193DOPC   C3923906  -0.021   1.575  14.127  0.0954  0.1858  0.7330
  193DOPC   H9X23907  -0.091   1.491  14.135 -3.2357  2.6032 -0.6657
  193DOPC  C31023908  -0.067   1.695  14.155 -0.7750  0.6540  0.0085
  193DOPC  H10X23909  -0.171   1.703  14.188 -1.2068 -1.8953 -0.5163
  193DOPC  C31123910   0.009   1.827  14.141  0.6498  0.4292 -0.2364
  193DOPC  H11X23911  -0.048   1.899  14.078 -0.1033 -0.4714 -0.6121
  193DOPC  H11Y23912   0.110   1.819  14.095  0.3662  1.5597 -1.1150
  193DOPC  C31223913   0.022   1.899  14.280  0.4068  0.6489  0.7772
  193DOPC  H12X23914   0.060   2.003  14.270  2.2922 -0.1847 -1.5490
  193DOPC  H12Y23915   0.089   1.839  14.345  3.0570  0.7097 -1.7081
  193DOPC  C31323916  -0.112   1.910  14.352 -0.5115  0.1604 -0.5850
  193DOPC  H13X23917  -0.191   1.950  14.285  0.6205  1.2276 -1.3292
  193DOPC  H13Y23918  -0.142   1.814  14.399  0.6878  0.4909  0.9089
  193DOPC  C31423919  -0.103   2.020  14.469 -0.1603  0.2411  0.3615
  193DOPC  H14X23920   0.000   2.016  14.509  0.2572 -1.1163 -0.7939
  193DOPC  H14Y23921  -0.131   2.115  14.418  1.8317 -0.2511 -1.8144
  193DOPC  C31523922  -0.201   1.993  14.583 -0.4023 -0.5174 -0.2458
  193DOPC  H15X23923  -0.166   2.062  14.663 -0.1968  0.0929 -0.8575
  193DOPC  H15Y23924  -0.197   1.890  14.624  2.3926 -0.5776 -0.5078
  193DOPC  C31623925  -0.351   2.034  14.548  0.3810 -0.8466  0.0204
  193DOPC  H16X23926  -0.397   2.059  14.646 -0.9845  2.6805 -1.3498
  193DOPC  H16Y23927  -0.363   2.122  14.481 -0.1425 -0.5472  0.4969
  193DOPC  C31723928  -0.426   1.916  14.498  0.3539  0.9586  0.2834
  193DOPC  H17X23929  -0.409   1.902  14.389 -0.2615 -0.5534  0.3659
  193DOPC  H17Y23930  -0.385   1.824  14.544 -0.1913  0.1288 -0.8378
  193DOPC  C31823931  -0.575   1.916  14.544 -0.2186  0.1203  0.9163
  193DOPC  H18X23932  -0.628   1.992  14.482 -0.6736 -0.9338 -0.0195
  193DOPC  H18Y23933  -0.620   1.815  14.535  0.1906  0.0711 -1.0826
  193DOPC  H18Z23934  -0.580   1.945  14.651  1.3784 -0.3228  1.1460
  194DOPC     N23935   3.089   0.294  12.702 -0.8320  1.1021  0.4922
  194DOPC   C1223936   3.007   0.214  12.796 -0.2721 -0.1914 -0.8274
  194DOPC  H12A23937   3.060   0.136  12.849 -0.9056 -1.0914 -1.4869
  194DOPC  H12B23938   2.939   0.158  12.734 -1.0621  1.4506 -1.5252
  194DOPC   C1323939   3.009   0.374  12.603  0.2960 -0.0113 -0.0428
  194DOPC  H13A23940   3.062   0.447  12.545 -0.5693  0.9955  0.4026
  194DOPC  H13B23941   2.962   0.304  12.535 -0.0878  2.3472 -2.3433
  194DOPC  H13C23942   2.934   0.438  12.646  2.2256  1.8601  0.6908
  194DOPC   C1423943   3.184   0.209  12.627 -0.2801  1.0982 -0.3150
  194DOPC  H14A23944   3.226   0.259  12.541 -1.0243 -0.9268 -1.9410
  194DOPC  H14B23945   3.257   0.168  12.695 -0.5953  0.4555 -0.3552
  194DOPC  H14C23946   3.122   0.126  12.595 -1.3903  0.6504  2.7174
  194DOPC   C1523947   3.169   0.398  12.786  0.2464  0.1082  0.1319
  194DOPC  H15A23948   3.099   0.464  12.836  0.6028 -0.3229  1.2316
  194DOPC  H15B23949   3.231   0.454  12.717  0.1597 -0.9328 -0.8144
  194DOPC  H15C23950   3.231   0.352  12.861 -0.0787  0.3833  0.5721
  194DOPC   C1123951   2.913   0.283  12.909 -0.6024  0.4526  0.1142
  194DOPC  H11A23952   2.864   0.205  12.971  1.0189 -1.1644 -0.5480
  194DOPC  H11B23953   2.983   0.346  12.968 -1.1101  0.9045  0.2394
  194DOPC     P23954   2.687   0.329  12.783 -0.1825  0.2059 -0.5096
  194DOPC   O1323955   2.684   0.181  12.784  0.3709 -0.1065  0.4052
  194DOPC   O1423956   2.673   0.399  12.656  0.4571  0.0606 -0.2582
  194DOPC   O1223957   2.823   0.378  12.846 -0.3197 -0.0679  0.0872
  194DOPC   O1123958   2.576   0.377  12.888  0.4174  0.1199  0.3556
  194DOPC    C123959   2.597   0.446  13.005  1.0214  0.8587 -0.2292
  194DOPC    HA23960   2.537   0.539  13.006 -0.8566 -0.3047 -0.6734
  194DOPC    HB23961   2.704   0.472  13.023  1.1778 -0.1693  0.4273
  194DOPC    C223962   2.549   0.381  13.143  0.4592 -0.1637 -0.0859
  194DOPC    HS23963   2.572   0.452  13.225 -0.8138  1.4305 -1.0606
  194DOPC   O2123964   2.597   0.251  13.159  0.0283 -0.0198  0.3533
  194DOPC   C2123965   2.721   0.233  13.207  0.3211  0.1066 -0.1385
  194DOPC   O2223966   2.806   0.314  13.239 -0.3894 -0.5332  0.0559
  194DOPC   C2223967   2.744   0.088  13.232  0.6685 -0.0239  1.1060
  194DOPC   H2R23968   2.748   0.030  13.137  0.1167  1.9730 -0.2050
  194DOPC   H2S23969   2.655   0.045  13.283 -0.9990  0.6040 -1.1054
  194DOPC    C323970   2.396   0.378  13.139 -0.4089  0.3998 -0.0359
  194DOPC    HX23971   2.369   0.336  13.040  2.7342 -0.3390 -0.6788
  194DOPC    HY23972   2.365   0.484  13.155  0.8371  0.5018  2.2374
  194DOPC   O3123973   2.338   0.309  13.249  0.1696  0.7506 -0.2766
  194DOPC   C3123974   2.314   0.177  13.220 -0.5550 -0.6985  0.1993
  194DOPC   O3223975   2.349   0.116  13.121  0.6831  0.0267 -0.0314
  194DOPC   C3223976   2.237   0.126  13.346  0.4824 -0.1317 -0.1708
  194DOPC   H2X23977   2.312   0.122  13.428  0.9890 -0.7496 -0.6505
  194DOPC   H2Y23978   2.161   0.201  13.374  1.6700  0.9827  0.1872
  194DOPC   C2323979   2.867   0.060  13.318 -0.4351 -0.2570 -0.7902
  194DOPC   H3R23980   2.951   0.125  13.286 -2.6388  2.1235 -1.9967
  194DOPC   H3S23981   2.895  -0.045  13.296 -2.8875 -0.1841 -5.2890
  194DOPC   C2423982   2.851   0.089  13.470 -0.0147 -0.2637 -0.3486
  194DOPC   H4R23983   2.816   0.194  13.482  0.2017 -0.2295  0.0264
  194DOPC   H4S23984   2.956   0.089  13.507 -0.0518 -2.0302 -0.1716
  194DOPC   C2523985   2.782  -0.019  13.546  0.0950  0.9766  0.0049
  194DOPC   H5R23986   2.835  -0.117  13.549  0.0835  0.9814  0.4478
  194DOPC   H5S23987   2.683  -0.042  13.502  0.7612 -0.7547 -0.6965
  194DOPC   C2623988   2.745   0.014  13.695 -0.4817  0.7142 -0.3366
  194DOPC   H6R23989   2.699   0.115  13.699  0.3182  1.1042 -0.6717
  194DOPC   H6S23990   2.836   0.004  13.758  0.3078 -2.8833 -1.8425
  194DOPC   C2723991   2.642  -0.080  13.755 -0.3414 -0.0817 -0.3316
  194DOPC   H7R23992   2.681  -0.183  13.772 -2.6273 -1.3179 -2.0276
  194DOPC   H7S23993   2.560  -0.094  13.681 -1.0791  0.6044  0.3363
  194DOPC   C2823994   2.570  -0.046  13.890 -0.2497  0.5975 -0.3051
  194DOPC   H8R23995   2.504  -0.132  13.912  0.2541  0.4441  0.6824
  194DOPC   H8S23996   2.507   0.044  13.872  0.4494  1.4916  1.5102
  194DOPC   C2923997   2.670  -0.037  14.009  0.0779  0.2072 -0.3127
  194DOPC   H9R23998   2.777  -0.055  13.992  0.6830  2.5880  0.4516
  194DOPC  C21023999   2.632  -0.017  14.141  0.2734  0.5856 -0.2006
  194DOPC  H10R24000   2.716  -0.021  14.213 -1.4743 -2.2343  1.8998
  194DOPC  C21124001   2.496   0.002  14.209 -0.1538  0.0434 -0.6766
  194DOPC  H11R24002   2.411   0.000  14.137 -2.2183 -0.9558  1.6187
  194DOPC  H11S24003   2.496   0.105  14.251  2.1513 -0.0453 -0.3718
  194DOPC  C21224004   2.458  -0.084  14.343  0.2598 -0.1330  0.8224
  194DOPC  H12R24005   2.549  -0.122  14.395  0.2431  0.7450  1.5098
  194DOPC  H12S24006   2.407  -0.167  14.289  1.3758 -0.4251  0.1817
  194DOPC  C21324007   2.364  -0.004  14.439 -0.0066  0.0269 -0.7128
  194DOPC  H13R24008   2.272   0.003  14.377  0.3298 -1.1559 -1.3862
  194DOPC  H13S24009   2.399   0.099  14.460 -1.2045  0.0153  1.5234
  194DOPC  C21424010   2.333  -0.065  14.571 -0.0082  0.5138 -0.9950
  194DOPC  H14R24011   2.427  -0.080  14.628 -1.7439 -3.5772  1.2183
  194DOPC  H14S24012   2.290  -0.167  14.557  2.0478 -0.5845  0.1438
  194DOPC  C21524013   2.236   0.013  14.654 -0.1378  0.5583 -0.4265
  194DOPC  H15R24014   2.141   0.024  14.597 -2.9744 -0.8959  3.5426
  194DOPC  H15S24015   2.278   0.107  14.696  1.5169  0.1208 -1.0446
  194DOPC  C21624016   2.173  -0.064  14.773  0.2371 -0.6444  0.4876
  194DOPC  H16R24017   2.254  -0.101  14.839  1.5325 -0.3090 -0.8596
  194DOPC  H16S24018   2.109  -0.145  14.731 -1.5504  0.5765  0.7363
  194DOPC  C21724019   2.061   0.011  14.849  0.4905 -0.2392 -0.4872
  194DOPC  H17R24020   1.983   0.045  14.779  0.0591  0.0709  0.1378
  194DOPC  H17S24021   2.113   0.097  14.895  2.7815 -0.5110 -2.3710
  194DOPC  C21824022   1.989  -0.070  14.955  0.2700  0.0836  0.0842
  194DOPC  H18R24023   1.920  -0.140  14.903  2.1348 -0.6957 -1.4860
  194DOPC  H18S24024   1.925  -0.010  15.023 -1.4061 -0.8651 -0.6024
  194DOPC  H18T24025   2.048  -0.124  15.033 -0.5239  0.0764  0.6958
  194DOPC   C3324026   2.182  -0.019  13.334 -0.1877 -0.2233 -0.4713
  194DOPC   H3X24027   2.158  -0.034  13.227 -2.2992  1.6569 -0.3585
  194DOPC   H3Y24028   2.080  -0.023  13.380 -0.8116 -0.1109 -1.7970
  194DOPC   C3424029   2.255  -0.132  13.416  0.3350  0.1691 -0.2009
  194DOPC   H4X24030   2.212  -0.230  13.387  1.5208  0.0288 -1.5940
  194DOPC   H4Y24031   2.249  -0.110  13.525 -0.8942 -1.2238  0.0369
  194DOPC   C3524032   2.403  -0.165  13.372  0.6531  0.3124 -0.2897
  194DOPC   H5X24033   2.464  -0.076  13.398  0.7610 -0.0395  0.7301
  194DOPC   H5Y24034   2.410  -0.169  13.261  0.7527 -1.5612 -0.2542
  194DOPC   C3624035   2.461  -0.290  13.443  0.4532  0.3326  0.2647
  194DOPC   H6X24036   2.461  -0.283  13.554  1.4418  1.8118  0.1860
  194DOPC   H6Y24037   2.387  -0.370  13.420  1.0381 -0.0473 -0.3110
  194DOPC   C3724038   2.596  -0.335  13.400 -0.2387 -0.3145  0.4821
  194DOPC   H7X24039   2.610  -0.337  13.290 -0.6376  0.5980  0.4110
  194DOPC   H7Y24040   2.665  -0.250  13.419 -2.0137  1.8618 -2.1378
  194DOPC   C3824041   2.654  -0.465  13.451 -0.0730 -0.4206 -0.4689
  194DOPC   H8X24042   2.605  -0.542  13.389  0.0941 -0.8683 -0.0474
  194DOPC   H8Y24043   2.623  -0.481  13.556 -0.4391  0.2391 -0.4648
  194DOPC   C3924044   2.807  -0.465  13.439  0.3982 -0.0058 -0.3895
  194DOPC   H9X24045   2.850  -0.469  13.338 -1.1616  1.0353 -1.1448
  194DOPC  C31024046   2.891  -0.444  13.545 -0.4217 -0.4739  0.3867
  194DOPC  H10X24047   3.001  -0.434  13.542 -0.1452 -2.9544 -0.5759
  194DOPC  C31124048   2.846  -0.411  13.681  0.3103  0.1910 -0.6060
  194DOPC  H11X24049   2.766  -0.483  13.711  0.0445  0.5252 -0.5010
  194DOPC  H11Y24050   2.803  -0.309  13.683 -0.4058 -0.0521 -2.1110
  194DOPC  C31224051   2.956  -0.406  13.790  0.0941  0.0499  0.6038
  194DOPC  H12X24052   3.048  -0.351  13.760  1.3719 -2.4263 -0.3282
  194DOPC  H12Y24053   2.997  -0.509  13.797 -1.6719 -1.1438 -3.5923
  194DOPC  C31324054   2.901  -0.352  13.925  0.1030  0.2372  0.0347
  194DOPC  H13X24055   2.832  -0.267  13.911  2.3898  2.5202  1.6257
  194DOPC  H13Y24056   2.837  -0.438  13.956  0.3728  0.8586  2.5818
  194DOPC  C31424057   3.009  -0.330  14.032  0.6802  0.5783  0.7436
  194DOPC  H14X24058   3.058  -0.428  14.055  1.7415  0.7205 -0.7863
  194DOPC  H14Y24059   3.090  -0.265  13.994  0.4734  0.0102 -0.7135
  194DOPC  C31524060   2.944  -0.274  14.163 -0.9517 -0.8968  0.3034
  194DOPC  H15X24061   2.840  -0.310  14.171 -1.1523 -1.9768 -4.1957
  194DOPC  H15Y24062   2.938  -0.164  14.149  1.5475 -0.6822  0.4312
  194DOPC  C31624063   3.038  -0.290  14.283  0.3216 -0.1602 -0.3357
  194DOPC  H16X24064   3.100  -0.383  14.287 -0.1455 -0.4954  3.4571
  194DOPC  H16Y24065   3.124  -0.220  14.285  0.0030  0.2640 -1.1818
  194DOPC  C31724066   2.982  -0.277  14.426  0.6597  0.2460 -0.4822
  194DOPC  H17X24067   2.896  -0.347  14.424  0.2040  0.8018 -0.3051
  194DOPC  H17Y24068   3.053  -0.308  14.506 -1.1479  3.4316  2.6607
  194DOPC  C31824069   2.932  -0.140  14.452 -0.1151 -0.0289  0.1191
  194DOPC  H18X24070   2.908  -0.129  14.560 -1.6463 -0.7775 -0.1180
  194DOPC  H18Y24071   3.013  -0.071  14.421 -0.3026 -0.5510 -1.6332
  194DOPC  H18Z24072   2.847  -0.119  14.384 -0.5567  0.5099  0.8279
  195DOPC     N24073   6.523   6.708  12.706 -0.6103 -0.5663  0.1148
  195DOPC   C1224074   6.428   6.693  12.592 -0.1935  0.3675 -0.3589
  195DOPC  H12A24075   6.448   6.601  12.539  0.9039 -0.0901  0.8029
  195DOPC  H12B24076   6.441   6.773  12.520  0.0367  1.1678  0.5483
  195DOPC   C1324077   6.528   6.590  12.801 -0.1821 -0.0458  0.2476
  195DOPC  H13A24078   6.428   6.563  12.832 -0.3260  0.9238  0.6622
  195DOPC  H13B24079   6.552   6.496  12.754  1.9030 -0.1938  1.5001
  195DOPC  H13C24080   6.589   6.604  12.889  1.1861 -1.7339 -0.3741
  195DOPC   C1424081   6.489   6.831  12.783  0.2729  1.0861  0.3876
  195DOPC  H14A24082   6.457   6.910  12.717  0.5837 -0.6714 -2.0151
  195DOPC  H14B24083   6.406   6.804  12.847  0.5505  0.8871  0.6653
  195DOPC  H14C24084   6.575   6.863  12.839  0.0612 -0.2936  1.5457
  195DOPC   C1524085   6.665   6.718  12.656  0.2010  0.3029 -0.1409
  195DOPC  H15A24086   6.737   6.714  12.737  0.6320  0.5330 -0.5028
  195DOPC  H15B24087   6.678   6.816  12.610  2.0370 -0.9289 -2.5174
  195DOPC  H15C24088   6.688   6.635  12.591 -3.3146 -2.0646  1.3876
  195DOPC   C1124089   6.275   6.675  12.619 -0.5408  0.0746  1.0177
  195DOPC  H11A24090   6.250   6.764  12.680  0.3278  1.0701 -0.0306
  195DOPC  H11B24091   6.220   6.672  12.522  0.3830 -3.0825  0.4770
  195DOPC     P24092   6.192   6.428  12.625 -0.1729 -0.1429  0.4178
  195DOPC   O1324093   6.265   6.388  12.500  0.1754  0.1154 -0.2244
  195DOPC   O1424094   6.050   6.450  12.622  0.9799  0.0287  0.2006
  195DOPC   O1224095   6.260   6.553  12.692 -0.1636 -0.1916 -0.9881
  195DOPC   O1124096   6.226   6.320  12.729  0.7258  0.1382 -0.6016
  195DOPC    C124097   6.355   6.277  12.782  0.4781 -0.2104 -0.0657
  195DOPC    HA24098   6.429   6.355  12.753 -0.2785  0.3225 -0.5986
  195DOPC    HB24099   6.380   6.184  12.726 -0.1430  0.9890 -2.4822
  195DOPC    C224100   6.352   6.260  12.935 -0.0779  0.2328  0.2865
  195DOPC    HS24101   6.261   6.201  12.960  0.3054 -0.0932  0.9264
  195DOPC   O2124102   6.345   6.379  13.009  0.5551 -0.3238  0.7085
  195DOPC   C2124103   6.224   6.437  13.039  0.1190  1.3227  0.2863
  195DOPC   O2224104   6.120   6.376  13.035 -0.1417  0.4386  0.0456
  195DOPC   C2224105   6.241   6.587  13.063 -0.0401  1.0050  0.5295
  195DOPC   H2R24106   6.144   6.630  13.095 -1.3995 -0.6289 -1.1712
  195DOPC   H2S24107   6.286   6.636  12.974 -0.4663 -1.7478 -1.3048
  195DOPC    C324108   6.475   6.185  12.988 -0.9515  0.8868 -0.1571
  195DOPC    HX24109   6.562   6.247  12.959  2.4635 -2.1291  2.6494
  195DOPC    HY24110   6.489   6.086  12.940 -3.4826  1.2023 -1.6790
  195DOPC   O3124111   6.476   6.172  13.132 -0.5326  0.0921  0.6658
  195DOPC   C3124112   6.535   6.259  13.205 -0.3914 -0.1502 -0.0728
  195DOPC   O3224113   6.607   6.349  13.159  0.2685  0.2061 -0.3839
  195DOPC   C3224114   6.509   6.225  13.350  0.1609  0.4312  0.1654
  195DOPC   H2X24115   6.581   6.273  13.419 -0.8342  1.2642  0.6394
  195DOPC   H2Y24116   6.405   6.256  13.373 -0.3100  0.0707 -1.3703
  195DOPC   C2324117   6.338   6.603  13.181  0.0831 -0.7429  0.0566
  195DOPC   H3R24118   6.353   6.712  13.201  0.9883 -0.5234 -1.6339
  195DOPC   H3S24119   6.435   6.552  13.163 -1.7948 -5.7997  2.4471
  195DOPC   C2424120   6.284   6.562  13.318 -0.0411 -0.0212 -0.2436
  195DOPC   H4R24121   6.285   6.454  13.344  1.8460  0.5196  2.3239
  195DOPC   H4S24122   6.177   6.594  13.319 -0.0972 -0.2047 -0.3566
  195DOPC   C2524123   6.342   6.641  13.439 -0.3260 -0.3266  0.5300
  195DOPC   H5R24124   6.258   6.679  13.502 -0.5648 -0.6095  0.3819
  195DOPC   H5S24125   6.397   6.729  13.400 -0.6972  0.0691  0.8856
  195DOPC   C2624126   6.439   6.553  13.524 -0.1415 -0.3701 -0.4037
  195DOPC   H6R24127   6.521   6.519  13.458  0.2657 -2.5063  1.1225
  195DOPC   H6S24128   6.373   6.471  13.558 -0.7954  0.5892  0.7380
  195DOPC   C2724129   6.508   6.629  13.647  0.5189 -0.2354 -0.0407
  195DOPC   H7R24130   6.541   6.722  13.597  1.9838 -1.3829 -1.3074
  195DOPC   H7S24131   6.603   6.576  13.668  0.0071 -1.6550 -1.1417
  195DOPC   C2824132   6.404   6.628  13.764 -0.2037 -0.4089  0.3124
  195DOPC   H8R24133   6.421   6.527  13.806  0.5636 -1.4597 -2.3353
  195DOPC   H8S24134   6.301   6.621  13.725 -0.0006 -1.7453 -0.0202
  195DOPC   C2924135   6.415   6.748  13.863  0.4923 -0.3110  0.1731
  195DOPC   H9R24136   6.411   6.850  13.822  2.1791 -0.3491 -0.1764
  195DOPC  C21024137   6.435   6.734  13.997 -0.2511  0.4172  1.0660
  195DOPC  H10R24138   6.448   6.827  14.054  2.5663  0.4067  0.5828
  195DOPC  C21124139   6.433   6.605  14.078 -0.6774 -0.3382  0.2326
  195DOPC  H11R24140   6.390   6.520  14.021 -2.6982 -0.3632  1.6942
  195DOPC  H11S24141   6.357   6.620  14.158  0.7636  1.7603  1.3328
  195DOPC  C21224142   6.568   6.561  14.138  0.3701  0.3290 -0.2526
  195DOPC  H12R24143   6.637   6.536  14.055 -0.0280 -1.5223 -0.0596
  195DOPC  H12S24144   6.542   6.470  14.195 -2.7904  0.9635 -0.4620
  195DOPC  C21324145   6.639   6.653  14.233  0.2357  0.0821 -1.4680
  195DOPC  H13R24146   6.685   6.733  14.171 -0.5498  0.0231 -2.1454
  195DOPC  H13S24147   6.723   6.607  14.289  0.3298  2.9949  1.0167
  195DOPC  C21424148   6.554   6.719  14.341  0.1446  0.3378 -0.2178
  195DOPC  H14R24149   6.475   6.645  14.367 -0.2753  1.4285  1.7794
  195DOPC  H14S24150   6.507   6.811  14.300 -1.8400  0.1537  1.5060
  195DOPC  C21524151   6.635   6.758  14.460 -0.3266  0.4556 -0.0716
  195DOPC  H15R24152   6.591   6.846  14.512 -0.8469 -0.1713  0.5723
  195DOPC  H15S24153   6.731   6.792  14.416 -0.4918 -0.7032 -1.3929
  195DOPC  C21624154   6.660   6.645  14.562 -0.0219 -0.3066 -0.7960
  195DOPC  H16R24155   6.718   6.560  14.521  2.6532  0.5999  0.9066
  195DOPC  H16S24156   6.560   6.610  14.595 -0.8193  1.3571 -1.3135
  195DOPC  C21724157   6.740   6.697  14.681  0.0039  0.1444 -0.4961
  195DOPC  H17R24158   6.715   6.804  14.700 -0.1295  0.3755 -1.9226
  195DOPC  H17S24159   6.847   6.694  14.653  0.5306 -1.9797  1.4357
  195DOPC  C21824160   6.719   6.617  14.814 -0.7736 -0.2289  0.5546
  195DOPC  H18R24161   6.621   6.629  14.866 -0.5531 -0.8810  1.1423
  195DOPC  H18S24162   6.793   6.654  14.888  0.4784 -2.3179  0.4222
  195DOPC  H18T24163   6.740   6.510  14.790  0.6891  0.4025 -1.1791
  195DOPC   C3324164   6.521   6.066  13.373  0.5038  0.7578  0.3004
  195DOPC   H3X24165   6.464   5.994  13.311  0.0135 -0.3306  1.9495
  195DOPC   H3Y24166   6.469   6.059  13.471  0.2740  1.6732  0.2565
  195DOPC   C3424167   6.669   6.014  13.376  0.1297 -0.2589  0.3669
  195DOPC   H4X24168   6.719   6.095  13.433  0.3782  2.2176 -3.0911
  195DOPC   H4Y24169   6.707   6.010  13.272  0.5558  3.8459  0.1933
  195DOPC   C3524170   6.667   5.872  13.442 -0.2519  0.8522  0.0410
  195DOPC   H5X24171   6.776   5.858  13.462 -0.0855  1.2188 -0.5976
  195DOPC   H5Y24172   6.644   5.790  13.371  1.3159  1.1183 -0.8145
  195DOPC   C3624173   6.597   5.861  13.581 -0.1339 -0.3902  0.3913
  195DOPC   H6X24174   6.594   5.958  13.635 -0.9600 -1.0938  1.6632
  195DOPC   H6Y24175   6.493   5.825  13.567 -0.5405  1.2360 -1.1268
  195DOPC   C3724176   6.672   5.771  13.677 -0.1711 -0.4182  0.3622
  195DOPC   H7X24177   6.699   5.676  13.626  2.1847  1.2701 -1.7342
  195DOPC   H7Y24178   6.770   5.812  13.708  0.6508  0.0619 -2.5705
  195DOPC   C3824179   6.601   5.740  13.806 -0.3462 -0.1432  0.1692
  195DOPC   H8X24180   6.514   5.675  13.786  0.5977 -1.5015  0.3245
  195DOPC   H8Y24181   6.555   5.829  13.853  0.5991 -0.2013  1.2492
  195DOPC   C3924182   6.690   5.658  13.894  0.8046  0.1540 -0.1638
  195DOPC   H9X24183   6.724   5.562  13.854  0.5114  0.0427 -0.1534
  195DOPC  C31024184   6.704   5.675  14.026  0.0944  0.1759  0.7254
  195DOPC  H10X24185   6.769   5.601  14.075  0.3799  1.9060  3.0627
  195DOPC  C31124186   6.657   5.786  14.112  0.4510 -0.0361 -0.6415
  195DOPC  H11X24187   6.586   5.852  14.058 -0.6849 -1.2844 -0.7272
  195DOPC  H11Y24188   6.750   5.842  14.136 -0.2761  0.6321  0.7878
  195DOPC  C31224189   6.597   5.743  14.242  0.0536 -0.4769 -0.0809
  195DOPC  H12X24190   6.595   5.832  14.309  3.9045 -0.0272 -0.3255
  195DOPC  H12Y24191   6.661   5.665  14.288  0.2491 -1.2693 -1.6539
  195DOPC  C31324192   6.453   5.711  14.226 -0.2562 -0.1810 -0.5733
  195DOPC  H13X24193   6.404   5.802  14.185  2.5018  1.9226  0.4346
  195DOPC  H13Y24194   6.435   5.623  14.160 -0.8685 -0.4723 -0.0326
  195DOPC  C31424195   6.384   5.671  14.364 -0.2293  0.2219  0.6440
  195DOPC  H14X24196   6.415   5.568  14.393  2.3871  0.7654 -0.0208
  195DOPC  H14Y24197   6.420   5.741  14.442  2.1455  1.0093 -1.0615
  195DOPC  C31524198   6.229   5.678  14.351  0.3463  0.2041 -0.3402
  195DOPC  H15X24199   6.192   5.646  14.251 -1.8749  0.7415  0.2531
  195DOPC  H15Y24200   6.202   5.785  14.367  1.8248  0.9532 -2.3341
  195DOPC  C31624201   6.147   5.580  14.446 -0.0275  0.2559 -0.3886
  195DOPC  H16X24202   6.160   5.614  14.551  4.2586  1.8380 -1.2157
  195DOPC  H16Y24203   6.036   5.585  14.437 -0.2265  0.3518  1.6032
  195DOPC  C31724204   6.194   5.432  14.437 -0.5735  0.8706  0.2398
  195DOPC  H17X24205   6.215   5.407  14.331  1.2816 -0.9613  0.9893
  195DOPC  H17Y24206   6.280   5.420  14.506 -1.5382 -1.6039  1.1028
  195DOPC  C31824207   6.103   5.321  14.490  0.2222 -0.1072 -1.2633
  195DOPC  H18X24208   6.023   5.292  14.419 -0.8014  1.4225 -0.7779
  195DOPC  H18Y24209   6.171   5.235  14.508  0.3361  0.2851  0.3903
  195DOPC  H18Z24210   6.051   5.334  14.588  1.8414  1.0934 -0.5157
  196DOPC     N24211   1.571   0.437  13.124  0.3079 -0.5199 -0.0260
  196DOPC   C1224212   1.437   0.374  13.170  0.6317  0.2082  0.2505
  196DOPC  H12A24213   1.377   0.441  13.229 -0.4816  0.6067 -1.2671
  196DOPC  H12B24214   1.467   0.291  13.232 -0.4588  1.4898  2.6182
  196DOPC   C1324215   1.546   0.567  13.056  0.5371 -0.0538 -0.3920
  196DOPC  H13A24216   1.645   0.602  13.028 -0.0080  2.0523  0.1406
  196DOPC  H13B24217   1.481   0.567  12.970  2.1873 -0.2262 -1.6863
  196DOPC  H13C24218   1.502   0.638  13.125 -1.1165 -0.2286 -1.2294
  196DOPC   C1424219   1.632   0.352  13.025  0.2609  0.3216  0.4139
  196DOPC  H14A24220   1.723   0.391  12.981 -0.7802  2.4294 -0.0027
  196DOPC  H14B24221   1.646   0.254  13.069 -1.6769 -0.3519 -0.3958
  196DOPC  H14C24222   1.570   0.333  12.939  1.6328  1.4384 -0.8891
  196DOPC   C1524223   1.673   0.452  13.233 -0.4195 -0.1568 -0.6566
  196DOPC  H15A24224   1.704   0.357  13.274  0.1028  0.5907  0.7143
  196DOPC  H15B24225   1.643   0.514  13.316  1.2530  0.8400 -0.7482
  196DOPC  H15C24226   1.763   0.493  13.190 -0.5392  2.1457  1.1438
  196DOPC   C1124227   1.350   0.321  13.057  0.6807 -0.1427 -0.8464
  196DOPC  H11A24228   1.397   0.248  12.988  0.4209  0.1443 -1.3311
  196DOPC  H11B24229   1.266   0.258  13.094 -0.5005  1.3129 -0.9365
  196DOPC     P24230   1.165   0.495  13.003 -0.0823 -0.2200 -0.1098
  196DOPC   O1324231   1.054   0.405  12.957 -0.2212  0.0506 -0.0026
  196DOPC   O1424232   1.175   0.634  12.949 -0.3151 -0.8195  0.3609
  196DOPC   O1224233   1.306   0.427  12.970 -0.0132  0.0376 -0.2405
  196DOPC   O1124234   1.160   0.513  13.160 -0.6018 -0.1992  0.1441
  196DOPC    C124235   1.045   0.566  13.223  0.0630 -0.4515 -1.1427
  196DOPC    HA24236   0.953   0.522  13.178 -1.1624  0.2821  0.5335
  196DOPC    HB24237   1.044   0.677  13.223 -2.0416 -0.4069  0.5844
  196DOPC    C224238   1.035   0.511  13.368 -0.2742 -0.1992  0.2252
  196DOPC    HS24239   0.937   0.536  13.413 -0.1049  1.4967 -0.2417
  196DOPC   O2124240   1.143   0.569  13.453 -0.3111 -0.1655  0.5286
  196DOPC   C2124241   1.114   0.686  13.498 -0.0512  0.0559 -0.0785
  196DOPC   O2224242   1.009   0.749  13.479 -0.6961  0.5146 -0.6788
  196DOPC   C2224243   1.234   0.749  13.569 -0.0124 -0.6904  0.6862
  196DOPC   H2R24244   1.295   0.809  13.498 -1.3624 -0.7559 -0.5725
  196DOPC   H2S24245   1.303   0.668  13.600  0.3039 -1.4399 -1.7545
  196DOPC    C324246   1.042   0.354  13.364 -0.6546 -0.0824 -0.0070
  196DOPC    HX24247   1.125   0.324  13.297 -1.8705 -0.7211 -1.2693
  196DOPC    HY24248   0.945   0.333  13.313 -0.6252  1.8143 -0.9224
  196DOPC   O3124249   1.055   0.290  13.497  0.0080 -0.2580 -0.4431
  196DOPC   C3124250   1.174   0.270  13.547  0.0652  0.4762 -0.1740
  196DOPC   O3224251   1.278   0.273  13.481  0.3389  0.8081  0.5127
  196DOPC   C3224252   1.181   0.265  13.698  0.3174  0.3189 -0.5733
  196DOPC   H2X24253   1.094   0.209  13.740 -0.2859  1.6882  0.0633
  196DOPC   H2Y24254   1.262   0.191  13.713 -0.4057 -0.0554  1.8770
  196DOPC   C2324255   1.184   0.828  13.689 -0.2512 -0.2949 -0.6959
  196DOPC   H3R24256   1.126   0.766  13.760 -0.5788  0.5301 -0.2267
  196DOPC   H3S24257   1.139   0.925  13.657  0.0014 -0.3337 -1.1697
  196DOPC   C2424258   1.309   0.869  13.781 -0.5530  0.3557  0.2240
  196DOPC   H4R24259   1.392   0.926  13.733 -1.1783  0.7577 -0.3866
  196DOPC   H4S24260   1.359   0.774  13.809  1.8219  2.2800  3.2288
  196DOPC   C2524261   1.284   0.938  13.914  0.0627  0.0809 -0.6616
  196DOPC   H5R24262   1.249   1.042  13.899 -1.5516 -0.3796 -0.2374
  196DOPC   H5S24263   1.380   0.946  13.970 -0.8398  0.4192  0.8782
  196DOPC   C2624264   1.170   0.884  14.004 -0.3202  0.5076 -0.3876
  196DOPC   H6R24265   1.196   0.776  14.006  0.3557  0.6524  1.6822
  196DOPC   H6S24266   1.073   0.911  13.956 -0.6281  0.7072  0.3248
  196DOPC   C2724267   1.178   0.944  14.147 -0.4493 -0.3015 -0.0288
  196DOPC   H7R24268   1.158   1.054  14.146  2.6893  0.3623  0.3326
  196DOPC   H7S24269   1.286   0.945  14.174 -0.3211 -1.6700 -0.4296
  196DOPC   C2824270   1.093   0.870  14.250  0.3101 -0.2541 -0.0348
  196DOPC   H8R24271   1.137   0.773  14.279  1.6292  0.6062  0.9460
  196DOPC   H8S24272   0.992   0.856  14.205  0.6111  0.0795 -0.8402
  196DOPC   C2924273   1.081   0.954  14.380  0.5502  0.1222  0.2321
  196DOPC   H9R24274   1.177   0.961  14.434 -0.1532  1.8368  1.3757
  196DOPC  C21024275   0.983   1.040  14.415 -0.1078  0.2452  0.5479
  196DOPC  H10R24276   1.002   1.112  14.496  0.6376  1.6475 -0.8243
  196DOPC  C21124277   0.852   1.057  14.352  0.1204  0.3022  0.2155
  196DOPC  H11R24278   0.863   1.055  14.242 -0.1481  0.3259  0.1877
  196DOPC  H11S24279   0.817   1.158  14.384  1.3996  0.5477  0.9056
  196DOPC  C21224280   0.760   0.952  14.408  0.0332  0.1382 -0.6974
  196DOPC  H12R24281   0.796   0.848  14.389  1.5825  0.5966 -0.4326
  196DOPC  H12S24282   0.662   0.956  14.357  1.4705 -2.4549 -4.1141
  196DOPC  C21324283   0.743   0.970  14.567  0.3115  0.6466  0.5726
  196DOPC  H13R24284   0.838   0.964  14.625  1.4458  3.4711 -0.7754
  196DOPC  H13S24285   0.673   0.898  14.614  1.3279  0.6102  2.0924
  196DOPC  C21424286   0.671   1.101  14.593 -0.3308 -0.7077 -0.0901
  196DOPC  H14R24287   0.565   1.100  14.559 -0.5243  3.6034 -0.1320
  196DOPC  H14S24288   0.720   1.187  14.543 -0.6976 -1.5597 -2.0057
  196DOPC  C21524289   0.675   1.147  14.736  0.0499 -0.4980  0.5647
  196DOPC  H15R24290   0.780   1.161  14.769 -0.2239  0.7903  0.9626
  196DOPC  H15S24291   0.634   1.072  14.807 -0.6556  1.3758  2.2158
  196DOPC  C21624292   0.613   1.280  14.770 -0.2649  0.1300  0.1922
  196DOPC  H16R24293   0.585   1.284  14.878  1.8842 -3.2259  1.0419
  196DOPC  H16S24294   0.516   1.290  14.717 -0.4378 -1.0553  0.2554
  196DOPC  C21724295   0.711   1.391  14.756 -0.0111 -0.1691 -0.3346
  196DOPC  H17R24296   0.727   1.414  14.648  0.8438 -0.8046 -0.3591
  196DOPC  H17S24297   0.810   1.374  14.803 -0.5929 -0.5436  0.7683
  196DOPC  C21824298   0.643   1.511  14.824  0.0269  0.6435 -0.1442
  196DOPC  H18R24299   0.645   1.495  14.934  0.9988 -1.8308 -0.4560
  196DOPC  H18S24300   0.536   1.507  14.796  0.5434 -1.5722 -2.1258
  196DOPC  H18T24301   0.692   1.609  14.804  0.6972  0.1901 -0.7911
  196DOPC   C3324302   1.217   0.397  13.765 -0.0372  0.0520  1.2445
  196DOPC   H3X24303   1.126   0.461  13.765  0.8644  1.3804  0.0673
  196DOPC   H3Y24304   1.303   0.450  13.719 -2.7832  2.4940 -1.4490
  196DOPC   C3424305   1.248   0.377  13.911  0.0461  0.1307  0.1595
  196DOPC   H4X24306   1.252   0.477  13.958 -0.9205  0.6001 -0.7242
  196DOPC   H4Y24307   1.348   0.328  13.916  0.3107  0.7628  1.2597
  196DOPC   C3524308   1.147   0.291  13.997  0.2689  0.5722  0.1845
  196DOPC   H5X24309   1.167   0.188  13.962 -0.9941  0.9534 -1.7973
  196DOPC   H5Y24310   1.043   0.325  13.978  1.0781  1.5333 -3.2944
  196DOPC   C3624311   1.172   0.311  14.147  0.4757  0.1606  0.1556
  196DOPC   H6X24312   1.102   0.242  14.200  0.0334  1.6295  1.5613
  196DOPC   H6Y24313   1.269   0.262  14.172 -0.5059 -0.5568  3.0209
  196DOPC   C3724314   1.141   0.455  14.197 -0.0490 -0.4609 -0.2500
  196DOPC   H7X24315   1.220   0.526  14.164  0.5280 -0.9731  0.0203
  196DOPC   H7Y24316   1.046   0.479  14.144 -1.4968 -1.0060  1.9605
  196DOPC   C3824317   1.105   0.458  14.342 -0.1951  0.2112 -0.2632
  196DOPC   H8X24318   0.999   0.426  14.347 -0.0326 -0.2096  0.6334
  196DOPC   H8Y24319   1.093   0.565  14.372 -0.2671 -0.6412  3.1115
  196DOPC   C3924320   1.199   0.393  14.435  0.7173 -0.4807  0.4273
  196DOPC   H9X24321   1.295   0.442  14.454 -0.2886  1.2428  1.2741
  196DOPC  C31024322   1.174   0.285  14.506 -0.0362 -0.6428  0.4290
  196DOPC  H10X24323   1.254   0.228  14.554  0.4838 -1.3955 -1.2648
  196DOPC  C31124324   1.044   0.211  14.505 -0.1729  0.4597 -0.8191
  196DOPC  H11X24325   1.041   0.167  14.403 -1.2490  0.9776 -1.0267
  196DOPC  H11Y24326   0.963   0.287  14.512 -1.7700 -1.2138 -0.2316
  196DOPC  C31224327   1.005   0.110  14.621  0.3304  0.7619 -0.5265
  196DOPC  H12X24328   1.062   0.015  14.614  1.3226  1.2749  0.3210
  196DOPC  H12Y24329   0.901   0.083  14.594 -0.8540  2.6207  1.8571
  196DOPC  C31324330   1.022   0.155  14.759 -0.2546 -0.5593  0.1125
  196DOPC  H13X24331   1.018   0.069  14.829 -1.2858  0.0744  0.8651
  196DOPC  H13Y24332   1.120   0.201  14.786 -0.7855 -0.1019  1.3664
  196DOPC  C31424333   0.915   0.258  14.800  0.1490  0.7660 -0.3289
  196DOPC  H14X24334   0.918   0.338  14.723 -1.1713  1.1080 -0.0601
  196DOPC  H14Y24335   0.810   0.222  14.801  0.4668 -0.1720 -0.5212
  196DOPC  C31524336   0.940   0.331  14.937 -0.3562  0.4587  0.0107
  196DOPC  H15X24337   0.867   0.414  14.945 -1.2955 -0.2695 -0.6147
  196DOPC  H15Y24338   1.041   0.375  14.929 -0.4388  0.7184  0.3764
  196DOPC  C31624339   0.918   0.232  15.053  0.0147 -0.2443 -0.5680
  196DOPC  H16X24340   0.820   0.184  15.034 -1.5238  2.5002 -0.1923
  196DOPC  H16Y24341   0.999   0.157  15.064  0.1615 -0.0711 -0.4592
  196DOPC  C31724342   0.908   0.311  15.188  0.1991 -0.9847 -0.9211
  196DOPC  H17X24343   0.807   0.358  15.193 -0.1770 -1.8594  0.6211
  196DOPC  H17Y24344   0.902   0.245  15.277  0.6767 -2.5668 -2.0279
  196DOPC  C31824345   1.012   0.415  15.210  0.6136  0.5857  0.3197
  196DOPC  H18X24346   1.013   0.503  15.142 -1.2294  0.4086  0.0353
  196DOPC  H18Y24347   1.004   0.462  15.310  1.7531  0.0594  0.6822
  196DOPC  H18Z24348   1.117   0.377  15.203  0.5355  0.0525  1.8047
  197DOPC     N24349   3.460   5.850  12.867  0.3902  0.6113  0.5387
  197DOPC   C1224350   3.567   5.877  12.767  0.2356  0.1303 -0.5392
  197DOPC  H12A24351   3.517   5.900  12.674  2.8904 -0.5066 -2.2112
  197DOPC  H12B24352   3.616   5.784  12.742  1.2656  0.3097  0.7044
  197DOPC   C1324353   3.358   5.750  12.806  0.0012 -0.4958  0.0321
  197DOPC  H13A24354   3.296   5.705  12.883  0.3719 -0.3399  0.4260
  197DOPC  H13B24355   3.287   5.787  12.734 -0.5504 -0.9070  0.3562
  197DOPC  H13C24356   3.410   5.668  12.758  0.5747 -0.5937  0.8030
  197DOPC   C1424357   3.391   5.977  12.900  0.6596  0.4589 -0.0607
  197DOPC  H14A24358   3.337   5.965  12.992  0.9395  1.2857  0.2171
  197DOPC  H14B24359   3.465   6.055  12.909 -0.4571  1.3531  1.9244
  197DOPC  H14C24360   3.318   6.001  12.824  0.9846 -0.2226 -0.6020
  197DOPC   C1524361   3.513   5.782  12.991 -0.7106 -0.5209 -0.3584
  197DOPC  H15A24362   3.560   5.686  12.972 -0.2053 -0.1288 -1.1034
  197DOPC  H15B24363   3.434   5.764  13.062 -0.3925  2.6517  0.9790
  197DOPC  H15C24364   3.575   5.847  13.051  0.6613 -0.2745 -1.9667
  197DOPC   C1124365   3.675   5.987  12.792 -0.8636 -1.0282 -0.1934
  197DOPC  H11A24366   3.728   5.959  12.886 -0.4219 -3.2689 -1.0544
  197DOPC  H11B24367   3.759   5.987  12.720 -0.9121 -0.2343 -0.2666
  197DOPC     P24368   3.705   6.248  12.863  0.2449 -0.7580 -0.0614
  197DOPC   O1324369   3.682   6.377  12.792 -0.9789  0.1760  0.2019
  197DOPC   O1424370   3.848   6.203  12.879  0.4905 -0.0426 -0.0027
  197DOPC   O1224371   3.624   6.127  12.793  0.0623 -0.3336  0.3909
  197DOPC   O1124372   3.634   6.258  13.001  0.5537 -0.0431  0.2309
  197DOPC    C124373   3.593   6.140  13.079 -0.3863 -0.0518 -0.5359
  197DOPC    HA24374   3.628   6.046  13.034 -2.1122 -0.3553 -1.3139
  197DOPC    HB24375   3.484   6.151  13.098 -0.1089  0.0412  1.2635
  197DOPC    C224376   3.664   6.153  13.220 -0.0762 -0.0695  0.2105
  197DOPC    HS24377   3.651   6.050  13.260 -0.0820 -0.0835  0.1732
  197DOPC   O2124378   3.589   6.254  13.300 -0.3885 -0.2065 -0.4678
  197DOPC   C2124379   3.477   6.203  13.345 -0.2987 -0.3854 -0.9824
  197DOPC   O2224380   3.440   6.088  13.340 -0.2115 -0.6930  0.5096
  197DOPC   C2224381   3.401   6.314  13.429  0.6677  0.8778  0.7810
  197DOPC   H2R24382   3.357   6.390  13.361  1.1032  1.2283  0.8872
  197DOPC   H2S24383   3.482   6.364  13.487  1.0780  1.4216 -0.2373
  197DOPC    C324384   3.815   6.182  13.214  0.4242 -1.0302 -0.1866
  197DOPC    HX24385   3.840   6.281  13.171 -0.4564  0.0675  1.7119
  197DOPC    HY24386   3.854   6.101  13.149  1.1308 -2.6787  2.1354
  197DOPC   O3124387   3.873   6.166  13.342 -0.5313  0.3094 -0.0759
  197DOPC   C3124388   3.917   6.278  13.409  0.8831  0.3366  0.4089
  197DOPC   O3224389   3.891   6.392  13.374  0.1536 -0.0993 -0.1640
  197DOPC   C3224390   4.005   6.252  13.529 -0.1419 -0.6528 -0.0214
  197DOPC   H2X24391   4.004   6.145  13.560  1.6846 -0.1350  2.0350
  197DOPC   H2Y24392   4.105   6.267  13.483  0.7587  1.8864  2.4675
  197DOPC   C2324393   3.286   6.263  13.511  0.0733 -0.0185  0.4123
  197DOPC   H3R24394   3.222   6.194  13.452  2.4980  0.0969 -2.6078
  197DOPC   H3S24395   3.218   6.344  13.544 -0.0812  1.6760 -3.5879
  197DOPC   C2424396   3.334   6.186  13.638  0.0518 -0.2836  0.6027
  197DOPC   H4R24397   3.414   6.242  13.691 -0.3962  0.9899 -0.0245
  197DOPC   H4S24398   3.379   6.090  13.607  0.4412  0.0791  0.0142
  197DOPC   C2524399   3.224   6.180  13.736 -0.0222  0.5214 -1.2313
  197DOPC   H5R24400   3.143   6.106  13.717 -1.0234  1.2079  0.2352
  197DOPC   H5S24401   3.173   6.278  13.739  1.9147  1.5637  0.0480
  197DOPC   C2624402   3.269   6.147  13.880  1.1153  0.4375 -0.3825
  197DOPC   H6R24403   3.322   6.237  13.917  1.8197  1.4583 -3.5987
  197DOPC   H6S24404   3.349   6.070  13.883  1.0733  0.4110  2.1888
  197DOPC   C2724405   3.159   6.111  13.982  0.1883  0.4012 -0.4065
  197DOPC   H7R24406   3.195   6.124  14.086  0.1536  0.9668 -0.4623
  197DOPC   H7S24407   3.132   6.003  13.978  0.4642  0.3274 -0.2984
  197DOPC   C2824408   3.033   6.199  13.964 -0.6962  1.0968 -0.1747
  197DOPC   H8R24409   2.963   6.148  14.034 -0.9939  2.9331  0.9109
  197DOPC   H8S24410   2.984   6.178  13.866  0.5435 -1.0131 -0.4169
  197DOPC   C2924411   3.038   6.353  13.990 -0.2917 -0.7017 -0.3954
  197DOPC   H9R24412   3.054   6.422  13.906 -0.5545  0.5009  0.5022
  197DOPC  C21024413   3.019   6.404  14.114 -0.0736 -0.4369 -0.3726
  197DOPC  H10R24414   3.021   6.514  14.121  0.5010 -0.3501 -1.6776
  197DOPC  C21124415   3.011   6.324  14.250 -0.0723  0.1009 -0.0215
  197DOPC  H11R24416   3.010   6.216  14.224 -0.8777  0.5536 -2.1011
  197DOPC  H11S24417   2.917   6.337  14.308  0.2373 -1.2247  0.8216
  197DOPC  C21224418   3.131   6.356  14.342  0.2686  0.0420 -0.6656
  197DOPC  H12R24419   3.112   6.462  14.369 -0.1907 -0.5088  1.3075
  197DOPC  H12S24420   3.228   6.337  14.291 -0.9369  0.3206 -3.2284
  197DOPC  C21324421   3.142   6.276  14.473 -0.3570 -0.6232 -0.0963
  197DOPC  H13R24422   3.040   6.284  14.516 -0.0530  4.3727  0.3596
  197DOPC  H13S24423   3.217   6.316  14.545  0.8024 -0.6573 -1.2374
  197DOPC  C21424424   3.171   6.128  14.460  0.1662  0.1663 -0.1285
  197DOPC  H14R24425   3.275   6.103  14.427  0.2259 -0.7114  0.6689
  197DOPC  H14S24426   3.100   6.081  14.389  1.1287  0.7119 -1.4946
  197DOPC  C21524427   3.166   6.050  14.598  0.4492  0.2151 -0.1687
  197DOPC  H15R24428   3.059   6.057  14.627 -0.0374  0.3801 -1.9100
  197DOPC  H15S24429   3.214   6.111  14.678 -0.3811  1.5632 -0.6674
  197DOPC  C21624430   3.212   5.899  14.598  0.0771 -0.4075  0.2789
  197DOPC  H16R24431   3.314   5.893  14.554  0.1025  0.5945  0.1808
  197DOPC  H16S24432   3.155   5.846  14.518  1.6077 -0.1625 -1.0366
  197DOPC  C21724433   3.210   5.819  14.731 -0.2609 -0.2581  0.5202
  197DOPC  H17R24434   3.263   5.880  14.807  1.4698  2.0286 -2.3418
  197DOPC  H17S24435   3.258   5.720  14.710  0.5071  0.4513 -1.2281
  197DOPC  C21824436   3.064   5.797  14.780 -0.9779  0.1643  0.3002
  197DOPC  H18R24437   3.010   5.728  14.711 -0.5699  0.8336 -0.7075
  197DOPC  H18S24438   3.008   5.891  14.798 -0.6472  0.4388 -0.0784
  197DOPC  H18T24439   3.062   5.740  14.875  1.1102  0.4273  0.5439
  197DOPC   C3324440   3.974   6.347  13.651 -0.9246  0.5771  0.0911
  197DOPC   H3X24441   3.978   6.455  13.625  1.6752  0.4589 -0.3468
  197DOPC   H3Y24442   4.073   6.340  13.702 -0.8952 -0.2816 -0.0822
  197DOPC   C3424443   3.869   6.300  13.753  0.3844  0.0788 -0.4627
  197DOPC   H4X24444   3.771   6.317  13.705 -0.8342 -1.6093  1.2574
  197DOPC   H4Y24445   3.871   6.366  13.843 -0.1774 -1.9658  1.1473
  197DOPC   C3524446   3.866   6.142  13.783 -0.0325  0.1107  0.3719
  197DOPC   H5X24447   3.849   6.087  13.688 -1.2419  0.1064  0.5777
  197DOPC   H5Y24448   3.776   6.121  13.845 -0.5559  1.9706  0.3259
  197DOPC   C3624449   3.988   6.097  13.856 -0.7091  0.0041 -0.2568
  197DOPC   H6X24450   3.961   5.990  13.862  1.0464 -0.6827 -2.8145
  197DOPC   H6Y24451   4.083   6.102  13.798 -1.9106 -1.9281 -2.5610
  197DOPC   C3724452   4.009   6.148  13.997 -0.6418 -0.5347 -1.0513
  197DOPC   H7X24453   4.016   6.258  13.981  1.8993 -0.5803 -0.6638
  197DOPC   H7Y24454   3.918   6.121  14.055 -0.3813  0.8661  0.0681
  197DOPC   C3824455   4.135   6.100  14.066  0.3848 -0.1183  0.3728
  197DOPC   H8X24456   4.225   6.153  14.030  2.1691 -2.5474  1.0336
  197DOPC   H8Y24457   4.151   5.992  14.046  1.5748  0.4646 -2.0662
  197DOPC   C3924458   4.132   6.110  14.217  0.7427 -0.3232 -0.5270
  197DOPC   H9X24459   4.183   6.199  14.255  1.5715 -1.4390  1.0690
  197DOPC  C31024460   4.075   6.013  14.294 -0.4227  0.1876 -0.1275
  197DOPC  H10X24461   4.066   6.038  14.400  1.9687  0.0428  0.1606
  197DOPC  C31124462   3.987   5.895  14.249 -0.6981  0.0940  0.1143
  197DOPC  H11X24463   3.966   5.888  14.140  0.9024 -2.0628 -0.1267
  197DOPC  H11Y24464   3.884   5.903  14.291 -1.1230  2.9592 -1.1872
  197DOPC  C31224465   4.051   5.762  14.284  0.1413 -0.4376  0.0517
  197DOPC  H12X24466   4.151   5.750  14.236  0.1855  0.2905 -0.0611
  197DOPC  H12Y24467   3.992   5.687  14.228 -0.4142 -0.6191  0.8706
  197DOPC  C31324468   4.062   5.748  14.439 -0.5916  0.1167  0.3527
  197DOPC  H13X24469   4.135   5.821  14.479  1.2969 -2.0440  1.0799
  197DOPC  H13Y24470   3.960   5.771  14.475 -1.3991 -1.1228 -1.0661
  197DOPC  C31424471   4.090   5.604  14.483 -0.0479  0.4687 -0.2083
  197DOPC  H14X24472   4.015   5.541  14.431  1.2441 -2.1378  0.9003
  197DOPC  H14Y24473   4.188   5.569  14.443  0.6422  1.9341  0.0899
  197DOPC  C31524474   4.102   5.572  14.632  0.1371 -0.2519 -0.0680
  197DOPC  H15X24475   4.126   5.464  14.646  2.5016 -0.1607 -2.5245
  197DOPC  H15Y24476   4.008   5.597  14.685 -0.0260  0.6407 -0.7519
  197DOPC  C31624477   4.199   5.666  14.712  0.2144 -0.4501 -0.1881
  197DOPC  H16X24478   4.279   5.683  14.637  0.3874  0.5798  0.2199
  197DOPC  H16Y24479   4.158   5.769  14.721  1.5791  0.1987 -1.0999
  197DOPC  C31724480   4.238   5.629  14.853 -0.3201 -0.1670 -0.4263
  197DOPC  H17X24481   4.270   5.725  14.901 -0.1488 -0.7158  0.5804
  197DOPC  H17Y24482   4.146   5.603  14.910  0.3169  0.7476  1.1065
  197DOPC  C31824483   4.351   5.523  14.856 -0.0010 -0.0787  0.4456
  197DOPC  H18X24484   4.330   5.431  14.799  0.0597  1.8642 -2.9451
  197DOPC  H18Y24485   4.444   5.566  14.814 -0.8865 -0.2041 -1.7436
  197DOPC  H18Z24486   4.377   5.509  14.964 -1.1241  0.6302  0.8248
  198DOPC     N24487   0.023   6.701  12.874  0.0573  0.3569 -0.0099
  198DOPC   C1224488  -0.029   6.607  12.760 -0.4041 -0.4252  0.3025
  198DOPC  H12A24489   0.021   6.511  12.767  0.3219 -0.1032 -0.2821
  198DOPC  H12B24490   0.014   6.648  12.669  0.6842 -1.0175  0.5286
  198DOPC   C1324491  -0.051   6.829  12.878  0.1243  0.1137  0.1079
  198DOPC  H13A24492  -0.149   6.814  12.921 -0.6418 -0.5081 -1.7962
  198DOPC  H13B24493  -0.006   6.906  12.939  0.9560  0.3000 -0.7311
  198DOPC  H13C24494  -0.070   6.870  12.780  0.4769 -2.1786 -0.9793
  198DOPC   C1424495   0.170   6.720  12.845  0.8031  0.7759 -0.6127
  198DOPC  H14A24496   0.198   6.777  12.758  2.5471 -1.4114 -1.5669
  198DOPC  H14B24497   0.212   6.768  12.932 -0.6478  0.0034  0.5776
  198DOPC  H14C24498   0.218   6.625  12.829 -0.1035  0.2991 -0.6194
  198DOPC   C1524499   0.014   6.631  13.004 -0.6421  0.1506 -0.1852
  198DOPC  H15A24500   0.069   6.539  12.991  0.4948  1.1571 -3.2808
  198DOPC  H15B24501  -0.090   6.616  13.027 -0.3226  0.1828  1.4130
  198DOPC  H15C24502   0.053   6.687  13.088 -0.7470 -1.9578  1.3647
  198DOPC   C1124503  -0.184   6.574  12.750 -0.1913  0.1243 -0.3526
  198DOPC  H11A24504  -0.247   6.665  12.749  0.2028  0.4326  0.9171
  198DOPC  H11B24505  -0.200   6.524  12.652 -0.2881 -0.8759  0.1596
  198DOPC     P24506  -0.181   6.334  12.858 -0.1699  0.2231 -0.1173
  198DOPC   O1324507  -0.034   6.320  12.874  0.5755  0.0161  0.6433
  198DOPC   O1424508  -0.232   6.289  12.730 -0.1202  0.3817 -0.0480
  198DOPC   O1224509  -0.218   6.494  12.862 -0.4768  0.1188 -0.1137
  198DOPC   O1124510  -0.249   6.262  12.986  0.2961  0.3135  0.8978
  198DOPC    C124511  -0.391   6.265  13.003 -0.5887 -0.2562 -0.8610
  198DOPC    HA24512  -0.440   6.167  13.021  1.2794 -1.0564  0.1359
  198DOPC    HB24513  -0.437   6.319  12.917  1.2961  1.1241 -1.0570
  198DOPC    C224514  -0.416   6.346  13.136 -1.1088 -0.1666  0.6989
  198DOPC    HS24515  -0.411   6.455  13.114  1.5035 -0.4825 -0.6280
  198DOPC   O2124516  -0.331   6.313  13.254  0.4759 -0.3230 -0.0651
  198DOPC   C2124517  -0.234   6.405  13.276  0.4852 -0.3362 -0.6786
  198DOPC   O2224518  -0.221   6.513  13.219  0.2026  0.1234  0.4153
  198DOPC   C2224519  -0.145   6.352  13.396  0.2857 -0.0770  0.2245
  198DOPC   H2R24520  -0.040   6.380  13.370  0.9417 -1.1949  1.5752
  198DOPC   H2S24521  -0.148   6.242  13.407  1.4923  0.0911  3.3744
  198DOPC    C324522  -0.556   6.310  13.184 -0.4612 -0.2452 -0.4124
  198DOPC    HX24523  -0.553   6.204  13.217 -1.4303  0.0577  0.7297
  198DOPC    HY24524  -0.620   6.307  13.094  0.3280 -2.3077 -0.9543
  198DOPC   O3124525  -0.603   6.415  13.281 -0.1624 -0.4456  0.6978
  198DOPC   C3124526  -0.731   6.401  13.302 -0.0382  0.2339 -0.1574
  198DOPC   O3224527  -0.792   6.294  13.292  0.1834  0.6750 -0.2923
  198DOPC   C3224528  -0.795   6.532  13.343 -0.4125 -0.0187  0.7131
  198DOPC   H2X24529  -0.720   6.610  13.322 -1.4821  0.7863 -0.2296
  198DOPC   H2Y24530  -0.884   6.542  13.278  0.0170  0.3339  0.1771
  198DOPC   C2324531  -0.167   6.416  13.531  0.0454 -0.0229 -1.4345
  198DOPC   H3R24532  -0.271   6.408  13.568  0.1719  2.1568 -0.4526
  198DOPC   H3S24533  -0.141   6.523  13.524  2.9818 -0.5668 -0.4480
  198DOPC   C2424534  -0.073   6.353  13.638 -0.0453 -0.7166  0.6946
  198DOPC   H4R24535  -0.086   6.415  13.729  1.0708  0.5079  0.0518
  198DOPC   H4S24536   0.035   6.356  13.613 -0.0803 -0.2053  0.5977
  198DOPC   C2524537  -0.100   6.206  13.668 -0.4770 -0.6184  0.3641
  198DOPC   H5R24538  -0.084   6.138  13.582  0.4859  0.0100  0.0378
  198DOPC   H5S24539  -0.210   6.197  13.682 -0.9258  2.0851 -0.7439
  198DOPC   C2624540  -0.026   6.147  13.786 -0.7382  0.4955 -0.3848
  198DOPC   H6R24541  -0.022   6.221  13.870  1.3099  0.3046 -0.2648
  198DOPC   H6S24542   0.082   6.131  13.767 -0.4975  0.2826  1.0568
  198DOPC   C2724543  -0.080   6.013  13.855  0.7403  0.2886  0.5258
  198DOPC   H7R24544  -0.073   5.920  13.795  3.1515 -0.1324  1.3619
  198DOPC   H7S24545  -0.185   6.036  13.883 -0.1267 -0.2603 -2.0048
  198DOPC   C2824546  -0.013   5.994  13.991  0.4259  0.1070  0.0850
  198DOPC   H8R24547  -0.016   6.098  14.030 -1.9666  1.1667 -2.5360
  198DOPC   H8S24548   0.090   5.956  13.981  0.7227  0.7845  0.5172
  198DOPC   C2924549  -0.096   5.898  14.082 -0.6086  0.3824  0.2441
  198DOPC   H9R24550  -0.068   5.793  14.067 -0.1426  0.6088 -0.5400
  198DOPC  C21024551  -0.194   5.932  14.163  1.0152  0.3050 -0.2601
  198DOPC  H10R24552  -0.241   5.854  14.224  2.2888  0.9503  1.6295
  198DOPC  C21124553  -0.243   6.073  14.204  0.6325 -0.6407  0.2169
  198DOPC  H11R24554  -0.349   6.081  14.175  0.3548 -2.0921  0.7679
  198DOPC  H11S24555  -0.174   6.149  14.160  2.7629 -1.4839  1.8913
  198DOPC  C21224556  -0.237   6.111  14.352 -0.1332 -0.2447  0.5152
  198DOPC  H12R24557  -0.134   6.099  14.390 -0.0792  0.0220  0.4503
  198DOPC  H12S24558  -0.309   6.038  14.396 -1.1770  0.9051  0.7636
  198DOPC  C21324559  -0.270   6.268  14.360  0.7519 -0.2725 -0.2923
  198DOPC  H13R24560  -0.367   6.284  14.309 -0.2180  1.8305  1.9755
  198DOPC  H13S24561  -0.197   6.322  14.295  1.0342  0.5695  0.6938
  198DOPC  C21424562  -0.259   6.329  14.495  0.6998 -0.0256  0.3228
  198DOPC  H14R24563  -0.296   6.433  14.486 -0.9998 -0.5293  1.0885
  198DOPC  H14S24564  -0.153   6.315  14.528 -0.1682 -2.4241  2.4650
  198DOPC  C21524565  -0.339   6.246  14.595  0.0720 -0.2603  0.1257
  198DOPC  H15R24566  -0.298   6.145  14.616 -0.3776 -0.1917  1.3920
  198DOPC  H15S24567  -0.435   6.232  14.542 -0.0658 -1.6471  0.6892
  198DOPC  C21624568  -0.363   6.315  14.733 -0.3295 -0.2219 -0.5158
  198DOPC  H16R24569  -0.423   6.404  14.704  0.7771  1.0444  0.9375
  198DOPC  H16S24570  -0.268   6.355  14.774 -1.0620  3.3889 -1.9969
  198DOPC  C21724571  -0.433   6.226  14.835  0.0205  0.2713  0.2339
  198DOPC  H17R24572  -0.541   6.219  14.808  0.1433  2.0797 -0.8848
  198DOPC  H17S24573  -0.430   6.281  14.932 -1.9680  1.3363 -0.2535
  198DOPC  C21824574  -0.390   6.082  14.865 -0.8213 -0.2657  0.1045
  198DOPC  H18R24575  -0.445   6.045  14.954 -1.4149 -2.6373 -1.1557
  198DOPC  H18S24576  -0.283   6.084  14.895 -0.3892 -2.3984 -1.0313
  198DOPC  H18T24577  -0.416   6.015  14.780 -3.1821  2.7497 -1.7268
  198DOPC   C3324578  -0.850   6.544  13.487  0.3416 -0.3345 -0.1494
  198DOPC   H3X24579  -0.900   6.447  13.509 -1.9472  0.3349 -1.9693
  198DOPC   H3Y24580  -0.929   6.622  13.483  0.3240 -0.2439  1.2137
  198DOPC   C3424581  -0.747   6.581  13.596  0.7273 -0.3010  0.4485
  198DOPC   H4X24582  -0.673   6.659  13.567  0.7533 -0.3518  0.3777
  198DOPC   H4Y24583  -0.690   6.487  13.616  0.0876 -0.3665  2.1958
  198DOPC   C3524584  -0.797   6.636  13.727 -0.0330  0.4316  0.9100
  198DOPC   H5X24585  -0.831   6.561  13.801  0.8474 -1.6715 -0.6862
  198DOPC   H5Y24586  -0.894   6.688  13.715  0.8564  2.1255  0.6989
  198DOPC   C3624587  -0.705   6.740  13.788  0.0911  0.1195 -0.0779
  198DOPC   H6X24588  -0.601   6.703  13.801 -0.1173  0.0916  1.9356
  198DOPC   H6Y24589  -0.693   6.826  13.719  1.9435  1.6555  2.0058
  198DOPC   C3724590  -0.749   6.787  13.924 -0.2175 -0.2965  0.6767
  198DOPC   H7X24591  -0.859   6.803  13.919 -0.0189  0.9350 -0.2436
  198DOPC   H7Y24592  -0.728   6.701  13.991 -2.5747 -1.5151 -0.0323
  198DOPC   C3824593  -0.682   6.916  13.974 -0.0503 -0.4750 -0.0111
  198DOPC   H8X24594  -0.689   6.996  13.898  1.5541  0.9489  1.2675
  198DOPC   H8Y24595  -0.577   6.888  13.996  0.2681  0.4769 -0.2821
  198DOPC   C3924596  -0.749   6.975  14.099 -0.3156  0.2994  0.3326
  198DOPC   H9X24597  -0.849   7.019  14.090 -0.1592  0.4986 -0.5336
  198DOPC  C31024598  -0.692   6.978  14.221  0.3522 -0.3509 -0.2095
  198DOPC  H10X24599  -0.744   7.036  14.299  0.6240  0.7080 -0.7928
  198DOPC  C31124600  -0.562   6.925  14.270  0.3019 -0.6590  0.2937
  198DOPC  H11X24601  -0.518   6.990  14.349 -1.4732  1.2433 -0.2051
  198DOPC  H11Y24602  -0.491   6.922  14.184  2.0482 -1.2173  1.6885
  198DOPC  C31224603  -0.570   6.788  14.336  0.0785  0.1688 -0.4802
  198DOPC  H12X24604  -0.638   6.795  14.424 -0.0134 -0.3909 -0.4998
  198DOPC  H12Y24605  -0.471   6.765  14.382  0.4695  0.9450 -0.9169
  198DOPC  C31324606  -0.589   6.670  14.239 -0.3736  0.4793  0.0528
  198DOPC  H13X24607  -0.691   6.671  14.196 -0.1404 -0.4014 -0.5635
  198DOPC  H13Y24608  -0.512   6.673  14.159 -0.9382 -1.2077 -0.6145
  198DOPC  C31424609  -0.563   6.533  14.298  0.1210 -0.5405 -0.1945
  198DOPC  H14X24610  -0.454   6.513  14.292 -0.2292 -2.2093 -2.3657
  198DOPC  H14Y24611  -0.586   6.543  14.406 -1.3994 -2.1434 -0.3302
  198DOPC  C31524612  -0.653   6.427  14.242  0.6321 -0.0173  0.1402
  198DOPC  H15X24613  -0.760   6.455  14.247  0.1316 -1.5072 -1.4685
  198DOPC  H15Y24614  -0.639   6.331  14.295 -0.3792 -0.6789 -0.7597
  198DOPC  C31624615  -0.644   6.399  14.091 -0.3215  0.3085  0.5220
  198DOPC  H16X24616  -0.695   6.301  14.076  1.3626 -0.4394 -0.7233
  198DOPC  H16Y24617  -0.700   6.479  14.038  0.5076  2.1072  2.2567
  198DOPC  C31724618  -0.505   6.412  14.023  0.8098 -0.6403 -0.3071
  198DOPC  H17X24619  -0.460   6.514  14.028  1.4461 -0.9518  0.7191
  198DOPC  H17Y24620  -0.432   6.354  14.084  1.7354  0.4824 -0.3044
  198DOPC  C31824621  -0.498   6.357  13.885  0.4209 -0.1641  0.5246
  198DOPC  H18X24622  -0.558   6.264  13.877  1.3132 -0.6050 -2.0476
  198DOPC  H18Y24623  -0.547   6.421  13.809 -0.7152 -0.8447  0.6679
  198DOPC  H18Z24624  -0.399   6.323  13.849 -0.6072 -1.3599 -1.3161
  199DOPC     N24625   7.003   7.607  12.519 -0.3646  0.3117  0.7770
  199DOPC   C1224626   7.005   7.561  12.664 -0.1597  0.5094  0.9483
  199DOPC  H12A24627   7.096   7.592  12.713 -0.5709  0.3538  1.8301
  199DOPC  H12B24628   7.017   7.454  12.660  1.3298  0.6848 -0.2480
  199DOPC   C1324629   6.885   7.538  12.443 -0.4051  0.0913  0.6390
  199DOPC  H13A24630   6.887   7.430  12.445 -0.4231  0.0826  0.1822
  199DOPC  H13B24631   6.794   7.582  12.481  0.2400  0.3738  1.9255
  199DOPC  H13C24632   6.902   7.563  12.339  1.2884 -1.6724  0.4363
  199DOPC   C1424633   7.127   7.557  12.452 -0.2068 -0.5478  0.0544
  199DOPC  H14A24634   7.137   7.572  12.345  1.5047  1.5089  0.4375
  199DOPC  H14B24635   7.219   7.587  12.498 -0.0985  1.0706 -1.1299
  199DOPC  H14C24636   7.129   7.449  12.458 -1.9448 -0.5473  1.4740
  199DOPC   C1524637   7.005   7.754  12.508  0.0125 -0.2679 -0.4866
  199DOPC  H15A24638   6.916   7.800  12.548  0.0420 -0.8158  0.2374
  199DOPC  H15B24639   7.019   7.777  12.403  1.6993 -1.1863 -0.5066
  199DOPC  H15C24640   7.080   7.801  12.570 -2.2070  1.4388  1.0603
  199DOPC   C1124641   6.879   7.584  12.749 -0.0860  0.6174  0.7071
  199DOPC  H11A24642   6.894   7.559  12.856 -0.3479 -1.6828  0.2421
  199DOPC  H11B24643   6.853   7.692  12.753  0.3181  0.7950 -0.8272
  199DOPC     P24644   6.748   7.363  12.739  0.1274  0.6010  0.1517
  199DOPC   O1324645   6.839   7.272  12.666  0.3775 -0.5136  0.3704
  199DOPC   O1424646   6.600   7.335  12.740  0.2925  0.1273 -0.0859
  199DOPC   O1224647   6.773   7.512  12.702 -0.1700 -0.2649  0.1481
  199DOPC   O1124648   6.791   7.362  12.888  0.1309 -0.8540  0.3178
  199DOPC    C124649   6.901   7.280  12.934  0.0697  0.0666  0.6376
  199DOPC    HA24650   6.941   7.310  13.033  0.3289 -0.7070  0.7764
  199DOPC    HB24651   6.980   7.289  12.857 -0.6792 -0.3089 -0.2024
  199DOPC    C224652   6.858   7.123  12.949 -0.4031 -0.1472  0.1189
  199DOPC    HS24653   6.811   7.090  12.854 -0.3682 -0.8511  0.3393
  199DOPC   O2124654   6.782   7.107  13.069 -0.0045  0.3197 -0.3328
  199DOPC   C2124655   6.705   7.009  13.075 -0.4028  0.4963 -0.3137
  199DOPC   O2224656   6.690   6.921  12.992  0.1798  0.0958 -0.0311
  199DOPC   C2224657   6.653   6.994  13.224  0.3501 -0.2379  0.2099
  199DOPC   H2R24658   6.560   6.934  13.215  1.0422 -1.0822 -1.8522
  199DOPC   H2S24659   6.630   7.095  13.264 -1.3633 -0.9603  1.1580
  199DOPC    C324660   6.994   7.037  12.954  0.1890 -0.0387  0.7779
  199DOPC    HX24661   7.055   7.074  12.869  0.2375 -1.0180  0.3719
  199DOPC    HY24662   6.972   6.931  12.931  0.7155  0.2196 -1.1103
  199DOPC   O3124663   7.067   7.056  13.074 -0.5060  0.2663  0.4442
  199DOPC   C3124664   7.098   6.946  13.144  0.1459  0.6788 -0.6211
  199DOPC   O3224665   7.064   6.834  13.120 -0.0483  0.4298 -0.2054
  199DOPC   C3224666   7.186   6.992  13.261 -0.2437  0.6512 -0.3006
  199DOPC   H2X24667   7.268   7.051  13.216  0.0694  1.0773  0.8029
  199DOPC   H2Y24668   7.129   7.058  13.329  0.3811 -0.0121  0.8968
  199DOPC   C2324669   6.750   6.913  13.318  0.1310  0.7764  0.6233
  199DOPC   H3R24670   6.855   6.934  13.288  0.4665 -0.8439  0.5388
  199DOPC   H3S24671   6.734   6.805  13.295 -2.5644  1.3799 -0.7789
  199DOPC   C2424672   6.730   6.920  13.464  0.5719  0.0964 -0.0904
  199DOPC   H4R24673   6.800   6.851  13.515 -0.9637 -1.3309  0.1875
  199DOPC   H4S24674   6.635   6.870  13.492  0.0326 -0.4121 -2.5937
  199DOPC   C2524675   6.767   7.051  13.528  0.2220  0.1540  0.2343
  199DOPC   H5R24676   6.691   7.126  13.496 -0.6539 -0.0934  1.6339
  199DOPC   H5S24677   6.867   7.080  13.490  1.2563 -4.2529 -0.8939
  199DOPC   C2624678   6.767   7.057  13.682 -0.2601  0.1669  0.2647
  199DOPC   H6R24679   6.823   7.151  13.699 -0.8841  0.5338  0.2949
  199DOPC   H6S24680   6.825   6.967  13.713  0.3629 -0.0221 -1.3293
  199DOPC   C2724681   6.624   7.082  13.730 -0.3776  0.1879  0.4352
  199DOPC   H7R24682   6.566   6.998  13.686 -2.4534  0.4737  2.4546
  199DOPC   H7S24683   6.592   7.187  13.710  0.0202  0.1590 -0.4030
  199DOPC   C2824684   6.606   7.063  13.888 -0.5355  0.2417  0.2608
  199DOPC   H8R24685   6.666   6.975  13.920 -0.8231  0.5187  1.6343
  199DOPC   H8S24686   6.501   7.035  13.913 -0.4064 -1.3869 -0.8536
  199DOPC   C2924687   6.657   7.186  13.958  0.4044 -0.4548  0.6839
  199DOPC   H9R24688   6.724   7.252  13.901  0.1148  0.0507  0.9285
  199DOPC  C21024689   6.632   7.209  14.086  0.0798 -0.6306 -0.4005
  199DOPC  H10R24690   6.682   7.293  14.136 -0.0511 -0.8535  0.1037
  199DOPC  C21124691   6.565   7.104  14.172 -0.5484 -0.2474 -0.1512
  199DOPC  H11R24692   6.646   7.032  14.197  1.5450  2.2435  0.6940
  199DOPC  H11S24693   6.482   7.057  14.115  1.1964 -2.0206 -1.3746
  199DOPC  C21224694   6.516   7.162  14.309 -0.2614  0.8325  0.2882
  199DOPC  H12R24695   6.459   7.074  14.346  0.8088 -1.1733 -2.5330
  199DOPC  H12S24696   6.447   7.243  14.275 -0.3992  0.0841 -1.2802
  199DOPC  C21324697   6.628   7.214  14.393  0.5538 -0.5058 -0.3375
  199DOPC  H13R24698   6.677   7.302  14.345 -0.0496  0.8404  1.4133
  199DOPC  H13S24699   6.717   7.148  14.396  2.1112  1.4715 -1.0622
  199DOPC  C21424700   6.576   7.264  14.531 -0.0182 -0.4262  0.3884
  199DOPC  H14R24701   6.532   7.178  14.586  0.1193 -0.2041  0.8439
  199DOPC  H14S24702   6.492   7.338  14.529  0.5379  0.2499  1.2632
  199DOPC  C21524703   6.690   7.324  14.609  0.0803  0.4008  0.1185
  199DOPC  H15R24704   6.718   7.421  14.562 -1.2507  1.4632  1.3967
  199DOPC  H15S24705   6.768   7.246  14.613 -1.1506 -0.8990 -0.4689
  199DOPC  C21624706   6.657   7.365  14.752  0.6246 -0.3252  0.1346
  199DOPC  H16R24707   6.577   7.442  14.741 -0.1729 -0.9337  1.4445
  199DOPC  H16S24708   6.747   7.411  14.798  0.6108 -0.2749  0.1106
  199DOPC  C21724709   6.600   7.263  14.840 -0.5238  0.1346 -0.2199
  199DOPC  H17R24710   6.678   7.187  14.861  0.6942  1.5183  0.3794
  199DOPC  H17S24711   6.513   7.211  14.793  1.8683 -2.2803 -2.2876
  199DOPC  C21824712   6.558   7.304  14.978 -0.1500 -0.9710  0.5692
  199DOPC  H18R24713   6.651   7.308  15.038 -1.0714 -1.6246  2.0869
  199DOPC  H18S24714   6.483   7.233  15.020 -0.1945 -1.4737 -0.3260
  199DOPC  H18T24715   6.515   7.406  14.970 -0.8884 -1.3720 -1.1422
  199DOPC   C3324716   7.238   6.872  13.348  0.4186  0.7312  0.2132
  199DOPC   H3X24717   7.322   6.824  13.293  0.3530 -0.3435  1.0211
  199DOPC   H3Y24718   7.158   6.795  13.361  2.7268 -1.6390  1.2511
  199DOPC   C3424719   7.277   6.914  13.492  0.3611 -0.0638 -0.0623
  199DOPC   H4X24720   7.200   6.978  13.539 -0.0642 -2.5169  2.8590
  199DOPC   H4Y24721   7.373   6.971  13.488  0.2565  0.2751  1.5023
  199DOPC   C3524722   7.305   6.794  13.592  0.1521  0.5367  1.3931
  199DOPC   H5X24723   7.407   6.766  13.557  0.2624  1.6614  0.7671
  199DOPC   H5Y24724   7.234   6.711  13.575 -0.3141  0.9479  1.3177
  199DOPC   C3624725   7.317   6.829  13.733  0.1649 -0.3406 -0.4928
  199DOPC   H6X24726   7.235   6.898  13.764 -1.8115 -0.9082 -3.9125
  199DOPC   H6Y24727   7.315   6.746  13.807  1.3426  0.1344  0.0834
  199DOPC   C3724728   7.454   6.888  13.761  0.3149 -0.4032  0.4037
  199DOPC   H7X24729   7.524   6.813  13.717  2.5106  1.2096  1.0132
  199DOPC   H7Y24730   7.476   6.983  13.709  1.5301 -0.4773  0.7713
  199DOPC   C3824731   7.499   6.902  13.909  0.0634  0.2047 -0.0080
  199DOPC   H8X24732   7.609   6.915  13.906 -0.0974  2.4723  1.2879
  199DOPC   H8Y24733   7.482   6.813  13.974  0.9119  0.0696  0.0405
  199DOPC   C3924734   7.448   7.026  13.982  0.1969 -0.4137 -0.4065
  199DOPC   H9X24735   7.381   7.092  13.925  1.4683 -1.6748 -3.5980
  199DOPC  C31024736   7.458   7.044  14.119 -0.2370  0.4202  0.6206
  199DOPC  H10X24737   7.414   7.138  14.156  0.8756  0.4875  1.8229
  199DOPC  C31124738   7.525   6.947  14.214  0.2991 -0.1760  0.4802
  199DOPC  H11X24739   7.606   6.894  14.160  0.2124 -0.9877  1.1346
  199DOPC  H11Y24740   7.448   6.872  14.244 -0.7509  0.8023  0.3013
  199DOPC  C31224741   7.587   7.013  14.340 -0.4215  0.2935  0.1945
  199DOPC  H12X24742   7.510   7.077  14.389  1.3456  1.3860  1.6906
  199DOPC  H12Y24743   7.666   7.082  14.302 -0.5004 -0.4966 -1.5066
  199DOPC  C31324744   7.653   6.911  14.436 -0.2375 -0.4205  0.1449
  199DOPC  H13X24745   7.721   6.854  14.369 -1.1580  3.0603 -4.2721
  199DOPC  H13Y24746   7.714   6.958  14.516  0.4922 -0.6539 -0.2635
  199DOPC  C31424747   7.559   6.806  14.495  0.3722 -0.0332  0.4573
  199DOPC  H14X24748   7.512   6.746  14.414  0.8467 -1.2177  1.0286
  199DOPC  H14Y24749   7.628   6.743  14.556  0.5874  0.2898  0.5504
  199DOPC  C31524750   7.442   6.851  14.578 -0.9853 -0.0276  0.0729
  199DOPC  H15X24751   7.377   6.917  14.516  1.5426  1.8665 -0.7269
  199DOPC  H15Y24752   7.485   6.911  14.660  0.9396  0.0473 -0.9453
  199DOPC  C31624753   7.378   6.738  14.661 -0.4699 -0.2839 -0.2269
  199DOPC  H16X24754   7.363   6.652  14.593  0.8058 -0.3292 -0.4826
  199DOPC  H16Y24755   7.456   6.713  14.737  1.1465  0.2224 -1.6514
  199DOPC  C31724756   7.242   6.774  14.727 -0.2422 -0.7427 -0.2578
  199DOPC  H17X24757   7.256   6.845  14.812  0.4379 -1.2002  0.0157
  199DOPC  H17Y24758   7.180   6.828  14.652 -0.6823 -1.6664 -0.5710
  199DOPC  C31824759   7.164   6.650  14.775  0.4121  0.2505 -0.9564
  199DOPC  H18X24760   7.226   6.592  14.847 -1.6450  2.6554  3.0820
  199DOPC  H18Y24761   7.067   6.675  14.823  1.2724  0.2802  0.8305
  199DOPC  H18Z24762   7.145   6.586  14.685  2.2870 -0.2450 -1.0414
  200DOPC     N24763   2.197   6.601  12.208 -0.9204 -0.1987  0.1134
  200DOPC   C1224764   2.267   6.583  12.337  0.3646  0.0402 -0.8765
  200DOPC  H12A24765   2.366   6.545  12.318 -0.1373 -1.4924 -0.5691
  200DOPC  H12B24766   2.217   6.507  12.395  2.2435  1.1518  2.5110
  200DOPC   C1324767   2.185   6.460  12.145 -0.0986 -0.3613 -0.5199
  200DOPC  H13A24768   2.144   6.388  12.215 -0.0463  1.5215  1.5172
  200DOPC  H13B24769   2.121   6.467  12.058 -0.3755 -0.7628 -0.3524
  200DOPC  H13C24770   2.281   6.420  12.114  0.2467  1.2666 -1.6684
  200DOPC   C1424771   2.279   6.685  12.118 -0.2727 -0.0453  0.3294
  200DOPC  H14A24772   2.378   6.643  12.105  0.1653  1.0529 -0.0124
  200DOPC  H14B24773   2.245   6.697  12.017  0.6175 -0.0610  0.0148
  200DOPC  H14C24774   2.286   6.784  12.162 -2.2434  1.1621 -1.8585
  200DOPC   C1524775   2.060   6.654  12.224  0.0733  0.1527 -0.5339
  200DOPC  H15A24776   1.999   6.578  12.269  1.2397  0.3857  1.5367
  200DOPC  H15B24777   2.019   6.679  12.127 -1.4566 -1.4438 -0.3495
  200DOPC  H15C24778   2.064   6.744  12.283 -1.1672 -0.5847  0.7359
  200DOPC   C1124779   2.285   6.706  12.426 -0.2166 -0.2136 -0.0368
  200DOPC  H11A24780   2.342   6.677  12.516 -0.9968 -0.4428  0.3958
  200DOPC  H11B24781   2.342   6.785  12.373 -0.4776 -0.4530 -0.6861
  200DOPC     P24782   2.082   6.710  12.595 -0.4044 -0.2526 -0.0883
  200DOPC   O1324783   2.109   6.567  12.599 -0.1343 -0.6951 -0.2941
  200DOPC   O1424784   1.943   6.759  12.590 -0.0138 -0.4097 -0.1594
  200DOPC   O1224785   2.162   6.766  12.467 -0.4421 -0.4364 -0.0386
  200DOPC   O1124786   2.159   6.787  12.714  0.1908 -0.3901  0.1122
  200DOPC    C124787   2.187   6.932  12.709  0.8379 -0.4354 -0.2967
  200DOPC    HA24788   2.107   6.980  12.648  0.1602  1.0798  1.6815
  200DOPC    HB24789   2.289   6.955  12.672  0.2041  1.3579 -1.0421
  200DOPC    C224790   2.169   7.002  12.850 -0.3447  0.0586  0.5921
  200DOPC    HS24791   2.182   7.112  12.841  0.0175  0.0079  0.4645
  200DOPC   O2124792   2.279   6.955  12.936 -0.2009  0.1400  0.3676
  200DOPC   C2124793   2.290   7.028  13.044 -0.2255 -0.1380  0.0596
  200DOPC   O2224794   2.248   7.138  13.058 -0.2466 -0.1214  0.2081
  200DOPC   C2224795   2.353   6.943  13.151 -0.6101  0.0951  0.4744
  200DOPC   H2R24796   2.460   6.933  13.126 -0.8219  0.6830 -0.7604
  200DOPC   H2S24797   2.314   6.839  13.152 -0.1617 -0.0688  1.7404
  200DOPC    C324798   2.029   6.969  12.916 -0.6692  0.4612  0.4055
  200DOPC    HX24799   2.014   6.859  12.912  0.3243  0.2186  2.1824
  200DOPC    HY24800   1.954   7.013  12.846 -0.6469 -1.3035 -0.7998
  200DOPC   O3124801   2.001   7.008  13.051  0.0701  0.2860 -0.1513
  200DOPC   C3124802   1.948   7.132  13.071 -0.9741  0.5087  0.0939
  200DOPC   O3224803   1.929   7.209  12.981 -0.0215 -0.1101 -0.1424
  200DOPC   C3224804   1.914   7.149  13.218 -0.6646 -0.7189 -0.0384
  200DOPC   H2X24805   1.862   7.061  13.261 -1.1813 -0.1864  0.4305
  200DOPC   H2Y24806   2.007   7.166  13.276 -2.0038 -0.4439  2.1202
  200DOPC   C2324807   2.355   7.003  13.293 -0.0472  0.6884 -0.4737
  200DOPC   H3R24808   2.348   7.112  13.274 -0.8268  0.5104 -1.2489
  200DOPC   H3S24809   2.445   6.966  13.347 -0.4581 -2.1392 -1.5428
  200DOPC   C2424810   2.223   6.966  13.369  0.0416  0.3812  0.8653
  200DOPC   H4R24811   2.231   6.857  13.388  1.9056  0.2928 -0.2460
  200DOPC   H4S24812   2.140   6.975  13.295  0.5483  0.2357  0.2784
  200DOPC   C2524813   2.193   7.053  13.490  0.2465  0.0946  0.0323
  200DOPC   H5R24814   2.102   7.015  13.542  1.3229 -1.1900  1.0339
  200DOPC   H5S24815   2.170   7.154  13.451  0.1614 -0.4519 -1.4270
  200DOPC   C2624816   2.303   7.051  13.597  0.4278 -1.0982 -0.2202
  200DOPC   H6R24817   2.392   7.095  13.547 -0.8127 -0.2268 -1.7603
  200DOPC   H6S24818   2.330   6.945  13.618  3.6342 -0.7004 -1.7003
  200DOPC   C2724819   2.272   7.131  13.722  0.0220 -0.0112 -0.0188
  200DOPC   H7R24820   2.174   7.093  13.759  0.1065  1.1442  1.4760
  200DOPC   H7S24821   2.256   7.240  13.709 -0.7391 -0.2765 -1.5101
  200DOPC   C2824822   2.381   7.113  13.831 -0.3377 -0.1977  0.2046
  200DOPC   H8R24823   2.452   7.046  13.779 -1.2017 -1.4247  0.5628
  200DOPC   H8S24824   2.324   7.059  13.910 -0.0339  0.9956  1.2919
  200DOPC   C2924825   2.458   7.234  13.886 -0.0867  0.4203  0.7056
  200DOPC   H9R24826   2.447   7.331  13.835 -2.4921 -0.0080  0.2893
  200DOPC  C21024827   2.512   7.237  14.008 -0.2743  0.4849 -0.1188
  200DOPC  H10R24828   2.578   7.321  14.035 -2.8523  2.3640  0.6919
  200DOPC  C21124829   2.514   7.112  14.093  0.2074 -1.1269 -0.0071
  200DOPC  H11R24830   2.618   7.080  14.115  0.2524 -0.2226  1.1839
  200DOPC  H11S24831   2.462   7.022  14.055 -0.9474 -0.3695 -0.3073
  200DOPC  C21224832   2.434   7.141  14.225  0.0353 -0.1909  0.1193
  200DOPC  H12R24833   2.409   7.046  14.276 -0.5403  0.2602  0.6986
  200DOPC  H12S24834   2.337   7.190  14.201 -0.5233 -1.0042  0.6885
  200DOPC  C21324835   2.508   7.226  14.335 -0.6435 -0.6884  0.5926
  200DOPC  H13R24836   2.521   7.328  14.294 -1.0862 -1.6791 -2.2815
  200DOPC  H13S24837   2.610   7.183  14.349 -0.0962  0.6794  0.9440
  200DOPC  C21424838   2.423   7.230  14.458 -0.2908 -0.1110 -0.0291
  200DOPC  H14R24839   2.317   7.256  14.434 -0.1247 -0.2227 -0.9513
  200DOPC  H14S24840   2.461   7.316  14.516  1.1620 -0.6525 -0.1482
  200DOPC  C21524841   2.428   7.110  14.548 -0.1324  0.0974 -0.3004
  200DOPC  H15R24842   2.507   7.130  14.623 -0.1522  2.8058 -0.9061
  200DOPC  H15S24843   2.457   7.017  14.494 -1.6193 -0.4049 -0.2914
  200DOPC  C21624844   2.298   7.079  14.619 -0.2874 -0.1389  0.5985
  200DOPC  H16R24845   2.213   7.074  14.547 -1.1033 -0.5167  1.5543
  200DOPC  H16S24846   2.269   7.169  14.678 -1.9277  0.4283 -0.9790
  200DOPC  C21724847   2.298   6.951  14.708 -0.3935  0.0830  0.4502
  200DOPC  H17R24848   2.373   6.960  14.789 -0.8209 -1.8188  1.0997
  200DOPC  H17S24849   2.331   6.870  14.640 -0.3143  2.9934 -3.3557
  200DOPC  C21824850   2.165   6.928  14.780  0.9114  0.5441 -0.2321
  200DOPC  H18R24851   2.184   6.840  14.845 -2.4651  0.1833  0.4363
  200DOPC  H18S24852   2.089   6.913  14.701 -0.9374  2.2014  1.1357
  200DOPC  H18T24853   2.125   7.016  14.836  1.1181  0.1374  0.5772
  200DOPC   C3324854   1.823   7.274  13.233 -0.0222  0.2860 -0.1017
  200DOPC   H3X24855   1.736   7.258  13.166  0.8561  2.0254 -1.7607
  200DOPC   H3Y24856   1.880   7.359  13.192  0.2245 -0.6846 -1.8313
  200DOPC   C3424857   1.782   7.328  13.375  0.2479 -0.0373  0.4688
  200DOPC   H4X24858   1.732   7.244  13.429 -0.2295 -0.1305 -0.1000
  200DOPC   H4Y24859   1.696   7.397  13.358 -0.5837 -1.2317 -0.3858
  200DOPC   C3524860   1.898   7.378  13.449 -0.9805  0.0296 -0.1967
  200DOPC   H5X24861   1.948   7.459  13.393  0.4670  0.1007  1.1300
  200DOPC   H5Y24862   1.969   7.292  13.452 -0.1728  0.7074  0.4886
  200DOPC   C3624863   1.881   7.417  13.593  0.1504 -0.2392 -0.3118
  200DOPC   H6X24864   1.798   7.490  13.601  0.5121 -0.0205  2.4043
  200DOPC   H6Y24865   1.844   7.328  13.649  0.0804 -1.7516 -2.6327
  200DOPC   C3724866   2.007   7.469  13.666  0.6214  0.3515 -0.7572
  200DOPC   H7X24867   2.070   7.378  13.674 -0.7104 -0.5546 -0.1087
  200DOPC   H7Y24868   2.045   7.550  13.601 -0.3830  1.4175 -0.0489
  200DOPC   C3824869   1.978   7.521  13.804  0.4639 -0.6119  0.3012
  200DOPC   H8X24870   1.929   7.450  13.874  0.9601 -0.7907  0.4713
  200DOPC   H8Y24871   1.899   7.598  13.786 -0.7587 -1.5885  1.3021
  200DOPC   C3924872   2.087   7.602  13.856 -0.0513 -0.6106 -0.4712
  200DOPC   H9X24873   2.113   7.694  13.801 -0.8341  0.3775  0.7344
  200DOPC  C31024874   2.155   7.560  13.967 -0.5000  0.7101 -0.0198
  200DOPC  H10X24875   2.246   7.616  13.994  0.1987 -0.7883  0.8344
  200DOPC  C31124876   2.142   7.440  14.057  1.2384  0.1571 -0.3305
  200DOPC  H11X24877   2.239   7.394  14.084  0.3553 -0.9353  1.1217
  200DOPC  H11Y24878   2.105   7.355  13.995  2.6259 -0.8955  0.2297
  200DOPC  C31224879   2.052   7.459  14.177  0.1128 -0.1054  0.0888
  200DOPC  H12X24880   1.953   7.475  14.128  0.9761 -1.5825 -2.3518
  200DOPC  H12Y24881   2.071   7.551  14.235 -2.0494  0.3385  0.1700
  200DOPC  C31324882   2.051   7.332  14.259  0.5756  0.3473 -0.3913
  200DOPC  H13X24883   1.981   7.260  14.212 -1.3644  2.3821 -0.8034
  200DOPC  H13Y24884   2.155   7.292  14.248  1.1084  1.2540  1.0563
  200DOPC  C31424885   2.021   7.351  14.406 -0.0130 -0.3553 -0.3469
  200DOPC  H14X24886   2.036   7.250  14.451  0.5648 -0.2894 -0.3842
  200DOPC  H14Y24887   2.096   7.415  14.458 -2.5727  1.3400  1.4618
  200DOPC  C31524888   1.875   7.384  14.436  0.0838 -0.3243 -0.7308
  200DOPC  H15X24889   1.808   7.311  14.384 -1.4726  2.1934 -2.4715
  200DOPC  H15Y24890   1.857   7.487  14.398  0.7030 -0.3321 -1.0575
  200DOPC  C31624891   1.838   7.392  14.586 -0.6044 -0.2094 -0.4857
  200DOPC  H16X24892   1.883   7.305  14.639  0.7234 -1.2867 -3.1831
  200DOPC  H16Y24893   1.876   7.487  14.630  1.3344 -0.0966 -2.2464
  200DOPC  C31724894   1.691   7.412  14.610  0.8621 -0.6852  0.7737
  200DOPC  H17X24895   1.661   7.517  14.588  0.6809 -0.7636  0.6391
  200DOPC  H17Y24896   1.635   7.332  14.556 -1.1694 -0.1746  2.0268
  200DOPC  C31824897   1.651   7.387  14.761  0.2672 -0.0844  0.0141
  200DOPC  H18X24898   1.732   7.418  14.831 -0.2285  0.5239  0.3254
  200DOPC  H18Y24899   1.561   7.450  14.773  0.5170  0.6365 -1.6472
  200DOPC  H18Z24900   1.623   7.279  14.768  0.9112 -0.2330  0.3872
  201SOD    SOD24901   1.896   0.021  19.047 -0.6793  0.0895  1.0444
  202SOD    SOD24902   2.743   4.460  11.623 -0.3050 -0.2760 -0.1171
  203SOD    SOD24903   6.719   3.242  19.003  0.5043 -0.3100  0.1069
  204SOD    SOD24904   2.790   4.445  12.694 -0.0022  0.4597 -0.0423
  205SOD    SOD24905   7.104   6.210  17.064 -0.2111  0.2276 -0.2249
  206SOD    SOD24906   1.710   0.791  11.988 -0.1480  0.2432 -0.5564
  207SOD    SOD24907   1.315   7.402  11.417 -0.1255 -0.2639 -0.2795
  208SOD    SOD24908   3.991   6.353  17.499 -0.1935  0.4910  0.8286
  209SOD    SOD24909   1.398   4.840  11.626  0.4190  0.0163  0.4999
  210SOD    SOD24910   4.681   2.188  18.912 -0.0222 -0.5763 -0.7786
  211SOD    SOD24911   4.491   3.136  17.230 -0.2984  0.3583  0.0494
  212SOD    SOD24912   1.808   0.428  18.996  0.9345 -0.1287  1.0091
  213SOD    SOD24913   1.447   6.091  12.093  0.3694  0.6408 -0.2498
  214SOD    SOD24914   7.212   4.281  18.276  0.4694  0.1149  0.5092
  215SOD    SOD24915   1.683   6.992  18.508 -0.1219  0.5747  0.1445
  216SOD    SOD24916   6.957   7.459  17.844  0.2476  0.4181 -0.1572
  217SOD    SOD24917   1.445   1.183  11.074 -0.1265 -0.0611 -0.2327
  218SOD    SOD24918   4.883   0.983  16.822  0.0277 -0.6117 -0.3049
  219SOD    SOD24919   6.061   1.269  18.742 -0.0098  0.8032  0.1768
  220SOD    SOD24920   3.525   7.362  11.135 -0.1086  0.0226 -0.2454
  221SOD    SOD24921   3.342   6.442  12.532 -0.0132  0.0538 -0.2850
  222SOD    SOD24922   1.387   2.459  18.797 -0.5666  0.0614 -0.2493
  223SOD    SOD24923   6.968   3.042  11.653  0.0927 -0.1802  0.0953
  224SOD    SOD24924   3.895   6.282  12.444 -0.2607 -0.0568  0.1716
  225SOD    SOD24925   3.451   3.699  11.526  0.3232 -0.1738 -0.0878
  226SOD    SOD24926   0.997   7.345  16.673 -0.3048  0.0882 -0.1190
  227CLA    CLA24927   5.299   0.890  11.224  0.0455 -0.1481  0.3895
  228CLA    CLA24928   1.529   1.417  12.263 -0.0191  0.1883  0.1691
  229CLA    CLA24929   1.847   0.762  11.356  0.0393  0.2445 -0.0349
  230CLA    CLA24930   2.506   0.216  18.984  0.1568 -0.1163 -0.3292
  231CLA    CLA24931   5.812   5.027  18.176  0.0486  0.4617 -0.6295
  232CLA    CLA24932   5.762   7.213  17.808  0.4226  0.0988  0.4342
  233CLA    CLA24933   2.366   6.689  18.426  0.0333 -0.1937  0.2462
  234CLA    CLA24934   0.356   0.856  17.998  0.3480 -0.4952 -0.0173
  235CLA    CLA24935   3.023   1.156  11.526  0.1414  0.1218 -0.1238
  236CLA    CLA24936   1.275   0.718  17.866  0.3102  0.0163  0.6347
  237CLA    CLA24937   4.092   4.015  17.611 -0.0416  0.0690 -0.1112
  238CLA    CLA24938   2.277   4.902  11.608 -0.2461  0.5791 -0.4026
  239CLA    CLA24939   7.548   7.574  11.856  0.0717 -0.3004 -0.4752
  240CLA    CLA24940   1.522   5.154  18.058 -0.4326  0.1387  0.2020
  241CLA    CLA24941   4.844   6.727  12.722 -0.4855 -0.2551  0.0782
  242CLA    CLA24942   1.560   6.980  17.932  0.2315 -0.3932 -0.2362
  243CLA    CLA24943   6.349   5.577  12.402  0.0551  0.0144 -0.3128
  244CLA    CLA24944   6.539   5.309  11.549 -0.1723  0.4586 -0.0663
  245CLA    CLA24945   1.842   3.190  10.655 -0.1101 -0.0896  0.1336
  246CLA    CLA24946   4.084   5.527  17.928 -0.1461  0.1505 -0.2421
  247CLA    CLA24947   3.286   1.441  12.364 -0.0156  0.0615  0.0065
  248CLA    CLA24948   0.638   1.121  11.040 -0.4755 -0.2947  0.1496
  249CLA    CLA24949   2.895   4.897  11.157  0.1360 -0.0900 -0.1199
  250CLA    CLA24950   1.418   0.183  18.330 -0.1818  0.2917  0.2002
  251CLA    CLA24951   6.567   7.201  18.277 -0.3349  0.2309 -0.3013
  252CLA    CLA24952   1.172   1.361  11.545  0.0561 -0.3627 -0.4343
  253TIP3   OH224953   7.212   5.130  16.947 -0.6095  0.0263 -0.0050
  253TIP3    H124954   7.143   5.064  16.960 -1.5664  0.7532 -1.2725
  253TIP3    H224955   7.255   5.104  16.866 -0.0617  0.1696  0.2368
  254TIP3   OH224956   2.280   0.188  18.763  0.5728  0.9559 -0.5106
  254TIP3    H124957   2.339   0.203  18.837 -0.0587 -0.0449  0.2367
  254TIP3    H224958   2.320   0.116  18.714 -0.1202  0.0942  0.1469
  255TIP3   OH224959   7.388   5.049  17.162  0.2338 -0.9310  0.3200
  255TIP3    H124960   7.312   5.068  17.107  1.5708 -1.3135 -1.7405
  255TIP3    H224961   7.351   5.038  17.250 -1.9355  0.0354 -0.3950
  256TIP3   OH224962   3.689   3.572  18.647  0.2294 -0.2412  0.2844
  256TIP3    H124963   3.735   3.643  18.603 -1.1299  0.9233  0.6737
  256TIP3    H224964   3.689   3.500  18.584  4.4754 -1.1785  1.0280
  257TIP3   OH224965   6.996   7.550  18.318  0.1941  0.2927 -0.0920
  257TIP3    H124966   6.910   7.524  18.350  0.5880 -0.1498  0.6310
  257TIP3    H224967   7.055   7.481  18.348  1.3426  2.1157  2.1785
  258TIP3   OH224968   6.787   4.757  18.283  0.2084 -0.0656 -0.2865
  258TIP3    H124969   6.790   4.780  18.376  0.5360 -0.6688 -0.1346
  258TIP3    H224970   6.695   4.764  18.259  0.0594 -0.3121  0.1966
  259TIP3   OH224971   0.581   4.134  17.707  0.2015  0.4397 -0.1074
  259TIP3    H124972   0.534   4.115  17.626 -0.9020 -0.2501  0.6579
  259TIP3    H224973   0.642   4.061  17.717 -0.6300 -0.2203  0.3528
  260TIP3   OH224974   4.810   5.054  19.452 -0.1720 -0.3177 -0.1013
  260TIP3    H124975   4.728   5.005  19.450 -0.4199 -0.0130  1.7312
  260TIP3    H224976   4.788   5.137  19.494  1.1800 -0.4554  0.9448
  261TIP3   OH224977   7.035   3.609  17.122  0.2636 -0.1489  0.3944
  261TIP3    H124978   6.995   3.696  17.122 -1.0462 -0.6920 -0.9909
  261TIP3    H224979   6.978   3.557  17.065  2.3897 -1.2576 -0.8607
  262TIP3   OH224980   3.959   0.469  19.369 -0.3217 -0.1058  0.0586
  262TIP3    H124981   3.907   0.469  19.449  0.2194 -1.2028  0.4338
  262TIP3    H224982   3.912   0.411  19.309 -0.4995  0.3701 -0.2676
  263TIP3   OH224983   5.836   5.019  17.593  0.0567 -0.2918 -0.8137
  263TIP3    H124984   5.862   5.061  17.675 -0.6349  1.5977 -1.5042
  263TIP3    H224985   5.747   5.050  17.578 -1.7003 -4.2604  0.0026
  264TIP3   OH224986   0.164   6.213  18.880  0.1495 -0.9145 -0.0131
  264TIP3    H124987   0.084   6.218  18.933  0.6597 -0.3249  0.7130
  264TIP3    H224988   0.182   6.303  18.856 -0.8497 -1.2770 -2.4220
  265TIP3   OH224989   1.965   4.005  17.307 -0.6320  0.4558 -0.0287
  265TIP3    H124990   1.936   4.047  17.226  0.3695  1.9813  0.3616
  265TIP3    H224991   2.040   3.951  17.280 -2.3462 -1.8031 -0.6570
  266TIP3   OH224992   2.989   2.417  17.024 -0.4353  0.0335 -0.5396
  266TIP3    H124993   2.932   2.423  16.947 -1.4700  0.8419  0.2454
  266TIP3    H224994   2.989   2.505  17.061  2.7054  0.4819 -1.4053
  267TIP3   OH224995   2.359   0.726  19.447  0.3261  0.2752 -0.7953
  267TIP3    H124996   2.296   0.791  19.414 -0.0277  0.4176  0.1214
  267TIP3    H224997   2.443   0.770  19.442  0.2759  0.3134 -1.4400
  268TIP3   OH224998   3.127   6.081  17.588  0.4117  0.2499 -0.4932
  268TIP3    H124999   3.115   5.990  17.616  0.6513  1.5395  4.7201
  268TIP3    H225000   3.045   6.124  17.613  0.8427  1.8015 -1.6126
  269TIP3   OH225001   4.868   0.210  18.653  0.4417  0.7803  0.5753
  269TIP3    H125002   4.837   0.262  18.728  1.6932  0.0136  1.6854
  269TIP3    H225003   4.809   0.233  18.582  0.2365  2.8553  1.3278
  270TIP3   OH225004   2.825   5.382  18.213  0.8636 -0.1645 -0.2690
  270TIP3    H125005   2.859   5.293  18.207  1.5880  0.1236 -0.5420
  270TIP3    H225006   2.826   5.414  18.123 -0.6892 -0.3418 -0.3688
  271TIP3   OH225007   0.752   7.332  19.085  0.1287 -0.0657  0.2120
  271TIP3    H125008   0.678   7.330  19.024  1.4913  2.6026 -1.7062
  271TIP3    H225009   0.827   7.304  19.033  1.1425  1.1703  0.9547
  272TIP3   OH225010   6.675   6.197  19.236  0.0615 -0.1317 -0.2147
  272TIP3    H125011   6.695   6.203  19.142  0.2747  0.4349 -0.1384
  272TIP3    H225012   6.637   6.110  19.247 -0.8845  0.1748 -0.9968
  273TIP3   OH225013   1.863   2.136  18.429 -0.1266 -0.6038 -0.1119
  273TIP3    H125014   1.936   2.196  18.443  0.6637 -1.3306 -1.0028
  273TIP3    H225015   1.823   2.166  18.348 -0.3022 -0.7267 -0.0710
  274TIP3   OH225016   3.565   5.872  17.283  0.8563 -0.0296 -0.0163
  274TIP3    H125017   3.577   5.780  17.261 -1.4254 -0.7968  1.5085
  274TIP3    H225018   3.471   5.880  17.302  1.0566  2.5275  0.2877
  275TIP3   OH225019   0.184   0.148  17.726 -0.2851  0.8190  0.4696
  275TIP3    H125020   0.215   0.062  17.753  0.4211  0.7847 -0.4087
  275TIP3    H225021   0.232   0.209  17.782 -0.3916  0.6682  0.7268
  276TIP3   OH225022   6.301   1.335  17.686 -0.1105 -0.0161 -0.2968
  276TIP3    H125023   6.352   1.315  17.607 -0.6165  0.0918 -0.6511
  276TIP3    H225024   6.218   1.369  17.653 -0.8164 -1.1459  0.2649
  277TIP3   OH225025   3.141   1.880  19.238  0.0844  0.2784 -0.1655
  277TIP3    H125026   3.227   1.867  19.197 -0.1670  1.2919 -1.0500
  277TIP3    H225027   3.148   1.966  19.280 -0.6337  0.5638 -0.6180
  278TIP3   OH225028   4.674   3.663  17.019  0.4828 -0.1038 -0.0034
  278TIP3    H125029   4.605   3.619  17.070 -0.4529  1.6700  0.3272
  278TIP3    H225030   4.699   3.738  17.072  1.7530  0.0233 -0.7502
  279TIP3   OH225031   0.921   2.889  17.257  0.1600  0.4771  0.2656
  279TIP3    H125032   0.911   2.984  17.256  2.7936  0.8361 -0.0157
  279TIP3    H225033   0.887   2.860  17.172 -1.1057  1.0786  0.5519
  280TIP3   OH225034   3.052   6.726  18.565 -0.1860  0.1374  0.0983
  280TIP3    H125035   3.081   6.722  18.656  1.0883 -0.5173 -0.3187
  280TIP3    H225036   3.014   6.640  18.547 -1.3345  0.5820  0.2700
  281TIP3   OH225037   6.006   1.795  17.476 -0.4323  0.1197 -0.1623
  281TIP3    H125038   5.961   1.875  17.448 -1.4341 -0.1249  0.6667
  281TIP3    H225039   6.062   1.771  17.402 -0.6423  1.1943 -0.6903
  282TIP3   OH225040   1.898   4.872  17.005  0.5017 -0.3447  0.2266
  282TIP3    H125041   1.920   4.882  17.097 -0.4801  0.0907  0.4305
  282TIP3    H225042   1.937   4.949  16.962 -1.6482  1.1533  0.7939
  283TIP3   OH225043   7.599   1.759  17.151 -0.0418  0.3719  0.8420
  283TIP3    H125044   7.634   1.847  17.136 -0.3824  0.4144  0.2377
  283TIP3    H225045   7.505   1.767  17.131  0.0635 -0.3032 -0.0032
  284TIP3   OH225046   2.788   4.284  12.493  0.4947 -0.0836  0.2643
  284TIP3    H125047   2.832   4.298  12.409 -0.4939 -0.1916 -0.2867
  284TIP3    H225048   2.710   4.232  12.471  0.1699 -0.0232  1.2317
  285TIP3   OH225049   1.631   0.948  13.583 -0.3802 -0.1520  0.1454
  285TIP3    H125050   1.617   0.875  13.523 -1.1532  0.4127 -0.3764
  285TIP3    H225051   1.552   1.001  13.576 -0.0115  0.5162  0.8366
  286TIP3   OH225052   2.686   3.659  11.959  0.2614 -0.1483 -0.0807
  286TIP3    H125053   2.743   3.612  11.898 -0.6501  0.8784 -1.7956
  286TIP3    H225054   2.600   3.657  11.919  0.2888  3.6692 -0.7618
  287TIP3   OH225055   5.449   3.831  10.727  0.0955 -0.0368 -0.2682
  287TIP3    H125056   5.529   3.826  10.778  0.8350  0.1087 -1.3782
  287TIP3    H225057   5.434   3.742  10.696  0.1927  0.0634 -0.6046
  288TIP3   OH225058   3.863   3.768  11.409 -0.0120  0.3324  0.1852
  288TIP3    H125059   3.837   3.827  11.480  0.3677  0.0081  0.5953
  288TIP3    H225060   3.909   3.696  11.452  2.2558  1.2508 -0.5895
  289TIP3   OH225061   0.584   3.021  12.314  0.6304 -0.2396  0.0074
  289TIP3    H125062   0.500   3.050  12.351  0.5467 -1.4220  0.8006
  289TIP3    H225063   0.560   2.967  12.239  0.7036 -0.1190 -0.1025
  290TIP3   OH225064   7.649   0.386  12.809  0.2707 -0.4092 -0.2858
  290TIP3    H125065   7.673   0.309  12.757  0.2355 -0.5483 -0.0954
  290TIP3    H225066   7.709   0.455  12.780  0.1038 -0.4240 -0.6732
  291TIP3   OH225067   0.770   5.718  11.992  0.7669  0.2497 -0.1484
  291TIP3    H125068   0.703   5.764  12.043 -0.2930 -0.8139 -0.5210
  291TIP3    H225069   0.768   5.628  12.026  2.7139  0.3960  0.4964
  292TIP3   OH225070   6.527   5.181  10.877  0.3364 -0.1899 -0.1868
  292TIP3    H125071   6.550   5.124  10.950  0.0406 -0.1301 -0.0458
  292TIP3    H225072   6.433   5.167  10.864  0.8210 -2.2465 -2.2940
  293TIP3   OH225073   5.774   2.699  11.946  0.0514 -0.4754  0.0411
  293TIP3    H125074   5.736   2.787  11.940  1.5715  0.1249 -2.0580
  293TIP3    H225075   5.698   2.641  11.950 -1.0214  0.8331 -0.3107
  294TIP3   OH225076   5.251   7.388  11.733  0.3449 -0.3052 -0.4809
  294TIP3    H125077   5.168   7.392  11.782  0.1152 -1.4415 -0.7568
  294TIP3    H225078   5.235   7.443  11.657  0.7683  1.6376  0.7660
  295TIP3   OH225079   2.337   1.628  11.958 -0.0943 -0.0723 -0.1134
  295TIP3    H125080   2.382   1.641  12.041 -0.6299 -1.4830  0.4114
  295TIP3    H225081   2.256   1.678  11.966 -0.0917 -0.1129  0.1570
  296TIP3   OH225082   2.464   6.184  10.785  0.0978  0.0346  0.0549
  296TIP3    H125083   2.491   6.102  10.743  1.9274  0.7450 -0.2420
  296TIP3    H225084   2.496   6.176  10.875 -1.7268 -0.4787  0.7146
  297TIP3   OH225085   1.431   2.012  11.089 -0.7710 -0.7426  0.3067
  297TIP3    H125086   1.408   2.039  11.001 -0.1527  0.7430  0.5692
  297TIP3    H225087   1.352   2.026  11.141 -0.9912 -1.1664  0.0874
  298TIP3   OH225088   2.419   7.319  11.830 -0.5061  0.2080  0.1227
  298TIP3    H125089   2.432   7.225  11.837  0.0514  0.3490  1.0744
  298TIP3    H225090   2.403   7.348  11.920 -0.6935  1.0242 -0.1638
  299TIP3   OH225091   6.269   0.833  11.212 -0.0261 -0.4693  0.3935
  299TIP3    H125092   6.333   0.825  11.281  0.1871  0.5898  0.3320
  299TIP3    H225093   6.221   0.750  11.213  2.1369 -1.7949 -0.3837
  300TIP3   OH225094   0.371   5.993  10.734  0.0410 -0.7960 -0.1751
  300TIP3    H125095   0.311   5.972  10.806  2.2242 -0.8862  1.7452
  300TIP3    H225096   0.452   6.018  10.778  2.1021 -2.7041 -2.6300
  301TIP3   OH225097   1.921   7.126  12.599 -0.3907 -0.1004 -0.1581
  301TIP3    H125098   1.970   7.099  12.522  2.2456 -1.2237  1.7484
  301TIP3    H225099   1.847   7.067  12.602 -1.5720  1.0898 -2.6792
  302TIP3   OH225100   5.264   6.635  12.011  0.6512  0.4227 -0.0692
  302TIP3    H125101   5.200   6.576  12.050  0.7880  1.0374  1.1585
  302TIP3    H225102   5.217   6.718  12.001  1.4454  1.1539  1.7145
  303TIP3   OH225103   4.836   0.077  10.790 -0.5932 -0.4353 -0.3212
  303TIP3    H125104   4.927   0.084  10.760  0.4002  1.4844  2.6850
  303TIP3    H225105   4.798   0.163  10.772 -1.4007 -0.7589 -0.2130
  304TIP3   OH225106   4.111   0.791  10.722 -0.3362 -0.0238 -0.4266
  304TIP3    H125107   4.033   0.847  10.726 -0.9987 -0.9370  3.0437
  304TIP3    H225108   4.182   0.847  10.754  0.1332  0.2663 -1.8791
  305TIP3   OH225109   3.809   2.490  12.408 -0.4933 -0.0467  0.3699
  305TIP3    H125110   3.877   2.502  12.473 -0.5126  0.0123  0.3794
  305TIP3    H225111   3.849   2.517  12.325 -0.0239 -1.4217  0.1286
  306TIP3   OH225112   6.411   0.968  10.884 -0.0042  0.0457 -0.3282
  306TIP3    H125113   6.361   0.887  10.895  0.5970 -0.6083 -2.0390
  306TIP3    H225114   6.351   1.029  10.842 -0.4283  0.4957  0.8790
  307TIP3   OH225115   4.037   7.004  12.572  0.1532 -0.3055 -0.2492
  307TIP3    H125116   3.995   6.999  12.658 -0.3924 -0.8023 -0.5330
  307TIP3    H225117   4.094   6.927  12.568 -1.8697 -1.8578 -1.3537
  308TIP3   OH225118   5.732   0.404  13.104 -0.0842 -0.5528  0.0440
  308TIP3    H125119   5.694   0.345  13.169  1.2621 -0.8915  0.5348
  308TIP3    H225120   5.660   0.418  13.041 -2.2565  1.6931  2.7343
  309TIP3   OH225121   0.773   4.022  11.772  0.3064  0.2266  0.2030
  309TIP3    H125122   0.834   3.948  11.773 -0.1043 -0.1887 -1.6197
  309TIP3    H225123   0.823   4.095  11.736  0.7625  0.9529  2.1557
  310TIP3   OH225124   3.124   0.681  13.047 -0.2782 -0.4038 -0.0304
  310TIP3    H125125   3.066   0.632  13.106 -0.2602 -1.3829 -0.8044
  310TIP3    H225126   3.081   0.766  13.036 -1.0502 -0.7552  0.2081
  311TIP3   OH225127   1.631   6.252  12.489 -0.1575 -0.4831  0.4643
  311TIP3    H125128   1.646   6.289  12.576  0.3193 -0.7594  0.5024
  311TIP3    H225129   1.547   6.206  12.497 -0.4369  0.0391  0.5954
  312TIP3   OH225130   3.519   6.158  12.304 -0.0378  0.5318 -0.2987
  312TIP3    H125131   3.589   6.124  12.249  0.2428 -0.1000  0.4406
  312TIP3    H225132   3.522   6.253  12.291  0.4473  0.4453 -0.8636
  313TIP3   OH225133   0.009   4.020  11.686  0.1969  0.7063 -0.0418
  313TIP3    H125134   0.100   4.048  11.674  0.4564 -0.2168 -0.2993
  313TIP3    H225135  -0.019   3.991  11.599 -0.6890  1.9451 -0.1902
  314TIP3   OH225136   1.921   2.251  11.954  0.4653  0.6674 -0.4791
  314TIP3    H125137   2.012   2.265  11.927  0.9659  1.5374  1.4767
  314TIP3    H225138   1.874   2.329  11.923  0.7796  1.0883  0.0908
  315TIP3   OH225139   5.358   5.828  11.980  0.3385  0.4506  0.7189
  315TIP3    H125140   5.397   5.845  11.894 -0.4518  0.1661  0.2900
  315TIP3    H225141   5.265   5.814  11.961  0.1440  0.4549  1.6326
  316TIP3   OH225142   2.796   3.108  11.265  0.5817 -0.0606  0.2379
  316TIP3    H125143   2.740   3.037  11.235  1.5297 -0.0180 -1.8679
  316TIP3    H225144   2.743   3.187  11.253  0.2094 -0.2477  0.6771
  317TIP3   OH225145   6.991   1.430  10.814  0.1065  0.0396 -0.0598
  317TIP3    H125146   7.051   1.431  10.739  0.2904  1.1044  0.0935
  317TIP3    H225147   6.911   1.470  10.782  0.5123  1.4094  0.5538
  318TIP3   OH225148   5.237   3.725  12.968 -0.2058  0.2590  0.6802
  318TIP3    H125149   5.149   3.735  12.931  0.4453 -1.1260 -1.4494
  318TIP3    H225150   5.233   3.643  13.017 -0.1414  0.2634  0.6930
  319TIP3   OH225151   3.025   1.464  11.634 -0.7961  1.0575 -0.4090
  319TIP3    H125152   3.056   1.378  11.605  3.9259  1.8958  1.2905
  319TIP3    H225153   3.033   1.519  11.556 -0.1073  0.7500 -0.5602
  320TIP3   OH225154   2.774   5.188  13.013  0.7364 -0.0762 -0.0058
  320TIP3    H125155   2.707   5.213  12.949  0.6218  1.0094  0.5067
  320TIP3    H225156   2.774   5.093  13.012  1.3956 -0.1142 -2.3067
  321TIP3   OH225157   7.465   7.169  10.633  0.0611 -0.0471 -0.5610
  321TIP3    H125158   7.541   7.202  10.585  2.0450 -0.0157  2.3865
  321TIP3    H225159   7.468   7.075  10.620 -0.0953  0.0532 -1.3807
  322TIP3   OH225160   0.775   2.007  13.103 -0.3122 -0.4025  0.2429
  322TIP3    H125161   0.830   1.945  13.151 -0.4724 -1.3808 -0.7785
  322TIP3    H225162   0.691   1.963  13.094 -0.1916 -0.3969 -1.1770
  323TIP3   OH225163   2.359   5.888  19.436  0.2502  0.1929 -0.3043
  323TIP3    H125164   2.306   5.966  19.421  1.8140  1.3471 -0.1661
  323TIP3    H225165   2.357   5.840  19.353 -2.0539 -0.5229  0.1043
  324TIP3   OH225166   6.509   0.568  19.093 -0.3232 -0.0489 -0.1743
  324TIP3    H125167   6.589   0.541  19.138 -0.3776 -1.1886 -0.7188
  324TIP3    H225168   6.526   0.658  19.065  1.3577 -0.7435 -1.5794
  325TIP3   OH225169   4.768   4.997  18.249 -0.2065 -0.3654  0.0883
  325TIP3    H125170   4.783   5.061  18.319 -0.0424 -2.0689  1.7131
  325TIP3    H225171   4.845   5.002  18.194 -0.4001  1.1207 -0.0773
  326TIP3   OH225172   2.903   2.024  18.676  0.3666 -0.2453  0.4046
  326TIP3    H125173   2.809   2.027  18.660  0.6384 -0.1687 -1.3859
  326TIP3    H225174   2.940   2.087  18.614  1.6820 -1.1669  0.2181
  327TIP3   OH225175   2.994   2.400  19.422 -0.8076 -0.5067  0.2627
  327TIP3    H125176   3.041   2.439  19.495 -1.6294  1.0360  0.0273
  327TIP3    H225177   2.920   2.460  19.407 -1.0237 -1.1271 -1.3996
  328TIP3   OH225178   6.892   7.389  19.221  0.2419  0.0530 -0.1910
  328TIP3    H125179   6.802   7.410  19.196 -0.1914 -1.8355 -0.3817
  328TIP3    H225180   6.887   7.298  19.252  1.5394  0.8174  2.6252
  329TIP3   OH225181   5.747   4.350  18.030 -0.8881  0.1464  0.3606
  329TIP3    H125182   5.840   4.330  18.038 -1.1110 -0.4838  1.7968
  329TIP3    H225183   5.737   4.385  17.942  0.0545 -3.3302 -1.3150
  330TIP3   OH225184   6.522   3.376  19.689 -0.4025  0.4929 -0.5287
  330TIP3    H125185   6.509   3.298  19.634  0.9890 -0.2577  0.1641
  330TIP3    H225186   6.617   3.384  19.697 -0.4956  2.6360 -1.0732
  331TIP3   OH225187   4.646   1.519  17.664  0.4303  0.0894 -0.2589
  331TIP3    H125188   4.563   1.480  17.691 -0.0811  1.1792 -0.2030
  331TIP3    H225189   4.711   1.478  17.721 -0.1780 -0.1432  0.2912
  332TIP3   OH225190   4.898   3.460  17.947 -0.0516 -0.0240 -0.5287
  332TIP3    H125191   4.930   3.472  18.036  1.3713 -2.2221 -0.6518
  332TIP3    H225192   4.848   3.378  17.950  1.9436 -1.4120 -2.1031
  333TIP3   OH225193   6.850   6.461  18.551 -0.8408 -0.4227 -0.3534
  333TIP3    H125194   6.787   6.520  18.510 -0.0984 -0.4081 -1.5383
  333TIP3    H225195   6.872   6.398  18.482  1.1899  0.1898 -0.3298
  334TIP3   OH225196   0.397   5.024  18.365  0.1253  0.1702  0.3553
  334TIP3    H125197   0.325   5.074  18.403  0.2015  0.2776  0.3588
  334TIP3    H225198   0.472   5.083  18.369  0.0813  0.2709 -0.1681
  335TIP3   OH225199   4.069   5.394  18.289  0.2769  0.0579  0.0741
  335TIP3    H125200   4.054   5.360  18.201  1.3209 -0.4186  0.0599
  335TIP3    H225201   4.013   5.471  18.295  0.6009  0.4196 -1.2117
  336TIP3   OH225202   3.050   2.668  19.148  0.4618  0.1506 -0.1129
  336TIP3    H125203   3.118   2.684  19.214 -0.8805 -0.7626  1.5926
  336TIP3    H225204   3.095   2.622  19.078  1.2575 -2.3894  1.9201
  337TIP3   OH225205   7.323   3.961  17.678  0.3587 -0.0954  0.5577
  337TIP3    H125206   7.378   3.989  17.751 -1.5659  1.4413  1.5445
  337TIP3    H225207   7.273   3.887  17.712 -0.8723  0.9056  1.0591
  338TIP3   OH225208   6.876   1.176  18.041  0.0574  0.3194  0.0129
  338TIP3    H125209   6.937   1.199  18.111  1.6128  3.4057 -2.0729
  338TIP3    H225210   6.932   1.141  17.971 -0.9788  0.1924 -0.7816
  339TIP3   OH225211   6.477   2.946  19.181 -0.3333  0.2881 -0.1555
  339TIP3    H125212   6.550   2.905  19.227  0.4627  1.0724 -0.7154
  339TIP3    H225213   6.423   2.983  19.252 -0.0551 -0.0461  0.2367
  340TIP3   OH225214   7.507   7.479  19.322 -0.2565  0.5876 -0.0398
  340TIP3    H125215   7.498   7.388  19.352 -0.7301  0.8747  0.7025
  340TIP3    H225216   7.417   7.508  19.306 -0.2276  1.3812  1.1136
  341TIP3   OH225217   6.481   3.182  19.496  0.1721  0.5734 -0.2540
  341TIP3    H125218   6.500   3.090  19.509 -2.4501  0.2157  1.8453
  341TIP3    H225219   6.424   3.185  19.419 -2.0312 -0.0116  1.2501
  342TIP3   OH225220   0.828   4.345  17.219  0.2378  0.2277 -0.0793
  342TIP3    H125221   0.887   4.358  17.294 -0.4075  3.2083  0.0150
  342TIP3    H225222   0.740   4.352  17.257 -0.2649 -2.7599 -0.4599
  343TIP3   OH225223   0.122   3.410  17.927 -0.2476 -0.3012 -0.4343
  343TIP3    H125224   0.197   3.368  17.969  1.1456  0.4703 -2.0359
  343TIP3    H225225   0.056   3.415  17.996  1.0719 -1.2015  0.9733
  344TIP3   OH225226   0.252   3.298  18.803 -0.3921 -0.3029 -0.0219
  344TIP3    H125227   0.278   3.253  18.883 -0.5155  1.4747  1.0653
  344TIP3    H225228   0.334   3.308  18.754  0.1121  0.6772  0.9852
  345TIP3   OH225229   4.222   2.851  17.991  0.1471 -0.4487  0.0120
  345TIP3    H125230   4.131   2.823  17.991 -0.2125  0.4736  2.4258
  345TIP3    H225231   4.272   2.770  17.996 -0.7018 -0.9192  1.8132
  346TIP3   OH225232   3.223   1.588  19.077 -0.0246  0.0435  0.2870
  346TIP3    H125233   3.260   1.589  19.165  0.6782  1.5999  0.0115
  346TIP3    H225234   3.199   1.497  19.062  0.3499 -0.3462  1.8714
  347TIP3   OH225235   0.597   4.324  17.399 -0.1778 -0.0702 -0.0366
  347TIP3    H125236   0.608   4.333  17.494  0.1470 -1.2857  0.0591
  347TIP3    H225237   0.502   4.319  17.387 -0.1763 -1.8323  0.4454
  348TIP3   OH225238   2.474   3.652  17.610 -0.1027  0.0852  0.3887
  348TIP3    H125239   2.416   3.702  17.667 -1.3313 -1.2848  0.4053
  348TIP3    H225240   2.510   3.717  17.550  2.1042  1.8002  3.3068
  349TIP3   OH225241   0.978   2.413  18.970 -0.3984 -0.7956 -0.1042
  349TIP3    H125242   1.002   2.504  18.952  0.9374 -0.6263  2.0590
  349TIP3    H225243   0.944   2.379  18.887  0.1732  1.3308 -1.2710
  350TIP3   OH225244   2.725   0.088  16.915  0.6302 -0.0816 -0.3719
  350TIP3    H125245   2.629   0.095  16.922  0.7388  0.5492  0.8172
  350TIP3    H225246   2.743  -0.006  16.913 -0.0143 -0.2037 -0.6761
  351TIP3   OH225247   6.790   1.515  18.473  0.3063 -0.3114 -0.3647
  351TIP3    H125248   6.851   1.442  18.480 -1.9320 -2.4032 -1.4182
  351TIP3    H225249   6.772   1.522  18.379 -1.4963 -0.1509 -0.0389
  352TIP3   OH225250   2.232   6.147  19.294  0.0907 -0.2515 -0.2647
  352TIP3    H125251   2.309   6.203  19.291  0.7061 -1.1104 -1.1616
  352TIP3    H225252   2.175   6.188  19.360  1.2640  0.4447  0.3543
  353TIP3   OH225253   1.956   7.601  18.635 -0.0071 -0.0600  0.1625
  353TIP3    H125254   1.969   7.695  18.618  1.7709 -0.0322  1.3862
  353TIP3    H225255   1.921   7.598  18.724  0.6677 -0.5710  0.4164
  354TIP3   OH225256   7.142   5.193  17.982  0.0252  0.1568  0.0948
  354TIP3    H125257   7.224   5.229  17.949  0.5547 -0.5131  0.6505
  354TIP3    H225258   7.074   5.243  17.937  0.7048 -0.5313 -1.8154
  355TIP3   OH225259   4.128   4.865  18.242 -0.5038  0.0925 -0.3455
  355TIP3    H125260   4.081   4.939  18.280  0.7616  0.3161  0.8939
  355TIP3    H225261   4.134   4.801  18.314  2.1042  0.5950 -0.0082
  356TIP3   OH225262   1.291   0.804  18.494 -0.2483  0.1080 -0.5841
  356TIP3    H125263   1.280   0.896  18.517  0.7095  0.3738 -1.1290
  356TIP3    H225264   1.386   0.790  18.495 -0.3584 -0.7644 -0.9216
  357TIP3   OH225265   4.951   2.173  17.451 -0.0348  0.1554 -0.4830
  357TIP3    H125266   4.884   2.105  17.447  1.1309 -1.0356 -0.6035
  357TIP3    H225267   4.908   2.248  17.492 -1.4527 -0.5289 -0.6778
  358TIP3   OH225268   1.878   4.455  17.437  0.0101 -0.4928 -0.4684
  358TIP3    H125269   1.821   4.475  17.363  0.4808  1.4523 -0.3514
  358TIP3    H225270   1.846   4.511  17.508  1.4538 -0.0517 -0.1346
  359TIP3   OH225271   6.825   6.058  18.071  0.0121  0.2103  0.3927
  359TIP3    H125272   6.745   6.035  18.117 -1.1572  0.6935 -1.3048
  359TIP3    H225273   6.797   6.115  18.000  2.0402  1.5467  0.5668
  360TIP3   OH225274   2.210   6.521  16.972  0.0265 -0.3593 -0.1443
  360TIP3    H125275   2.209   6.496  16.879  0.6523 -0.7661 -0.0463
  360TIP3    H225276   2.117   6.529  16.995 -0.1445 -0.6824 -0.6905
  361TIP3   OH225277   3.507   2.195  17.151 -0.0456 -1.0671  0.1680
  361TIP3    H125278   3.416   2.211  17.176 -0.0407 -0.8643  0.0580
  361TIP3    H225279   3.551   2.278  17.170 -0.1329 -0.7468 -0.9500
  362TIP3   OH225280   0.864   5.298  16.852  0.3564  0.1054 -0.0343
  362TIP3    H125281   0.867   5.208  16.820  1.3388  0.8480 -2.2500
  362TIP3    H225282   0.805   5.343  16.791  0.5833  1.1361  0.4858
  363TIP3   OH225283   6.925   5.856  17.697  0.4306 -1.2005  0.2760
  363TIP3    H125284   6.842   5.836  17.741  0.0185 -0.3900 -0.1233
  363TIP3    H225285   6.949   5.774  17.654 -0.6068 -1.2091 -0.3226
  364TIP3   OH225286   1.320   4.580  17.291  0.1149  0.4187 -0.2143
  364TIP3    H125287   1.236   4.621  17.267 -0.5487  0.0930  1.4021
  364TIP3    H225288   1.374   4.590  17.213 -2.3978 -2.0524 -2.5266
  365TIP3   OH225289   3.528   6.534  18.942 -0.3120 -0.2100  0.1462
  365TIP3    H125290   3.459   6.592  18.912  1.2016  0.6078 -2.0222
  365TIP3    H225291   3.574   6.584  19.009  0.4269  0.8045 -1.0739
  366TIP3   OH225292   4.392   6.782  19.200 -0.7305 -0.0791 -0.3689
  366TIP3    H125293   4.342   6.721  19.146 -1.8372  0.8507 -0.4472
  366TIP3    H225294   4.329   6.813  19.265  0.1274  0.0984  0.3925
  367TIP3   OH225295   5.104   3.714  19.745  0.0385  0.1638 -0.4188
  367TIP3    H125296   5.168   3.741  19.679  0.1571 -0.2419 -0.4754
  367TIP3    H225297   5.156   3.670  19.812 -0.2437 -0.7299 -0.7698
  368TIP3   OH225298   4.379   5.255  19.381 -0.1964  0.0736 -0.0875
  368TIP3    H125299   4.318   5.286  19.448 -0.2264  1.8414 -0.8834
  368TIP3    H225300   4.430   5.187  19.425  0.5169  1.9116  2.1151
  369TIP3   OH225301   1.808   7.171  17.610 -0.1761 -0.2125 -0.1692
  369TIP3    H125302   1.719   7.159  17.643 -0.6716  1.2472 -0.9029
  369TIP3    H225303   1.804   7.139  17.520 -0.0163  0.0409 -0.2670
  370TIP3   OH225304   4.135   3.183  18.345 -0.3711 -0.5377 -0.4400
  370TIP3    H125305   4.120   3.089  18.340 -1.3725 -0.3649 -0.9387
  370TIP3    H225306   4.048   3.220  18.362  0.0544  0.2780 -0.0046
  371TIP3   OH225307   3.405   1.771  18.030  0.2447 -0.4937  0.0678
  371TIP3    H125308   3.375   1.767  17.939  2.2550 -0.4152 -0.6489
  371TIP3    H225309   3.388   1.684  18.065 -1.3969 -0.2578 -0.0605
  372TIP3   OH225310   0.280   0.909  17.259  0.0033 -0.2811  0.0790
  372TIP3    H125311   0.274   0.861  17.342  0.5770  0.3627  0.5003
  372TIP3    H225312   0.278   0.840  17.192 -3.0837 -0.6776  0.4555
  373TIP3   OH225313   5.197   3.518  18.659 -0.1049 -0.2132 -0.0754
  373TIP3    H125314   5.154   3.441  18.697 -0.8983 -0.1437 -0.7948
  373TIP3    H225315   5.289   3.494  18.654 -0.6309 -2.2112 -2.6969
  374TIP3   OH225316   1.594   4.588  18.116  0.8031 -0.5556 -0.4088
  374TIP3    H125317   1.574   4.681  18.121  3.6713  0.1291 -0.3446
  374TIP3    H225318   1.584   4.566  18.024 -0.0360 -0.2511 -0.4000
  375TIP3   OH225319   1.793   1.146  18.867  0.1832 -0.0738  0.7733
  375TIP3    H125320   1.784   1.084  18.795  0.8352 -0.3505  0.9231
  375TIP3    H225321   1.887   1.163  18.874  0.1313 -0.0245  1.5336
  376TIP3   OH225322   3.838   7.187  18.247  0.6916 -0.4786  0.6146
  376TIP3    H125323   3.751   7.206  18.281  0.1669 -1.5467 -0.0961
  376TIP3    H225324   3.863   7.105  18.289  1.7311  0.2337  1.4586
  377TIP3   OH225325   0.546   0.323  18.290 -0.3932  0.0742  0.2422
  377TIP3    H125326   0.642   0.314  18.294 -0.3165 -0.5863 -1.6871
  377TIP3    H225327   0.513   0.242  18.328 -0.1845  0.1935  0.6834
  378TIP3   OH225328   0.508   4.837  19.711  0.1545 -0.2303 -0.6738
  378TIP3    H125329   0.444   4.902  19.738  0.2894 -0.8279  1.1798
  378TIP3    H225330   0.456   4.764  19.679 -0.1213 -0.6902  0.7718
  379TIP3   OH225331   2.375   0.150  17.670 -0.0203  0.2723 -0.2023
  379TIP3    H125332   2.404   0.088  17.604 -0.1806 -1.0252  0.9043
  379TIP3    H225333   2.331   0.219  17.621 -1.5202 -1.4253 -1.3450
  380TIP3   OH225334   4.675   7.118  17.353  0.0029 -0.1359 -0.4623
  380TIP3    H125335   4.607   7.065  17.312  0.8709 -1.2895 -0.4521
  380TIP3    H225336   4.696   7.073  17.434  1.9702 -0.7989 -1.2723
  381TIP3   OH225337   3.998   0.743  18.145 -0.1240 -0.5866 -0.2317
  381TIP3    H125338   4.071   0.732  18.205  0.4298 -1.8604 -1.1073
  381TIP3    H225339   4.021   0.820  18.093 -0.4539  0.3243  0.9210
  382TIP3   OH225340   2.366   4.705  19.435  0.5977  0.4892 -0.4797
  382TIP3    H125341   2.387   4.686  19.344 -1.0066 -2.3438 -0.3962
  382TIP3    H225342   2.271   4.716  19.436  0.4264 -0.7308  0.9542
  383TIP3   OH225343   4.797   1.470  18.787 -0.7881 -0.1642  0.2641
  383TIP3    H125344   4.832   1.530  18.853  0.4492 -1.3883  0.7483
  383TIP3    H225345   4.848   1.490  18.708 -0.2934 -0.6274  0.4560
  384TIP3   OH225346   4.699   5.420  17.512  0.4469 -0.5401 -0.0854
  384TIP3    H125347   4.681   5.391  17.602 -1.1537 -1.2043 -0.5914
  384TIP3    H225348   4.675   5.513  17.513  1.5278 -0.2545  0.4538
  385TIP3   OH225349   5.693   2.569  16.791 -0.3233 -0.0150  0.1028
  385TIP3    H125350   5.671   2.492  16.843  1.4314  0.3705  1.5211
  385TIP3    H225351   5.730   2.534  16.710  0.4089 -0.6911  0.7171
  386TIP3   OH225352   4.843   1.778  18.836  0.1383  0.7866  0.4253
  386TIP3    H125353   4.904   1.794  18.763  0.0128  0.9226  0.3503
  386TIP3    H225354   4.899   1.746  18.907  0.0652 -0.9171 -0.2372
  387TIP3   OH225355   3.733   5.728  19.509 -0.0330  0.5498  0.9079
  387TIP3    H125356   3.676   5.779  19.451  0.4939  1.7745  1.4414
  387TIP3    H225357   3.756   5.651  19.457 -0.2255  1.2252 -0.2307
  388TIP3   OH225358   0.997   1.094  18.624  0.2580  0.1119 -0.1935
  388TIP3    H125359   0.946   1.013  18.623 -1.0587  0.8235  2.3395
  388TIP3    H225360   0.931   1.164  18.626  1.3676  1.2136 -1.0210
  389TIP3   OH225361   5.607   4.151  17.251  0.4973  0.0157  0.2624
  389TIP3    H125362   5.626   4.068  17.294  1.4034  0.8307  1.5064
  389TIP3    H225363   5.513   4.164  17.264  0.8661  0.6871  2.9686
  390TIP3   OH225364   1.607   7.065  16.668 -0.1203 -0.3094 -0.5829
  390TIP3    H125365   1.548   7.102  16.733  0.1848  0.2053 -0.5998
  390TIP3    H225366   1.574   6.976  16.654  0.0357 -0.5594  0.5447
  391TIP3   OH225367   6.241   0.969  16.574  0.3424  0.0770 -0.6484
  391TIP3    H125368   6.319   1.008  16.535  1.0609  1.8052  2.2155
  391TIP3    H225369   6.269   0.943  16.662 -2.1528  0.2340  0.2559
  392TIP3   OH225370   1.419   6.362  17.758  0.0995  0.3353  0.0761
  392TIP3    H125371   1.351   6.318  17.706  1.4716  0.5084 -1.9633
  392TIP3    H225372   1.461   6.422  17.697  2.3708 -0.0641  1.1446
  393TIP3   OH225373   3.469   3.046  17.698  0.7807 -0.0160 -0.1799
  393TIP3    H125374   3.554   3.085  17.679  0.3102  0.4791 -1.3477
  393TIP3    H225375   3.435   3.020  17.612 -0.2120 -0.2768  0.2806
  394TIP3   OH225376   6.559   2.566  18.058  0.5153  0.3369  0.3820
  394TIP3    H125377   6.468   2.598  18.054  0.6304  1.0789  2.3926
  394TIP3    H225378   6.550   2.474  18.084  0.3252  0.3439  0.3462
  395TIP3   OH225379   0.991   3.411  16.935 -0.2379  0.1952 -0.1088
  395TIP3    H125380   0.981   3.402  17.030 -1.6576 -1.6661 -0.3661
  395TIP3    H225381   1.085   3.406  16.920  0.0510  1.0192  1.2162
  396TIP3   OH225382   1.510   0.252  17.958 -0.6995 -0.3727  0.6843
  396TIP3    H125383   1.505   0.252  17.863 -0.4084 -0.1515  0.6667
  396TIP3    H225384   1.447   0.318  17.986 -0.8030 -0.4553  0.6478
  397TIP3   OH225385   6.601   3.370  19.226  0.1427  0.6559 -0.1441
  397TIP3    H125386   6.609   3.463  19.242 -1.4273  1.0077 -1.1130
  397TIP3    H225387   6.512   3.348  19.253  0.1357 -0.3294 -0.8802
  398TIP3   OH225388   5.972   3.202  17.407 -0.8267 -0.4990 -0.4309
  398TIP3    H125389   6.007   3.289  17.390 -2.7232  0.4011 -0.0696
  398TIP3    H225390   6.045   3.142  17.391  0.5497  1.1569 -0.5818
  399TIP3   OH225391   1.084   0.262  17.283  0.0302 -0.1740  0.0475
  399TIP3    H125392   1.055   0.348  17.254  0.3129  0.3963  1.3675
  399TIP3    H225393   1.154   0.281  17.346  0.6977 -1.3950 -0.3005
  400TIP3   OH225394   4.179   6.814  17.574  0.2188  0.2406  0.1270
  400TIP3    H125395   4.093   6.849  17.549  0.1602  0.3899  0.5243
  400TIP3    H225396   4.235   6.891  17.580  0.5238  0.0877 -0.6770
  401TIP3   OH225397   2.060   5.325  19.095 -0.1155 -0.3056  0.6697
  401TIP3    H125398   2.026   5.252  19.043 -0.6767  0.2486  0.2483
  401TIP3    H225399   2.123   5.367  19.037  0.9161 -1.0046  1.2550
  402TIP3   OH225400   4.242   2.985  19.038 -0.4492  0.1004 -0.4226
  402TIP3    H125401   4.206   2.923  18.975 -0.0506  0.1918 -0.7470
  402TIP3    H225402   4.189   3.064  19.027  0.6821  0.7198 -1.8826
  403TIP3   OH225403   3.801   2.608  19.129  0.1184 -0.0246  0.5013
  403TIP3    H125404   3.756   2.690  19.147 -0.6980 -0.7879  2.1587
  403TIP3    H225405   3.776   2.586  19.039  0.8788  1.8232 -0.2089
  404TIP3   OH225406   6.993   2.353  19.616  0.1291  0.5871 -0.3898
  404TIP3    H125407   7.079   2.344  19.657 -0.9033 -0.6469  1.6507
  404TIP3    H225408   6.998   2.299  19.537  0.7086 -0.8282  0.6003
  405TIP3   OH225409   5.249   6.694  17.184 -0.6817  0.0314 -0.2525
  405TIP3    H125410   5.277   6.734  17.102 -0.2395  0.0144 -0.1138
  405TIP3    H225411   5.178   6.750  17.216  1.1417  1.8376  0.8845
  406TIP3   OH225412   1.802   5.460  17.938 -0.6214  0.3170  0.5900
  406TIP3    H125413   1.719   5.505  17.925 -0.4966  0.2118 -0.7693
  406TIP3    H225414   1.784   5.368  17.916 -0.0395  0.3981 -0.3286
  407TIP3   OH225415   3.144   3.839  18.694  0.6379 -0.7646  0.2328
  407TIP3    H125416   3.175   3.917  18.647  0.0046 -1.3079 -1.1511
  407TIP3    H225417   3.072   3.806  18.640 -0.3062 -1.2909  1.7451
  408TIP3   OH225418   4.462   0.319  17.559  0.0867  0.2169 -0.0037
  408TIP3    H125419   4.406   0.390  17.528 -0.1499  0.0389  0.0131
  408TIP3    H225420   4.437   0.244  17.505  0.2871  0.1294  0.0261
  409TIP3   OH225421   3.777   7.220  17.968  0.0533 -0.5193 -0.2442
  409TIP3    H125422   3.797   7.129  17.946  2.4820 -0.3219  0.8354
  409TIP3    H225423   3.817   7.234  18.054 -0.3478  1.5593 -0.3324
  410TIP3   OH225424   4.793   4.290  16.663  0.1458  0.3661 -0.1094
  410TIP3    H125425   4.758   4.358  16.720 -0.5370  0.4899 -0.6593
  410TIP3    H225426   4.723   4.224  16.658  0.2021  0.3440 -0.7619
  411TIP3   OH225427   0.545   7.656  19.227 -0.2851  0.2310 -0.4210
  411TIP3    H125428   0.543   7.568  19.264  0.3280  0.0485 -0.8115
  411TIP3    H225429   0.598   7.648  19.148 -2.2297  0.4238 -1.8393
  412TIP3   OH225430   5.606   7.585  16.833 -0.5906  0.0681 -0.2391
  412TIP3    H125431   5.514   7.608  16.849 -0.5007 -0.3700  1.0237
  412TIP3    H225432   5.647   7.588  16.920  0.1945 -1.4896 -0.5239
  413TIP3   OH225433   4.318   2.283  18.531  0.5298 -0.3327  0.5472
  413TIP3    H125434   4.359   2.223  18.593 -0.0100  0.0398  1.2666
  413TIP3    H225435   4.392   2.331  18.493  1.0041 -1.6212 -0.2508
  414TIP3   OH225436   5.888   6.489  18.211  0.1003  0.3729 -0.1240
  414TIP3    H125437   5.872   6.563  18.153  0.9209  1.4569  1.0103
  414TIP3    H225438   5.830   6.420  18.177 -0.0293  1.2196 -1.7268
  415TIP3   OH225439   0.920   6.525  18.666  0.1371  0.2256  0.4783
  415TIP3    H125440   0.907   6.471  18.589 -0.5231  3.0811 -1.5532
  415TIP3    H225441   1.011   6.554  18.660 -0.0929  0.9501  0.4254
  416TIP3   OH225442   4.926   6.691  17.979  0.3817  0.0181 -0.1792
  416TIP3    H125443   4.997   6.718  18.038  0.9557  0.0442 -0.8773
  416TIP3    H225444   4.940   6.597  17.968 -1.9099 -0.8131  2.6651
  417TIP3   OH225445   5.663   6.770  17.881 -0.6371 -0.1479 -0.4988
  417TIP3    H125446   5.658   6.759  17.976 -0.0289  0.1118 -0.4297
  417TIP3    H225447   5.670   6.681  17.848 -0.2089 -0.2141 -0.2475
  418TIP3   OH225448   0.712   3.257  16.471 -0.5563 -0.2476 -0.3286
  418TIP3    H125449   0.786   3.312  16.446 -0.3840 -1.0367 -1.6573
  418TIP3    H225450   0.644   3.318  16.498  0.1600  0.5366 -0.2696
  419TIP3   OH225451   4.269   6.404  18.884  0.0978  0.6337  0.7540
  419TIP3    H125452   4.347   6.351  18.904 -0.3265  0.3261  1.6428
  419TIP3    H225453   4.263   6.402  18.789  0.7662  0.0553  0.7113
  420TIP3   OH225454   7.260   5.089  17.405 -0.1369 -0.2776  0.3597
  420TIP3    H125455   7.255   5.185  17.410 -1.0534 -0.1577 -1.8277
  420TIP3    H225456   7.194   5.059  17.467  0.4460  0.4519  1.3863
  421TIP3   OH225457   6.478   1.909  17.939 -0.2402  0.2830 -0.0532
  421TIP3    H125458   6.541   1.949  17.879 -0.2200  2.7062  1.4545
  421TIP3    H225459   6.498   1.816  17.935  2.2876  0.7772 -0.9403
  422TIP3   OH225460   1.362   1.602  18.994  0.2562 -0.4353 -0.2736
  422TIP3    H125461   1.362   1.541  19.068 -1.6712 -0.5665 -0.3415
  422TIP3    H225462   1.272   1.601  18.962  1.0220 -0.3564 -2.6120
  423TIP3   OH225463   6.516   3.298  18.141 -0.1676 -0.2758 -0.5814
  423TIP3    H125464   6.473   3.258  18.216 -0.2619 -0.5119 -0.7586
  423TIP3    H225465   6.472   3.259  18.065 -1.9690  1.9354 -0.7883
  424TIP3   OH225466   4.726   6.149  17.868  0.2518 -0.0767  0.2153
  424TIP3    H125467   4.814   6.147  17.905 -0.0242  1.2424  0.9999
  424TIP3    H225468   4.699   6.057  17.863  2.2359 -0.6528 -1.4737
  425TIP3   OH225469   5.032   5.997  17.118 -0.1936  0.3109 -0.5139
  425TIP3    H125470   5.064   6.070  17.170 -0.6960 -0.8457  1.5391
  425TIP3    H225471   5.111   5.954  17.084  0.3765 -0.6293  1.8171
  426TIP3   OH225472   4.915   5.776  19.610  0.3433  0.0637  0.0093
  426TIP3    H125473   4.856   5.750  19.539  1.3697  0.3098 -0.9713
  426TIP3    H225474   5.003   5.753  19.578  0.6966 -2.0380  2.1918
  427TIP3   OH225475   3.983   4.447  19.117 -0.3118 -0.2088  0.4088
  427TIP3    H125476   4.016   4.474  19.203 -1.0152 -0.0974  0.6510
  427TIP3    H225477   3.913   4.510  19.097  0.4195  0.3152 -0.6478
  428TIP3   OH225478   4.561   2.063  17.725 -0.8606 -0.2534 -0.2333
  428TIP3    H125479   4.551   1.969  17.739  1.8579 -0.6466 -0.2911
  428TIP3    H225480   4.625   2.090  17.791 -1.4347  1.5252 -0.3611
  429TIP3   OH225481   7.426   2.599  18.400 -0.0889  0.1821  0.3475
  429TIP3    H125482   7.429   2.679  18.348 -0.2148  0.1406  0.2725
  429TIP3    H225483   7.379   2.536  18.344 -2.3372  0.8200  1.4051
  430TIP3   OH225484   4.170   7.462  19.421  0.5539 -0.3927 -0.2182
  430TIP3    H125485   4.259   7.496  19.429  0.3294 -0.1402  1.8689
  430TIP3    H225486   4.113   7.538  19.435 -0.0222 -0.4328 -2.1243
  431TIP3   OH225487   7.341   3.545  18.320 -0.4994 -0.3871  0.0770
  431TIP3    H125488   7.407   3.535  18.389 -0.4751 -1.2488 -0.0492
  431TIP3    H225489   7.257   3.535  18.366 -0.6396  2.1691  0.4820
  432TIP3   OH225490   0.505   1.394  18.163  0.0525 -0.1629  0.0553
  432TIP3    H125491   0.496   1.394  18.068  0.9664 -1.7128 -0.0681
  432TIP3    H225492   0.544   1.479  18.184  1.6001 -0.5159 -1.1754
  433TIP3   OH225493   2.456   1.352  17.628 -0.5023  0.3261  0.4628
  433TIP3    H125494   2.409   1.310  17.556  0.8026 -0.7847  0.2281
  433TIP3    H225495   2.515   1.414  17.585  1.0882 -1.1330  0.4447
  434TIP3   OH225496   4.139   1.623  17.150 -0.2237 -0.0643 -1.0363
  434TIP3    H125497   4.057   1.662  17.121  0.0069  0.4425 -1.0360
  434TIP3    H225498   4.206   1.686  17.123  0.0044  0.3970  0.5065
  435TIP3   OH225499   5.182   0.215  17.098 -0.8764 -0.0279  0.4099
  435TIP3    H125500   5.165   0.305  17.070 -1.0904 -0.1200  0.2356
  435TIP3    H225501   5.165   0.163  17.019 -0.0294 -0.1526  0.3034
  436TIP3   OH225502   3.357   7.491  19.082  0.2159  0.1788  0.5758
  436TIP3    H125503   3.429   7.550  19.105 -0.6579  1.4080  0.2464
  436TIP3    H225504   3.280   7.547  19.080 -0.0137  0.1096 -4.2175
  437TIP3   OH225505   4.181   7.096  18.749 -0.4056 -0.0865 -0.4832
  437TIP3    H125506   4.097   7.122  18.787  0.1581  0.6582  0.2932
  437TIP3    H225507   4.241   7.091  18.823  0.5396  0.6393 -1.1609
  438TIP3   OH225508   0.150   5.248  18.693  0.5143 -0.3867  0.0635
  438TIP3    H125509   0.195   5.164  18.685  0.5415 -0.4430  0.7382
  438TIP3    H225510   0.216   5.308  18.727  0.1171 -0.4520  0.9946
  439TIP3   OH225511   5.121   3.991  18.274 -0.1315  0.0644  0.0406
  439TIP3    H125512   5.151   4.081  18.287  0.2977 -0.1169  0.3444
  439TIP3    H225513   5.033   3.989  18.312  0.1957  0.1400  0.8142
  440TIP3   OH225514   3.415   1.826  18.556 -0.7186  0.0330 -0.2153
  440TIP3    H125515   3.440   1.748  18.607 -0.3184  0.2935 -0.0113
  440TIP3    H225516   3.320   1.831  18.566 -0.5539  0.5612  1.2044
  441TIP3   OH225517   1.337   1.168  17.822  0.0184 -0.2153 -0.4283
  441TIP3    H125518   1.336   1.235  17.890  0.2411 -0.5997 -0.0426
  441TIP3    H225519   1.308   1.214  17.743  0.8618  0.5085 -0.3321
  442TIP3   OH225520   0.238   3.856  17.628 -0.3204 -0.3358 -0.0074
  442TIP3    H125521   0.322   3.855  17.582  0.6596  0.6664  1.6673
  442TIP3    H225522   0.176   3.890  17.564  0.7425 -0.1477 -0.9665
  443TIP3   OH225523   4.987   2.510  17.874  0.1656 -0.3054 -0.1828
  443TIP3    H125524   4.978   2.525  17.780  1.0179 -2.2505 -0.6196
  443TIP3    H225525   5.074   2.472  17.883  0.0572 -0.2226  1.4078
  444TIP3   OH225526   1.461   5.510  16.775  0.3743  0.5599  0.2926
  444TIP3    H125527   1.537   5.462  16.806  0.1423 -1.4074 -1.8576
  444TIP3    H225528   1.465   5.501  16.680 -2.4889  0.3782  0.0940
  445TIP3   OH225529   0.753   3.336  19.270  0.2472  0.0159 -0.0997
  445TIP3    H125530   0.714   3.376  19.348 -0.7622  0.9992 -1.0792
  445TIP3    H225531   0.706   3.254  19.259  0.3983 -0.1305  0.3276
  446TIP3   OH225532   2.917   7.545  18.076  0.2772 -0.1539 -0.2516
  446TIP3    H125533   3.004   7.512  18.053  0.1709 -0.6796  0.0796
  446TIP3    H225534   2.918   7.637  18.049  0.9391 -0.1561 -0.2457
  447TIP3   OH225535   6.666   4.292  18.334 -0.1161  0.8127  0.2742
  447TIP3    H125536   6.734   4.359  18.335 -1.5322  2.3087  1.5679
  447TIP3    H225537   6.643   4.283  18.241  0.8412  1.3286 -0.0211
  448TIP3   OH225538   0.098   0.726  18.403 -0.3558  0.4527 -0.3504
  448TIP3    H125539   0.083   0.735  18.309 -0.5020 -2.5346 -0.7197
  448TIP3    H225540   0.013   0.700  18.438 -0.0990  0.6989  0.4569
  449TIP3   OH225541   1.405   3.278  18.321  0.4280 -0.4591 -0.1074
  449TIP3    H125542   1.396   3.231  18.239  1.1686 -1.2461  0.2485
  449TIP3    H225543   1.432   3.367  18.295 -0.5517 -0.3349 -0.7560
  450TIP3   OH225544   5.947   4.486  19.255  0.3605  0.0212  0.2312
  450TIP3    H125545   5.886   4.468  19.183  0.7503 -1.9281  0.3397
  450TIP3    H225546   5.890   4.498  19.332 -0.0561  2.0974 -0.3346
  451TIP3   OH225547   5.694   7.368  18.697 -0.1826  0.3268  0.1170
  451TIP3    H125548   5.768   7.429  18.704  0.2757 -0.1928 -0.1801
  451TIP3    H225549   5.734   7.281  18.703 -0.6291  0.0114 -1.2561
  452TIP3   OH225550   2.085   4.784  16.709 -0.0217 -0.1704  0.2226
  452TIP3    H125551   2.009   4.730  16.686 -0.9332  0.8085  0.8118
  452TIP3    H225552   2.048   4.856  16.760  1.1661  0.9608 -0.4473
  453TIP3   OH225553   6.300   5.890  18.182  0.6171 -0.0911  0.0316
  453TIP3    H125554   6.306   5.816  18.242  1.9880 -0.5235 -0.5885
  453TIP3    H225555   6.265   5.962  18.235  0.0840 -0.9475  0.8622
  454TIP3   OH225556   4.390   2.650  18.588  0.1194 -0.1689 -0.6845
  454TIP3    H125557   4.451   2.653  18.662  1.5656  1.4972 -1.8434
  454TIP3    H225558   4.446   2.657  18.511 -1.5024  0.5249 -1.8552
  455TIP3   OH225559   3.858   3.832  18.882 -0.0318 -0.3916 -0.0871
  455TIP3    H125560   3.940   3.859  18.924  1.2931 -2.0271 -1.4764
  455TIP3    H225561   3.791   3.884  18.926  1.2605 -1.5216  3.6108
  456TIP3   OH225562   1.603   3.015  18.330  0.2860  0.0785  0.0365
  456TIP3    H125563   1.604   3.052  18.242  2.8638  0.4508  0.1260
  456TIP3    H225564   1.594   2.921  18.317  0.2700  0.1706 -0.6137
  457TIP3   OH225565   2.590   1.013  17.821 -0.1814  0.0096 -0.1401
  457TIP3    H125566   2.623   1.089  17.772  1.0116  2.5698  4.0779
  457TIP3    H225567   2.500   1.038  17.845 -0.5502 -0.9405 -0.4798
  458TIP3   OH225568   7.261   7.096  19.111 -0.1418 -0.1262  0.1616
  458TIP3    H125569   7.247   7.006  19.140  0.5536 -0.4093 -0.3410
  458TIP3    H225570   7.355   7.111  19.124 -0.3309  0.6714  0.6374
  459TIP3   OH225571   4.600   3.272  17.388  0.5373 -0.2023 -0.2068
  459TIP3    H125572   4.626   3.257  17.479 -1.3631 -2.1529  0.1017
  459TIP3    H225573   4.572   3.363  17.385 -2.1389 -0.8250  1.9926
  460TIP3   OH225574   2.165   3.930  17.537 -0.6624 -0.2422  0.4327
  460TIP3    H125575   2.250   3.961  17.567 -0.3772 -0.6399  0.0395
  460TIP3    H225576   2.164   3.948  17.443 -0.3157 -1.7812  0.1038
  461TIP3   OH225577   4.373   5.535  17.104  0.5753 -0.1457 -0.3093
  461TIP3    H125578   4.392   5.628  17.107  1.1859 -0.2859  1.5166
  461TIP3    H225579   4.454   5.495  17.072  0.3373 -0.0682 -1.0238
  462TIP3   OH225580   0.257   0.537  19.345  0.0250  0.1941  0.6001
  462TIP3    H125581   0.269   0.455  19.392  0.8572 -0.1665 -0.2300
  462TIP3    H225582   0.344   0.560  19.313  0.2738  2.5171  2.5982
  463TIP3   OH225583   4.596   6.163  18.545  0.0673 -0.0102  0.2106
  463TIP3    H125584   4.559   6.249  18.525  0.3327  0.0257 -0.1362
  463TIP3    H225585   4.634   6.173  18.632 -1.9704 -0.4488  1.2218
  464TIP3   OH225586   3.612   7.061  18.577  0.2519 -0.1169  0.0834
  464TIP3    H125587   3.636   6.970  18.558 -0.1506  0.0529 -1.3870
  464TIP3    H225588   3.651   7.111  18.506 -1.1116  0.6241 -0.1853
  465TIP3   OH225589   3.112   4.355  18.872  0.6256  0.2297  0.3475
  465TIP3    H125590   3.194   4.334  18.917  0.9640 -0.1583 -0.4200
  465TIP3    H225591   3.071   4.423  18.925  0.6187 -0.7606  1.6726
  466TIP3   OH225592   7.303   4.156  17.016  0.3962 -0.3209  0.1609
  466TIP3    H125593   7.276   4.076  17.061 -1.7490  0.9593  1.3029
  466TIP3    H225594   7.239   4.167  16.946  0.4797  0.5544  0.2060
  467TIP3   OH225595   3.378   4.175  17.754 -0.1163  0.2947 -0.4849
  467TIP3    H125596   3.326   4.113  17.702 -0.4401  1.9385 -2.2411
  467TIP3    H225597   3.373   4.141  17.844 -2.5171 -0.7643 -0.9239
  468TIP3   OH225598   3.316   3.270  19.463  0.2038 -0.2566  0.2284
  468TIP3    H125599   3.408   3.275  19.439 -0.0523  2.0243 -0.5145
  468TIP3    H225600   3.271   3.242  19.383 -0.0051  1.4104 -0.2756
  469TIP3   OH225601   3.466   6.790  17.898 -0.0809 -0.7816 -0.2902
  469TIP3    H125602   3.433   6.805  17.810  0.5512  0.9627 -0.2512
  469TIP3    H225603   3.400   6.828  17.956  0.6865  0.3437 -0.1217
  470TIP3   OH225604   1.749   3.696  18.353  0.1907  0.0698  0.0566
  470TIP3    H125605   1.743   3.771  18.294 -1.9086 -0.4678 -0.4954
  470TIP3    H225606   1.704   3.725  18.433  0.8706 -0.0402  0.4890
  471TIP3   OH225607   7.288   2.858  17.469 -0.1726 -0.0607 -0.2488
  471TIP3    H125608   7.260   2.842  17.558 -1.4426 -1.6882 -0.9078
  471TIP3    H225609   7.234   2.932  17.440  0.5771  0.7833  0.4539
  472TIP3   OH225610   1.475   3.159  17.804  0.1606 -0.7520 -0.1565
  472TIP3    H125611   1.507   3.070  17.790 -2.9994 -1.9338 -0.6162
  472TIP3    H225612   1.409   3.172  17.736  0.9694  2.2474 -0.5197
  473TIP3   OH225613   7.142   5.731  17.293  0.1764 -0.1328  0.0618
  473TIP3    H125614   7.178   5.819  17.304  0.6160 -0.4383  1.2572
  473TIP3    H225615   7.049   5.745  17.279 -0.0378  0.4932  1.8421
  474TIP3   OH225616   5.807   4.345  17.295 -0.4828  0.1893 -0.3163
  474TIP3    H125617   5.869   4.341  17.368  0.2745  1.2967 -0.8583
  474TIP3    H225618   5.737   4.285  17.319 -0.2617  0.5432  1.3395
  475TIP3   OH225619   5.385   7.600  17.461  0.6299 -0.0989  0.4451
  475TIP3    H125620   5.352   7.523  17.415  2.0302 -0.1013 -0.6576
  475TIP3    H225621   5.340   7.674  17.420 -1.2578 -0.3257  2.0001
  476TIP3   OH225622   4.190   7.116  18.330  0.0749  0.3337 -0.5294
  476TIP3    H125623   4.213   7.068  18.251  1.0882 -1.5376  0.8302
  476TIP3    H225624   4.102   7.085  18.353  0.2945 -0.0744 -0.2363
  477TIP3   OH225625   3.989   1.582  16.774 -0.4767 -0.1962 -0.2603
  477TIP3    H125626   3.972   1.488  16.761 -1.3248  0.0453 -1.0366
  477TIP3    H225627   4.083   1.587  16.789  0.3282 -0.8567 -3.9454
  478TIP3   OH225628   3.135   3.580  18.079  0.1555 -0.6239  1.0477
  478TIP3    H125629   3.096   3.659  18.041  0.0666 -0.4132  1.5680
  478TIP3    H225630   3.141   3.599  18.173  1.3772 -0.7077  1.0007
  479TIP3   OH225631   6.616   4.531  17.661  0.0379  0.2020  0.3076
  479TIP3    H125632   6.656   4.444  17.662 -1.7794 -0.6875  0.7869
  479TIP3    H225633   6.525   4.515  17.688 -0.2247  2.3133  0.8202
  480TIP3   OH225634   5.669   2.994  19.120  0.2363  0.3511  0.1555
  480TIP3    H125635   5.581   2.965  19.097  0.3698  0.1117 -0.0492
  480TIP3    H225636   5.654   3.074  19.171 -0.1472 -0.2497  1.0101
  481TIP3   OH225637   6.337   1.680  18.244 -0.3348 -0.1018  0.1553
  481TIP3    H125638   6.371   1.711  18.328  0.8931 -0.5913 -0.1469
  481TIP3    H225639   6.338   1.757  18.187  2.6998 -0.5813 -0.5934
  482TIP3   OH225640   7.541   6.511  18.540  0.0075  0.4216  0.3193
  482TIP3    H125641   7.589   6.550  18.467  1.2216 -1.3136  0.1325
  482TIP3    H225642   7.465   6.470  18.499 -0.6888  1.5669  0.3896
  483TIP3   OH225643   7.434   6.411  18.241  0.1651 -0.2072 -0.7132
  483TIP3    H125644   7.393   6.400  18.156 -0.4392  0.5062 -0.5308
  483TIP3    H225645   7.422   6.504  18.261  2.0429  0.0693 -0.7319
  484TIP3   OH225646   7.513   3.094  18.606 -0.7550  0.5489 -0.0447
  484TIP3    H125647   7.593   3.071  18.653  0.1196  0.6002 -1.4477
  484TIP3    H225648   7.451   3.025  18.630 -0.1083  0.1705  0.5956
  485TIP3   OH225649   1.468   5.032  17.764 -0.4693  0.2805  0.0013
  485TIP3    H125650   1.503   5.065  17.848 -2.7367 -0.5026  1.3316
  485TIP3    H225651   1.375   5.053  17.767 -0.8286 -0.8570 -1.8213
  486TIP3   OH225652   3.411   1.807  17.736  0.6833 -0.1803  0.0912
  486TIP3    H125653   3.410   1.778  17.645  0.5503  1.0113 -0.3001
  486TIP3    H225654   3.491   1.859  17.744  0.5076  0.0239  0.5552
  487TIP3   OH225655   3.289   3.995  17.567  0.2076 -0.0637 -0.2093
  487TIP3    H125656   3.358   3.944  17.525  0.2583 -0.0306 -0.1663
  487TIP3    H225657   3.244   4.038  17.495  0.3636  0.0786 -0.2186
  488TIP3   OH225658   5.313   3.880  17.480  0.6794 -0.6018  0.4602
  488TIP3    H125659   5.269   3.804  17.519 -1.2402  0.5909  0.7327
  488TIP3    H225660   5.297   3.872  17.386  1.4893 -1.1275  0.3559
  489TIP3   OH225661   0.228   5.012  17.681  0.3028 -0.5359  0.1605
  489TIP3    H125662   0.249   4.927  17.720  1.0043 -0.6121 -0.3723
  489TIP3    H225663   0.309   5.041  17.642  0.3505  0.8799  1.2359
  490TIP3   OH225664   1.016   6.417  18.961  0.3594  0.1241  0.4288
  490TIP3    H125665   0.962   6.431  19.039  0.5276  0.3225  0.5116
  490TIP3    H225666   0.974   6.469  18.893  0.2598  0.0167  0.4061
  491TIP3   OH225667   1.860   2.748  17.083  0.1410 -0.1247  0.3872
  491TIP3    H125668   1.863   2.717  16.993  0.3209 -1.6567  0.8837
  491TIP3    H225669   1.927   2.817  17.088  0.3445 -0.2484 -0.5690
  492TIP3   OH225670   2.633   2.012  17.650 -0.0838 -0.2099 -0.2641
  492TIP3    H125671   2.541   2.005  17.675 -0.3603  0.0339 -1.1699
  492TIP3    H225672   2.631   2.033  17.557  0.8802  0.4058 -0.1635
  493TIP3   OH225673   0.487   3.691  17.757 -0.3997 -0.3631  0.0622
  493TIP3    H125674   0.413   3.631  17.751  1.0112 -2.2460  0.2856
  493TIP3    H225675   0.493   3.713  17.850 -0.7303 -0.1155  0.0255
  494TIP3   OH225676   2.544   0.697  18.860  0.2836 -0.4770 -0.7176
  494TIP3    H125677   2.595   0.764  18.814  0.8304 -0.7692 -0.5523
  494TIP3    H225678   2.608   0.655  18.919  0.2691 -2.0059 -1.7406
  495TIP3   OH225679   4.978   7.531  18.345 -0.2680 -0.4224 -0.1393
  495TIP3    H125680   4.965   7.611  18.396  2.2377 -0.9429  1.5197
  495TIP3    H225681   5.052   7.552  18.288  0.3522 -1.4820  0.2450
  496TIP3   OH225682   6.738   2.631  19.073 -0.1296 -0.8493  0.0693
  496TIP3    H125683   6.699   2.684  19.143  0.4468 -0.2943 -0.0162
  496TIP3    H225684   6.759   2.548  19.115 -0.0500 -0.6212  0.4866
  497TIP3   OH225685   4.573   4.800  18.276  0.1641  0.4002 -0.2536
  497TIP3    H125686   4.649   4.858  18.266  0.6355 -0.0701  0.5459
  497TIP3    H225687   4.503   4.857  18.307 -0.5863  1.3708 -3.3390
  498TIP3   OH225688   1.318   6.474  18.456 -0.0207  0.6536 -0.8295
  498TIP3    H125689   1.398   6.421  18.458  0.4510  1.3669 -0.1297
  498TIP3    H225690   1.337   6.544  18.395 -0.0348  0.9351 -0.5135
  499TIP3   OH225691   6.196   3.489  18.722 -0.0305  0.0177  0.4818
  499TIP3    H125692   6.194   3.519  18.813  1.0916 -0.4276  0.6718
  499TIP3    H225693   6.195   3.394  18.728 -2.4574 -0.0541 -0.0846
  500TIP3   OH225694   6.157   4.699  17.634  0.2548 -0.0479  0.3299
  500TIP3    H125695   6.100   4.740  17.570 -0.6352 -3.1728 -1.0759
  500TIP3    H225696   6.215   4.769  17.663 -0.3209  1.8774 -2.7175
  501TIP3   OH225697   6.074   3.912  19.334 -0.7744 -0.4308 -0.2712
  501TIP3    H125698   6.005   3.926  19.398  0.0513 -0.2308  0.5944
  501TIP3    H225699   6.091   3.999  19.297 -0.5676 -0.3662 -0.0322
  502TIP3   OH225700   6.490   6.112  17.585  0.0398  0.2398 -0.1167
  502TIP3    H125701   6.546   6.176  17.540 -1.7418  1.2660 -0.9901
  502TIP3    H225702   6.539   6.090  17.664  0.9151  2.4132  0.0331
  503TIP3   OH225703   0.827   1.217  18.895  0.3069  0.2196 -0.1401
  503TIP3    H125704   0.833   1.254  18.807 -1.1857 -0.4780 -0.5768
  503TIP3    H225705   0.772   1.279  18.943  2.4796  1.4967  0.8709
  504TIP3   OH225706   0.712   2.842  18.787  0.4023  0.5303 -0.3163
  504TIP3    H125707   0.780   2.907  18.766  0.4615  0.5556 -0.0459
  504TIP3    H225708   0.736   2.765  18.734  1.3189  0.1211  0.6557
  505TIP3   OH225709   4.156   1.350  18.212  0.8710 -0.4997 -0.4625
  505TIP3    H125710   4.189   1.424  18.161 -1.4976  1.9059  1.2837
  505TIP3    H225711   4.073   1.327  18.170  1.0372 -1.4369 -0.3042
  506TIP3   OH225712   2.569   3.258  17.534  0.2686  0.3784 -0.0080
  506TIP3    H125713   2.629   3.312  17.584 -0.8014  0.3105  1.4091
  506TIP3    H225714   2.623   3.188  17.498  1.4377  1.6423 -0.7881
  507TIP3   OH225715   1.944   1.399  18.629 -0.4768  0.4963  0.0327
  507TIP3    H125716   1.858   1.434  18.606 -0.4051  0.4691 -0.2758
  507TIP3    H225717   1.961   1.330  18.565  0.0582  0.9401 -0.3170
  508TIP3   OH225718   3.207   1.971  17.812 -0.0892  0.7572  0.3215
  508TIP3    H125719   3.157   2.000  17.736  0.5280  0.4396 -0.2085
  508TIP3    H225720   3.282   1.924  17.776  1.2030  2.1653  1.0605
  509TIP3   OH225721   6.003   5.652  17.453  0.6651  0.4096  0.2393
  509TIP3    H125722   6.046   5.606  17.525  1.3185  1.7478  0.7495
  509TIP3    H225723   6.074   5.687  17.401  0.1851  0.2625 -0.5351
  510TIP3   OH225724   1.001   2.927  18.724  0.3834  0.9191 -0.1393
  510TIP3    H125725   0.991   2.995  18.658 -0.2859 -0.0637 -1.0794
  510TIP3    H225726   1.093   2.931  18.750  0.4284  1.9408 -0.4285
  511TIP3   OH225727   0.623   7.503  18.403  0.0384 -0.1110 -0.3392
  511TIP3    H125728   0.696   7.479  18.460 -0.2400 -2.3024 -0.8075
  511TIP3    H225729   0.657   7.494  18.314 -0.2373  0.8393 -0.5502
  512TIP3   OH225730   1.521   4.308  18.378  0.7202  0.0401  0.4247
  512TIP3    H125731   1.444   4.338  18.330  0.3811  0.4724  1.2396
  512TIP3    H225732   1.528   4.367  18.453 -0.2372 -2.1659  2.3472
  513TIP3   OH225733   4.300   3.823  18.061  0.3968 -0.2396 -0.8913
  513TIP3    H125734   4.374   3.876  18.090  1.3256 -0.8990 -2.0006
  513TIP3    H225735   4.339   3.747  18.019 -0.9147 -1.4114 -0.1052
  514TIP3   OH225736   7.631   1.438  19.353  0.1126 -0.0360 -0.0108
  514TIP3    H125737   7.554   1.385  19.376  0.0552  0.1378  0.2071
  514TIP3    H225738   7.680   1.384  19.292  0.4417 -0.6570  0.7817
  515TIP3   OH225739   7.124   2.502  18.884 -0.2225 -0.3675 -0.0053
  515TIP3    H125740   7.107   2.430  18.945  1.5708  0.7429  1.9251
  515TIP3    H225741   7.199   2.471  18.833 -2.5662 -1.8975 -2.8566
  516TIP3   OH225742   6.826   3.058  17.311  0.1559 -0.0915  0.2079
  516TIP3    H125743   6.742   3.013  17.310 -2.2442  3.8598 -2.1127
  516TIP3    H225744   6.861   3.047  17.223 -1.5823  3.8775 -1.2140
  517TIP3   OH225745   4.892   7.412  17.737  0.1615 -0.1311 -0.3681
  517TIP3    H125746   4.838   7.394  17.659  0.4951 -0.1569 -0.5928
  517TIP3    H225747   4.833   7.459  17.796 -0.3181 -0.7769 -0.3271
  518TIP3   OH225748   2.647   6.417  16.763  0.1100  0.5892  0.3353
  518TIP3    H125749   2.697   6.403  16.843 -0.2789  0.2636  0.5244
  518TIP3    H225750   2.673   6.504  16.734  0.0368  0.8271  0.9694
  519TIP3   OH225751   4.665   0.056  16.341  0.3494 -0.0148  0.5395
  519TIP3    H125752   4.584   0.078  16.388 -0.0047  1.2021 -0.5901
  519TIP3    H225753   4.683   0.133  16.288 -0.5931 -2.1495 -3.2056
  520TIP3   OH225754   0.852   0.069  17.363  0.0939  0.0971  0.4441
  520TIP3    H125755   0.930   0.090  17.312 -0.3275  0.2064 -0.1792
  520TIP3    H225756   0.785   0.052  17.297 -0.1978 -0.8268  0.9639
  521TIP3   OH225757   3.394   4.901  17.451 -0.2376 -0.0078 -0.4495
  521TIP3    H125758   3.404   4.983  17.403  0.9132  1.5711  2.2619
  521TIP3    H225759   3.475   4.853  17.434 -0.4809 -0.1576 -1.2293
  522TIP3   OH225760   0.405   1.753  17.387  0.0355 -0.1841  0.7032
  522TIP3    H125761   0.381   1.815  17.319 -0.6191  0.1281  1.2162
  522TIP3    H225762   0.326   1.700  17.401 -0.1195  0.3148  1.8174
  523TIP3   OH225763   6.828   3.427  16.782  0.1323 -0.6142 -0.5600
  523TIP3    H125764   6.870   3.512  16.775 -0.4246 -0.4250 -1.8906
  523TIP3    H225765   6.894   3.370  16.822  0.0011  0.7590  1.7480
  524TIP3   OH225766   5.397   4.860  18.236  0.1024  0.3874 -0.2060
  524TIP3    H125767   5.452   4.791  18.200 -1.0991 -2.1377  2.3215
  524TIP3    H225768   5.310   4.844  18.200 -0.1725  0.6557  0.3130
  525TIP3   OH225769   7.106   3.805  19.559  0.6435 -0.4106  0.5369
  525TIP3    H125770   7.078   3.879  19.613  3.0315 -1.0133  2.8096
  525TIP3    H225771   7.150   3.845  19.484 -0.7832  0.4341  0.1105
  526TIP3   OH225772   7.634   4.245  19.188  0.5455 -0.4903  0.0107
  526TIP3    H125773   7.575   4.193  19.242  1.5478 -0.7453  0.9156
  526TIP3    H225774   7.607   4.228  19.098 -0.8662 -0.4349  0.4074
  527TIP3   OH225775   2.557   4.974  18.742 -0.3492  0.3991  0.1842
  527TIP3    H125776   2.568   4.886  18.708 -0.8770  1.0012 -1.6635
  527TIP3    H225777   2.477   4.970  18.795  0.8663 -0.7199  2.0178
  528TIP3   OH225778   6.339   2.222  17.226 -0.1700 -0.6764  0.2638
  528TIP3    H125779   6.332   2.309  17.264  3.1289 -0.7625  1.3093
  528TIP3    H225780   6.258   2.212  17.175 -1.0583  2.5964  0.8138
  529TIP3   OH225781   7.224   0.991  18.546 -0.2591  0.0011  0.6393
  529TIP3    H125782   7.233   1.041  18.627 -0.6753 -1.1064  1.3884
  529TIP3    H225783   7.240   1.055  18.477  1.9207  0.6044  1.6103
  530TIP3   OH225784   2.982   2.400  18.774  0.0316  0.4293  0.1711
  530TIP3    H125785   2.969   2.354  18.691  0.3902  0.3029  0.1822
  530TIP3    H225786   3.064   2.447  18.763 -0.2701  0.9707  0.2086
  531TIP3   OH225787   0.873   2.052  18.847  0.5120 -0.1291 -0.1595
  531TIP3    H125788   0.896   2.050  18.754  1.2242 -2.3857  0.0055
  531TIP3    H225789   0.911   1.972  18.883  4.4159  2.7417  3.1146
  532TIP3   OH225790   0.847   4.164  18.186  0.1893 -0.4148 -0.1257
  532TIP3    H125791   0.897   4.097  18.232  0.5480  0.1984  0.3890
  532TIP3    H225792   0.841   4.237  18.248 -1.7035 -0.6160  0.0014
  533TIP3   OH225793   1.482   1.635  17.507 -0.1466  0.5549 -0.1561
  533TIP3    H125794   1.521   1.550  17.526  1.0124  0.9233 -0.8062
  533TIP3    H225795   1.419   1.618  17.437 -0.2037  0.1673 -0.0111
  534TIP3   OH225796   0.999   7.444  17.104 -0.8159 -0.5066 -0.0909
  534TIP3    H125797   0.958   7.445  17.017 -2.1405 -0.8110  0.5111
  534TIP3    H225798   1.048   7.526  17.107 -4.3672  1.8371  0.5025
  535TIP3   OH225799   5.573   7.011  17.941  0.3767  0.1218 -0.0892
  535TIP3    H125800   5.631   7.053  17.877 -2.5226  1.5154 -1.9982
  535TIP3    H225801   5.564   6.921  17.910 -1.2395  0.8598 -1.9768
  536TIP3   OH225802   0.650   2.204  17.954 -0.1264 -0.2005  0.0035
  536TIP3    H125803   0.648   2.142  17.881  1.3336 -0.9785  0.5820
  536TIP3    H225804   0.739   2.240  17.952 -0.3680  0.4833  0.8277
  537TIP3   OH225805   3.760   0.957  17.206 -0.0323  0.3232  0.1984
  537TIP3    H125806   3.808   1.040  17.213  0.9967 -0.2735  0.4864
  537TIP3    H225807   3.740   0.933  17.296  0.5101 -0.2016  0.1844
  538TIP3   OH225808   4.541   4.783  17.604  0.0846 -0.5635 -0.0277
  538TIP3    H125809   4.548   4.767  17.510  0.6363 -1.5690  0.1731
  538TIP3    H225810   4.631   4.793  17.633 -0.1528  2.2716  0.0130
  539TIP3   OH225811   2.223   2.751  16.712  0.1530 -0.1395 -0.1032
  539TIP3    H125812   2.223   2.790  16.625  0.9508  0.1650  0.0244
  539TIP3    H225813   2.130   2.741  16.734 -0.0656 -1.3736 -1.4887
  540TIP3   OH225814   3.893   6.782  19.187  0.5154  0.4046  0.8091
  540TIP3    H125815   3.944   6.860  19.210  3.6641 -0.7694 -1.4992
  540TIP3    H225816   3.916   6.717  19.254 -0.5819  0.8123  1.6129
  541TIP3   OH225817   6.301   4.950  17.645  0.3592  0.9075  0.1955
  541TIP3    H125818   6.313   4.914  17.732  1.8444  0.3496 -0.2104
  541TIP3    H225819   6.278   5.042  17.660 -0.8121  0.4774  1.1772
  542TIP3   OH225820   3.490   2.799  18.641 -0.6922 -0.2715 -0.5862
  542TIP3    H125821   3.474   2.721  18.587 -1.0854 -1.2760  0.9252
  542TIP3    H225822   3.489   2.872  18.579 -1.0100 -1.3933 -1.9429
  543TIP3   OH225823   6.358   7.073  18.861 -0.2018 -0.0380  0.1987
  543TIP3    H125824   6.366   7.159  18.820 -1.6136 -0.4122 -0.9242
  543TIP3    H225825   6.442   7.060  18.905  0.5613  1.2998 -0.7918
  544TIP3   OH225826   6.922   1.868  19.081  0.1288  0.4350 -0.0452
  544TIP3    H125827   6.859   1.813  19.126  0.1576  0.2878 -0.1829
  544TIP3    H225828   6.870   1.936  19.038  0.0514  0.2189 -0.2926
  545TIP3   OH225829   7.532   7.142  18.831 -0.0565 -0.0547  0.3376
  545TIP3    H125830   7.454   7.088  18.845 -1.0394  1.5184  1.2366
  545TIP3    H225831   7.603   7.079  18.818 -1.4429 -1.5314 -0.3987
  546TIP3   OH225832   4.641   5.977  17.530 -0.0619 -0.0473 -0.2099
  546TIP3    H125833   4.546   5.977  17.519 -0.0415 -0.3569 -0.4081
  546TIP3    H225834   4.674   5.937  17.450  0.1512 -1.4233  0.5371
  547TIP3   OH225835   6.344   2.005  18.161  0.0700  0.0651 -0.6270
  547TIP3    H125836   6.260   2.034  18.125 -0.8019  0.4941  1.6107
  547TIP3    H225837   6.392   1.972  18.085 -2.1287 -0.2548 -1.9726
  548TIP3   OH225838   6.098   2.285  18.183  0.0996 -0.6973  0.2694
  548TIP3    H125839   6.025   2.322  18.232  0.2346 -0.6299  0.4231
  548TIP3    H225840   6.176   2.319  18.227  0.2386  0.7669 -1.0398
  549TIP3   OH225841   5.757   2.556  17.722 -0.5324  0.1653  0.1657
  549TIP3    H125842   5.734   2.631  17.667  0.2650  0.9847  0.9031
  549TIP3    H225843   5.792   2.596  17.802  0.1749 -0.9972  0.4503
  550TIP3   OH225844   7.552   3.065  17.906  0.0965  0.2403 -0.8127
  550TIP3    H125845   7.619   3.077  17.838 -0.3371 -0.6708 -1.4285
  550TIP3    H225846   7.592   3.099  17.986  0.7583  0.9933 -1.4547
  551TIP3   OH225847   0.599   3.517  17.996  0.6403  0.5397  0.6081
  551TIP3    H125848   0.533   3.502  18.063 -0.0217  0.0173 -0.1363
  551TIP3    H225849   0.590   3.442  17.936  0.6525  1.4118 -0.5061
  552TIP3   OH225850   4.241   7.151  19.224  0.3139  0.0284  0.4358
  552TIP3    H125851   4.278   7.140  19.136  1.6298  0.8563  0.8602
  552TIP3    H225852   4.175   7.220  19.214  0.4069  0.0702  0.0960
  553TIP3   OH225853   4.226   5.969  18.708 -0.3805  0.5598 -0.0689
  553TIP3    H125854   4.155   6.005  18.761  0.0016  3.1203 -1.1306
  553TIP3    H225855   4.209   6.002  18.619  1.7209  0.6543 -0.4942
  554TIP3   OH225856   7.551   0.715  17.972  0.2928  0.1019 -0.2592
  554TIP3    H125857   7.626   0.720  18.031  1.3334 -2.3569 -1.2204
  554TIP3    H225858   7.518   0.625  17.983 -2.3361  0.9801 -0.1341
  555TIP3   OH225859   6.922   6.864  19.425 -0.5311  0.3469 -0.0121
  555TIP3    H125860   7.014   6.855  19.450 -0.7089 -0.5747  0.3200
  555TIP3    H225861   6.903   6.786  19.374 -1.6753 -0.4918  1.6228
  556TIP3   OH225862   7.286   5.634  16.729  0.1043 -0.3443  0.0349
  556TIP3    H125863   7.196   5.664  16.728  0.7958  1.8855  0.5090
  556TIP3    H225864   7.279   5.539  16.719 -2.2738 -0.2429  0.1340
  557TIP3   OH225865   7.132   4.452  18.449 -0.4598  0.3944 -0.4487
  557TIP3    H125866   7.181   4.531  18.428 -0.6725  0.8410  0.6382
  557TIP3    H225867   7.083   4.475  18.529 -0.8793 -0.6793 -0.3805
  558TIP3   OH225868   1.315   4.839  19.346 -0.3379  0.2411 -0.1541
  558TIP3    H125869   1.253   4.902  19.382 -0.4962  0.1384 -0.2463
  558TIP3    H225870   1.394   4.891  19.327  0.6099 -0.0946  2.4680
  559TIP3   OH225871   7.531   1.186  18.640  0.1618  0.0488 -0.2986
  559TIP3    H125872   7.579   1.172  18.722 -0.8284  2.1322  0.7286
  559TIP3    H225873   7.439   1.175  18.664 -0.0667 -0.8604 -1.5301
  560TIP3   OH225874   7.028   4.920  17.094 -0.0337  0.2561  0.0952
  560TIP3    H125875   7.043   4.847  17.154 -2.3977  1.0688  1.8496
  560TIP3    H225876   6.933   4.933  17.095  0.2791  3.4854  0.0757
  561TIP3   OH225877   4.805   3.812  17.226 -0.5399 -0.0765 -0.1620
  561TIP3    H125878   4.894   3.808  17.189 -0.2737  1.1676  0.2788
  561TIP3    H225879   4.815   3.864  17.306 -1.5418 -0.5925  0.3123
  562TIP3   OH225880   5.336   2.666  18.649  0.1182 -0.0354 -0.3505
  562TIP3    H125881   5.279   2.596  18.678  0.3194 -0.9294 -2.0086
  562TIP3    H225882   5.424   2.628  18.651  0.6277  1.1163  1.5321
  563TIP3   OH225883   3.619   6.308  19.645  0.2389 -0.0383 -0.0414
  563TIP3    H125884   3.593   6.329  19.735 -2.5191 -0.8601 -0.5397
  563TIP3    H225885   3.608   6.213  19.638  0.5696 -0.0147 -1.2129
  564TIP3   OH225886   7.330   5.701  17.539 -0.0665 -0.5409  0.6594
  564TIP3    H125887   7.287   5.697  17.454 -0.1174  2.1483  0.4904
  564TIP3    H225888   7.423   5.688  17.519 -0.0314  0.4599  0.1250
  565TIP3   OH225889   0.081   2.337  17.142 -0.1611 -0.5280  0.3572
  565TIP3    H125890   0.175   2.344  17.158  0.4805 -2.4124 -1.9957
  565TIP3    H225891   0.041   2.385  17.215  2.5925  0.8232  1.1354
  566TIP3   OH225892   0.022   3.694  18.749  0.4671  0.2189 -0.0480
  566TIP3    H125893   0.004   3.776  18.704 -1.4294  0.4071  0.9715
  566TIP3    H225894   0.075   3.718  18.824  0.6512  0.3811 -0.2280
  567TIP3   OH225895   4.736   0.585  17.970 -0.5192  0.2514 -0.0813
  567TIP3    H125896   4.741   0.619  18.059 -1.0493 -0.4637  0.2240
  567TIP3    H225897   4.661   0.526  17.970  0.2676 -0.7897 -0.6509
  568TIP3   OH225898   3.044   5.545  16.905  0.3753  0.0785 -0.0261
  568TIP3    H125899   2.972   5.605  16.888 -0.4659 -1.2087 -1.1762
  568TIP3    H225900   3.002   5.460  16.919  1.6940 -1.0961 -2.5755
  569TIP3   OH225901   4.530   4.792  17.951 -0.1392  0.1554  0.0201
  569TIP3    H125902   4.510   4.722  17.888  0.7414  2.1025 -2.6199
  569TIP3    H225903   4.613   4.766  17.990 -1.1140 -1.5074  1.1145
  570TIP3   OH225904   3.293   5.537  17.589 -0.0609  0.5162  0.7332
  570TIP3    H125905   3.365   5.557  17.529 -0.6017  0.0889 -0.0724
  570TIP3    H225906   3.325   5.463  17.641  0.9255  1.7199  1.9223
  571TIP3   OH225907   2.908   2.695  17.711  0.6641  0.5117  0.0529
  571TIP3    H125908   2.943   2.660  17.629 -1.5612  0.8784 -1.1513
  571TIP3    H225909   2.916   2.623  17.774 -0.4360 -0.9356 -1.3798
  572TIP3   OH225910   2.686   6.386  19.158 -0.3523 -0.1615 -0.0225
  572TIP3    H125911   2.698   6.479  19.142  1.4594 -0.5017 -0.8854
  572TIP3    H225912   2.643   6.354  19.078 -2.9755  0.2443  1.1398
  573TIP3   OH225913   4.301   1.387  17.213  0.0833  0.5038 -0.3007
  573TIP3    H125914   4.379   1.392  17.157 -0.0427  0.4765 -0.4787
  573TIP3    H225915   4.248   1.461  17.186  0.1417  0.6401 -0.0357
  574TIP3   OH225916   2.396   7.641  17.454 -0.0502  0.0458 -0.1902
  574TIP3    H125917   2.481   7.610  17.422 -0.3682 -0.7211 -0.3075
  574TIP3    H225918   2.346   7.660  17.374 -1.1664 -2.7340 -0.2625
  575TIP3   OH225919   0.366   3.482  18.169  0.1662  0.4137  0.0822
  575TIP3    H125920   0.332   3.407  18.217 -1.8670  0.3692 -1.3144
  575TIP3    H225921   0.393   3.544  18.237 -0.9216 -0.3689  1.2735
  576TIP3   OH225922   1.733   5.446  18.982 -0.0595  0.2737 -0.2725
  576TIP3    H125923   1.790   5.462  19.057 -0.5863 -0.6089  0.3384
  576TIP3    H225924   1.647   5.430  19.020 -0.1202 -1.2660 -0.9721
  577TIP3   OH225925   4.373   3.038  18.118 -0.0539 -0.8200  0.0511
  577TIP3    H125926   4.454   2.999  18.150  1.4074  0.3082 -2.0604
  577TIP3    H225927   4.336   2.973  18.058  1.0031 -0.1119 -1.4288
  578TIP3   OH225928   3.017   1.138  18.617 -1.0569 -0.1790  0.6366
  578TIP3    H125929   2.951   1.077  18.583 -1.1985  0.2514  0.1335
  578TIP3    H225930   3.006   1.217  18.564  1.3501 -0.8497 -1.0309
  579TIP3   OH225931   1.669   6.520  18.372  0.6059 -0.9327 -0.1573
  579TIP3    H125932   1.721   6.475  18.305 -0.8128 -1.7506 -0.7600
  579TIP3    H225933   1.585   6.538  18.329  0.0551 -0.4799  1.0564
  580TIP3   OH225934   0.884   7.547  18.528 -0.4399 -0.0571  0.7652
  580TIP3    H125935   0.949   7.513  18.590  1.0892  1.2914 -0.0266
  580TIP3    H225936   0.875   7.639  18.551 -0.2102  0.3546 -0.6901
  581TIP3   OH225937   5.564   6.972  17.481 -0.0083  0.3312 -0.5859
  581TIP3    H125938   5.583   6.992  17.390 -0.3436 -1.5354 -1.0947
  581TIP3    H225939   5.469   6.958  17.483  0.1317 -0.6077 -0.1620
  582TIP3   OH225940   1.876   4.940  18.583  0.4392 -0.0715  0.1856
  582TIP3    H125941   1.873   4.999  18.508 -2.0590  0.9518  1.0064
  582TIP3    H225942   1.911   4.993  18.654 -0.4526  0.0248  0.5685
  583TIP3   OH225943   2.075   1.861  18.716  0.0214 -0.1456  0.1871
  583TIP3    H125944   2.164   1.889  18.738 -0.0861  0.2888  0.0649
  583TIP3    H225945   2.082   1.828  18.626 -0.1062  0.6563 -0.1233
  584TIP3   OH225946   5.183   2.320  18.697 -0.5230  0.1102 -0.5049
  584TIP3    H125947   5.132   2.292  18.621  1.4864 -1.4855 -1.3670
  584TIP3    H225948   5.177   2.247  18.759  0.2009  0.1529 -0.3701
  585TIP3   OH225949   1.790   6.791  17.398 -0.4315  0.2454 -0.5207
  585TIP3    H125950   1.757   6.788  17.487 -1.4094  1.2271 -0.8296
  585TIP3    H225951   1.846   6.714  17.391 -0.7814 -0.1526  0.7638
  586TIP3   OH225952   0.281   4.038  19.299  0.2545  0.1813  0.5017
  586TIP3    H125953   0.250   4.119  19.340  1.2830  1.7675 -1.6643
  586TIP3    H225954   0.239   4.036  19.213 -0.8250 -2.3726  0.9819
  587TIP3   OH225955   5.050   0.878  18.252  0.0178 -0.1186 -0.2253
  587TIP3    H125956   5.069   0.791  18.220 -0.6446 -0.5268  0.4495
  587TIP3    H225957   5.077   0.876  18.344  1.1471  0.7749 -0.5130
  588TIP3   OH225958   4.610   4.378  17.956 -0.1709 -0.0022 -0.3092
  588TIP3    H125959   4.564   4.336  17.883 -1.4936  0.6050  0.1400
  588TIP3    H225960   4.667   4.443  17.914  0.4913 -0.9395 -0.8912
  589TIP3   OH225961   6.810   1.762  19.475 -0.0204  0.6996 -0.1205
  589TIP3    H125962   6.809   1.675  19.515  0.6947  1.4750  1.6717
  589TIP3    H225963   6.780   1.821  19.544 -0.4141  1.9024 -1.2768
  590TIP3   OH225964   4.694   2.022  17.463  0.3264  0.3058 -0.0724
  590TIP3    H125965   4.640   2.099  17.481 -1.1506 -0.5970 -0.5061
  590TIP3    H225966   4.632   1.950  17.454  1.7318 -1.1440  1.2154
  591TIP3   OH225967   0.145   1.522  17.177 -0.1613 -0.1043  0.4031
  591TIP3    H125968   0.225   1.474  17.157  0.8266  1.4067  0.5754
  591TIP3    H225969   0.172   1.614  17.179 -1.8968  0.4364  0.5038
  592TIP3   OH225970   2.264   2.568  18.355 -0.5403  0.4724  0.3309
  592TIP3    H125971   2.264   2.646  18.410 -0.4607  0.3795  0.4660
  592TIP3    H225972   2.225   2.596  18.273  0.9346  1.0677 -0.2025
  593TIP3   OH225973   0.678   6.429  17.348  0.3522 -0.9621 -0.1247
  593TIP3    H125974   0.596   6.443  17.395  0.4941  1.9345 -0.6069
  593TIP3    H225975   0.651   6.419  17.256  0.5199  0.5374 -0.3611
  594TIP3   OH225976   2.883   6.743  19.253  0.5008  0.1912  0.0673
  594TIP3    H125977   2.892   6.838  19.249  0.5520  0.2110  0.6140
  594TIP3    H225978   2.939   6.716  19.326 -1.1348 -0.0266  1.3084
  595TIP3   OH225979   0.704   5.229  17.876 -0.1218 -0.5641 -0.0480
  595TIP3    H125980   0.668   5.140  17.873  0.2481 -0.7409  0.5646
  595TIP3    H225981   0.764   5.233  17.801  0.1034 -0.9394  0.1080
  596TIP3   OH225982   3.860   1.967  17.439 -0.3635 -0.3214 -0.2222
  596TIP3    H125983   3.781   2.001  17.482  2.0403  2.6436  2.3437
  596TIP3    H225984   3.862   2.012  17.355 -0.9547  0.3149  0.0880
  597TIP3   OH225985   6.262   2.804  17.786 -0.0628  0.2817  0.4423
  597TIP3    H125986   6.264   2.711  17.763  2.0426  0.4265 -0.1814
  597TIP3    H225987   6.354   2.832  17.778 -0.4404  2.0903  1.9630
  598TIP3   OH225988   1.073   1.844  18.428 -0.8307 -0.3875  0.0178
  598TIP3    H125989   0.984   1.812  18.411 -1.5194  1.0300  0.6943
  598TIP3    H225990   1.092   1.819  18.518 -0.0611 -1.6850 -0.4852
  599TIP3   OH225991   5.429   2.066  17.575 -0.0956  0.1581 -0.1777
  599TIP3    H125992   5.483   2.131  17.619  0.4177 -0.1936 -0.2717
  599TIP3    H225993   5.430   2.092  17.483  1.5861 -0.9523 -0.5197
  600TIP3   OH225994   3.194   5.678  19.416  0.1181  0.0892 -0.3494
  600TIP3    H125995   3.164   5.762  19.382  0.7027 -0.0187 -1.1425
  600TIP3    H225996   3.287   5.690  19.433  0.1067 -0.2590 -0.0174
  601TIP3   OH225997   4.389   5.605  17.909  0.3709 -0.3279  0.0884
  601TIP3    H125998   4.314   5.556  17.943  0.8144 -0.0668  1.5501
  601TIP3    H225999   4.374   5.695  17.939  0.9130 -0.1387 -0.1950
  602TIP3   OH226000   0.554   0.706  18.255  0.3849 -0.2445 -0.3550
  602TIP3    H126001   0.557   0.718  18.160  0.9054  1.0282 -0.1968
  602TIP3    H226002   0.469   0.742  18.280  1.2344  1.7011 -0.0851
  603TIP3   OH226003   2.651   2.101  19.106  0.2906  0.3444  0.2449
  603TIP3    H126004   2.724   2.126  19.162  1.5000  0.0414 -1.1445
  603TIP3    H226005   2.609   2.184  19.083  0.8726  0.6176  0.1608
  604TIP3   OH226006   3.071   1.732  17.903 -0.0423 -0.0544  0.0101
  604TIP3    H126007   3.111   1.814  17.874 -0.6897  0.5592  0.7707
  604TIP3    H226008   3.036   1.692  17.824 -0.9624  1.1248 -0.2093
  605TIP3   OH226009   1.191   5.852  18.158  0.6129 -0.7274 -0.2361
  605TIP3    H126010   1.266   5.846  18.099  0.2912  0.1429 -0.7582
  605TIP3    H226011   1.197   5.939  18.196  0.4539 -1.0446  0.5263
  606TIP3   OH226012   2.318   3.879  19.360 -0.2577  0.0438  0.1997
  606TIP3    H126013   2.270   3.951  19.399  0.5352  0.6628  0.0573
  606TIP3    H226014   2.396   3.919  19.321  0.0362 -0.8372 -0.1711
  607TIP3   OH226015   4.411   5.742  18.304 -0.0631 -0.1735 -0.3680
  607TIP3    H126016   4.321   5.733  18.336  0.8187 -0.6548  2.2714
  607TIP3    H226017   4.438   5.829  18.334  0.9768 -0.8520  0.7525
  608TIP3   OH226018   1.572   6.923  19.360 -0.2124  0.1201  0.2454
  608TIP3    H126019   1.482   6.893  19.368  0.5269 -2.2907  0.2900
  608TIP3    H226020   1.621   6.867  19.420  1.2864  1.5492  0.4143
  609TIP3   OH226021   5.464   2.934  17.972  0.6975  0.2565 -0.0330
  609TIP3    H126022   5.422   3.018  17.956  0.3986  0.0269 -0.4827
  609TIP3    H226023   5.458   2.922  18.067 -0.8935 -0.0839 -0.1336
  610TIP3   OH226024   5.931   2.844  17.576  0.2044 -0.3210  0.6485
  610TIP3    H126025   6.003   2.856  17.513 -1.2865  3.2589 -0.6116
  610TIP3    H226026   5.941   2.916  17.638 -2.2500  0.3509  0.3756
  611TIP3   OH226027   4.241   7.514  17.344 -0.0146 -0.0829  0.6768
  611TIP3    H126028   4.209   7.438  17.393 -0.7300  0.0007  0.3550
  611TIP3    H226029   4.244   7.483  17.253 -0.5573  0.3563  0.5090
  612TIP3   OH226030   7.644   4.406  17.499 -0.3143 -0.5322  0.2130
  612TIP3    H126031   7.701   4.464  17.549 -1.0318  0.8362 -0.4902
  612TIP3    H226032   7.645   4.323  17.547  0.3298  0.2164  1.5384
  613TIP3   OH226033   1.417   4.754  18.472  0.4862 -0.0057 -0.0401
  613TIP3    H126034   1.485   4.777  18.535  0.5756  0.4233 -0.2936
  613TIP3    H226035   1.406   4.832  18.418  1.0427 -0.6588 -1.1225
  614TIP3   OH226036   0.247   1.840  17.693  0.3971  0.5263  0.0829
  614TIP3    H126037   0.295   1.907  17.644 -0.6910 -1.2346 -3.7133
  614TIP3    H226038   0.157   1.873  17.696  0.3450  0.3568  0.4457
  615TIP3   OH226039   2.197   3.642  19.349  0.0189  0.2533  0.4920
  615TIP3    H126040   2.262   3.711  19.344  0.0130  0.1855 -0.6835
  615TIP3    H226041   2.113   3.687  19.347  0.0181  0.2901  1.1689
  616TIP3   OH226042   4.492   1.028  18.862  0.7656 -0.4176 -0.0225
  616TIP3    H126043   4.418   1.028  18.924  0.5742 -0.0299 -0.2482
  616TIP3    H226044   4.532   1.114  18.872  2.1173 -1.1391  1.1784
  617TIP3   OH226045   1.101   3.715  18.285  0.1639 -0.0031  0.0708
  617TIP3    H126046   1.164   3.702  18.355 -0.5368  0.1859  0.7535
  617TIP3    H226047   1.138   3.669  18.210  0.9335 -0.1924  0.5605
  618TIP3   OH226048   5.644   1.651  18.414  0.0806 -0.2198  0.1815
  618TIP3    H126049   5.719   1.648  18.354  1.3756  2.3006  1.5032
  618TIP3    H226050   5.670   1.595  18.488 -0.1130 -0.7406 -0.1407
  619TIP3   OH226051   1.151   4.179  18.142  0.4405  0.2779 -0.2865
  619TIP3    H126052   1.223   4.219  18.093  1.2356 -0.1166  0.5354
  619TIP3    H226053   1.190   4.155  18.226 -0.2449 -1.3586 -0.4113
  620TIP3   OH226054   3.484   1.191  18.421  0.4995 -0.2139  0.3259
  620TIP3    H126055   3.544   1.166  18.491 -0.9578 -2.0075  1.0180
  620TIP3    H226056   3.413   1.128  18.427 -1.4175  1.7334 -0.5366
  621TIP3   OH226057   2.554   4.715  18.618 -0.2774 -0.7462 -0.0839
  621TIP3    H126058   2.622   4.649  18.615 -0.0009 -0.4682  0.0151
  621TIP3    H226059   2.535   4.734  18.526 -0.7183 -1.3261 -0.1144
  622TIP3   OH226060   4.786   5.840  18.059  0.6105 -0.2136  0.1740
  622TIP3    H126061   4.822   5.840  18.148 -2.6031  0.7621  1.6153
  622TIP3    H226062   4.768   5.748  18.041  0.1940 -0.3235  1.0679
  623TIP3   OH226063   5.856   1.502  17.021  0.2849 -0.0028 -0.0707
  623TIP3    H126064   5.923   1.563  16.990  0.1212 -0.5293 -1.5203
  623TIP3    H226065   5.824   1.458  16.942 -1.2355 -0.3181  0.6709
  624TIP3   OH226066   2.994   3.478  19.371  0.9540  0.1105  0.1669
  624TIP3    H126067   3.008   3.472  19.466  0.6458 -2.2523  0.1139
  624TIP3    H226068   3.077   3.512  19.337  1.1239  0.8419  1.2570
  625TIP3   OH226069   0.324   3.376  17.315  0.4094  0.0594  0.2838
  625TIP3    H126070   0.264   3.441  17.354 -1.2932 -1.5303  0.4557
  625TIP3    H226071   0.283   3.292  17.334  1.1028 -0.9525 -2.2995
  626TIP3   OH226072   3.216   5.616  16.701  0.1482  0.1852  0.1077
  626TIP3    H126073   3.169   5.575  16.774  0.7017 -1.6245 -0.5063
  626TIP3    H226074   3.147   5.653  16.646 -0.6010 -1.9817 -0.5146
  627TIP3   OH226075   0.968   5.391  18.194  0.7184 -0.0854  0.2707
  627TIP3    H126076   0.980   5.485  18.179 -0.5645  0.0157 -0.2207
  627TIP3    H226077   1.057   5.356  18.201  1.2187  1.0641 -0.1824
  628TIP3   OH226078   2.990   0.858  18.791 -0.3773 -0.2392 -0.3611
  628TIP3    H126079   2.997   0.846  18.696 -0.1591 -1.1200 -0.2482
  628TIP3    H226080   3.079   0.843  18.823 -0.3931  0.3499 -0.0475
  629TIP3   OH226081   3.743   4.455  19.475 -0.4646 -0.2395  0.3341
  629TIP3    H126082   3.726   4.543  19.508  0.0264 -0.3444  0.8797
  629TIP3    H226083   3.662   4.407  19.493 -0.6388  0.0292  0.2729
  630TIP3   OH226084   3.946   3.273  17.305  0.6815 -0.2525 -0.3038
  630TIP3    H126085   4.018   3.306  17.358  0.4280 -0.0214 -0.1014
  630TIP3    H226086   3.881   3.343  17.305  0.4583 -0.4545 -0.4928
  631TIP3   OH226087   2.045   6.651  19.153  0.5036  0.5326 -0.0607
  631TIP3    H126088   2.108   6.627  19.222  1.9351  0.5834 -1.2990
  631TIP3    H226089   2.071   6.739  19.126  0.4320  0.2362 -1.1488
  632TIP3   OH226090   3.502   2.128  19.217  0.3434 -1.0858 -0.5907
  632TIP3    H126091   3.569   2.083  19.269  0.4075  0.7786  1.0630
  632TIP3    H226092   3.459   2.058  19.168  2.3939 -2.5498 -0.4629
  633TIP3   OH226093   4.704   6.609  16.886  0.8146  0.1205  0.1190
  633TIP3    H126094   4.652   6.558  16.824  0.9078 -0.1688  0.2776
  633TIP3    H226095   4.682   6.700  16.867  0.6735  0.0224 -0.1878
  634TIP3   OH226096   5.372   5.912  19.390  0.2171  0.9129 -0.7199
  634TIP3    H126097   5.407   5.870  19.469  1.1416  0.8973 -1.1257
  634TIP3    H226098   5.314   5.980  19.423 -1.4817 -0.7797 -0.0466
  635TIP3   OH226099   1.795   2.485  18.422  0.5292 -0.1857  0.0869
  635TIP3    H126100   1.809   2.442  18.337 -1.2816  0.8951 -0.7978
  635TIP3    H226101   1.866   2.550  18.428  0.5499 -0.1358 -0.6785
  636TIP3   OH226102   1.201   7.032  18.342 -0.1677 -0.2729  0.2740
  636TIP3    H126103   1.200   7.080  18.425  0.5546  0.0406  0.1089
  636TIP3    H226104   1.144   6.957  18.357  0.3225 -0.4783  1.2191
  637TIP3   OH226105   3.725   6.931  17.922 -0.2776 -0.3916 -0.4494
  637TIP3    H126106   3.640   6.896  17.946  0.0760 -1.1555 -0.2669
  637TIP3    H226107   3.712   6.970  17.835 -0.6829 -1.0166 -0.6772
  638TIP3   OH226108   4.287   5.478  16.824  0.0748 -0.5443  0.2989
  638TIP3    H126109   4.320   5.425  16.897 -0.6793  0.7137  1.5963
  638TIP3    H226110   4.340   5.557  16.826 -0.7227  0.0003  0.2140
  639TIP3   OH226111   4.579   2.758  19.310  0.3917  1.0984  0.6522
  639TIP3    H126112   4.617   2.781  19.225  0.0122 -1.5332 -0.3168
  639TIP3    H226113   4.485   2.773  19.299 -0.1762 -2.3621 -0.7202
  640TIP3   OH226114   0.862   5.368  18.576 -0.7139 -0.0950  0.1808
  640TIP3    H126115   0.880   5.345  18.667 -1.4461  0.8074  0.5826
  640TIP3    H226116   0.887   5.291  18.526 -0.1615 -0.5569  1.1316
  641TIP3   OH226117   3.406   5.856  17.856  0.3239 -0.2007  0.0130
  641TIP3    H126118   3.490   5.890  17.886 -0.0230  0.8595 -0.1583
  641TIP3    H226119   3.420   5.833  17.765  0.7351 -1.1474  0.3079
  642TIP3   OH226120   5.973   4.074  17.374  0.1606  0.3172 -0.4060
  642TIP3    H126121   5.904   4.098  17.437 -0.8807 -1.6832 -0.7165
  642TIP3    H226122   5.940   4.105  17.290  0.0150  0.0787 -0.4387
  643TIP3   OH226123   1.409   6.516  18.817 -0.4374  0.0509 -0.2771
  643TIP3    H126124   1.367   6.448  18.871 -1.9319  0.5225 -0.8048
  643TIP3    H226125   1.490   6.475  18.787 -1.1981 -1.4498 -0.4151
  644TIP3   OH226126   0.127   6.268  18.462 -0.6245 -0.0913  0.4080
  644TIP3    H126127   0.058   6.202  18.453 -0.8764  0.4383 -2.7300
  644TIP3    H226128   0.088   6.348  18.426  0.5039  1.1525  1.8289
  645TIP3   OH226129   5.254   7.420  17.314  0.5015  0.0486 -0.0524
  645TIP3    H126130   5.183   7.378  17.363  0.2756  0.7096  0.1970
  645TIP3    H226131   5.210   7.483  17.257  0.6244 -1.6332 -2.1497
  646TIP3   OH226132   6.097   1.504  18.151 -0.0442 -0.0327 -0.4238
  646TIP3    H126133   6.191   1.510  18.137  0.4306 -0.4074  2.0564
  646TIP3    H226134   6.064   1.592  18.129  1.6839  1.7559  3.1655
  647TIP3   OH226135   5.044   6.010  19.173 -0.0296  0.1587  0.1184
  647TIP3    H126136   5.021   6.067  19.247  0.7329 -0.2067  0.6469
  647TIP3    H226137   4.997   5.929  19.189 -0.8788  0.5234 -0.4777
  648TIP3   OH226138   0.595   3.096  18.439  0.2794 -0.0690  0.3467
  648TIP3    H126139   0.555   3.142  18.513 -0.4316 -1.5551  0.9157
  648TIP3    H226140   0.622   3.166  18.380 -2.2588  1.0708  0.4018
  649TIP3   OH226141   5.052   5.474  18.972  0.2358  0.6233  0.3233
  649TIP3    H126142   5.079   5.421  19.047  1.1131 -0.7508 -0.8946
  649TIP3    H226143   5.041   5.562  19.007  0.8401  0.0690  2.0103
  650TIP3   OH226144   4.285   1.404  16.683 -0.2093  0.0189  0.0550
  650TIP3    H126145   4.310   1.476  16.741  1.2419  0.0671 -0.5974
  650TIP3    H226146   4.351   1.404  16.614  0.3528 -2.4794  0.4899
  651TIP3   OH226147   3.613   7.496  17.785  0.3834 -1.3912  0.0868
  651TIP3    H126148   3.633   7.473  17.694 -1.4637  0.2080 -0.7893
  651TIP3    H226149   3.605   7.412  17.830  0.3370 -2.2401 -1.4484
  652TIP3   OH226150   7.581   6.306  18.788  0.3184 -0.2542 -0.3177
  652TIP3    H126151   7.607   6.220  18.757 -0.8645 -0.7167 -0.0871
  652TIP3    H226152   7.492   6.294  18.821 -0.2905  1.2723 -1.2529
  653TIP3   OH226153   1.753   1.705  17.543 -0.5144 -0.3320 -0.5713
  653TIP3    H126154   1.811   1.649  17.491  0.7153  1.5660 -1.3676
  653TIP3    H226155   1.666   1.687  17.508  0.0741 -0.4168 -2.0947
  654TIP3   OH226156   6.818   4.003  17.825  0.0613 -0.7427  0.0622
  654TIP3    H126157   6.774   4.009  17.740 -1.4264 -1.3254  0.7451
  654TIP3    H226158   6.797   4.086  17.868 -0.1584 -0.9061  0.2776
  655TIP3   OH226159   6.700   0.697  18.677  0.3218  0.1917  0.3784
  655TIP3    H126160   6.670   0.619  18.629  1.5130 -0.1041  0.0837
  655TIP3    H226161   6.620   0.734  18.715 -0.7108  0.5196 -1.9436
  656TIP3   OH226162   5.004   5.018  18.118  0.1055 -0.4169 -0.1105
  656TIP3    H126163   5.048   5.086  18.168 -0.4042  0.0524 -0.2867
  656TIP3    H226164   5.002   5.052  18.028 -2.0692  0.3606  0.1615
  657TIP3   OH226165   1.912   4.311  18.550  0.1785 -0.0544 -0.5930
  657TIP3    H126166   1.853   4.386  18.553  1.8265  1.2933  0.2035
  657TIP3    H226167   1.982   4.334  18.610  0.4513 -2.5334  0.1346
  658TIP3   OH226168   5.404   1.086  18.110 -0.4103  0.1572  0.3428
  658TIP3    H126169   5.471   1.019  18.122  0.1708  0.5737 -0.5251
  658TIP3    H226170   5.336   1.045  18.057 -0.7183 -0.1711  0.9762
  659TIP3   OH226171   6.690   4.087  17.598 -0.1133 -0.1627 -0.4190
  659TIP3    H126172   6.720   4.167  17.555 -3.1657  1.2987 -0.1457
  659TIP3    H226173   6.659   4.032  17.526  0.1434 -0.2407 -0.4700
  660TIP3   OH226174   2.382   4.777  16.685  0.1304 -0.0691 -0.0681
  660TIP3    H126175   2.404   4.800  16.776  0.0296 -0.6954  0.1252
  660TIP3    H226176   2.286   4.775  16.684  0.1323 -0.1076 -0.1737
  661TIP3   OH226177   5.808   4.625  18.080  0.0850 -0.8209  0.1081
  661TIP3    H126178   5.847   4.586  18.158  0.1605 -0.7327  0.1154
  661TIP3    H226179   5.880   4.674  18.040 -0.6614  1.7979  1.7023
  662TIP3   OH226180   1.394   7.291  18.371  0.5790  0.3908  0.2137
  662TIP3    H126181   1.351   7.369  18.407  1.2481  1.4087 -1.1198
  662TIP3    H226182   1.476   7.324  18.335  0.8586 -0.9365 -0.3935
  663TIP3   OH226183   2.864   3.684  17.142 -0.2308  1.2274 -0.0144
  663TIP3    H126184   2.883   3.638  17.225 -1.9834  0.9769  0.2810
  663TIP3    H226185   2.932   3.653  17.082 -0.3748 -0.4842  0.6478
  664TIP3   OH226186   5.817   3.237  19.436 -0.0678  0.1946  0.6627
  664TIP3    H126187   5.748   3.301  19.456  0.2710  0.8288 -0.1486
  664TIP3    H226188   5.868   3.278  19.367  0.7505 -0.5475  0.8149
  665TIP3   OH226189   3.765   5.353  18.659 -0.0261 -0.2309 -0.2733
  665TIP3    H126190   3.798   5.440  18.639 -0.2075 -0.4628 -1.6531
  665TIP3    H226191   3.844   5.300  18.672  0.1272  0.6139  3.0665
  666TIP3   OH226192   2.884   5.220  17.297  0.1753  0.0711  0.9910
  666TIP3    H126193   2.789   5.221  17.288  0.2290  1.7170  0.3188
  666TIP3    H226194   2.899   5.241  17.390 -0.1162  2.1589  0.6122
  667TIP3   OH226195   6.546   4.574  18.908  0.2583  0.1570  0.2159
  667TIP3    H126196   6.538   4.659  18.953  1.3457  0.5878 -0.3713
  667TIP3    H226197   6.531   4.594  18.816 -0.7893 -0.5286  0.2223
  668TIP3   OH226198   7.539   6.662  18.102 -0.4017  0.1718 -0.3416
  668TIP3    H126199   7.488   6.713  18.166 -1.0012 -0.2027 -0.5174
  668TIP3    H226200   7.605   6.616  18.155 -2.6325 -2.3451  0.4344
  669TIP3   OH226201   6.297   4.052  18.670 -0.0699  0.3587 -0.0374
  669TIP3    H126202   6.226   4.048  18.606 -0.4324  1.2140  0.2918
  669TIP3    H226203   6.342   3.968  18.662 -1.9695 -0.7795  0.7281
  670TIP3   OH226204   2.731   4.106  17.846 -0.1001  0.1658 -0.2388
  670TIP3    H126205   2.795   4.110  17.775  1.6293  0.1198  1.2220
  670TIP3    H226206   2.702   4.197  17.858 -2.0502 -0.0900 -2.3179
  671TIP3   OH226207   4.016   2.115  17.615  0.4545 -0.4722  0.5663
  671TIP3    H126208   3.971   2.068  17.545  0.3006 -0.6416  0.7755
  671TIP3    H226209   3.971   2.200  17.620  1.6286  0.2751 -0.7485
  672TIP3   OH226210   2.392   6.519  19.298  0.1867 -0.8488 -0.2089
  672TIP3    H126211   2.439   6.576  19.237 -0.6736 -0.0021 -0.1134
  672TIP3    H226212   2.407   6.430  19.264  0.9891 -0.5108 -0.7585
  673TIP3   OH226213   4.214   2.025  17.217  0.1327  0.3325 -0.2756
  673TIP3    H126214   4.124   2.057  17.225  0.1734  0.5619 -0.6889
  673TIP3    H226215   4.248   2.025  17.306 -0.1383  0.6509 -0.1718
  674TIP3   OH226216   4.358   7.078  18.550  0.1175 -0.7830 -0.3409
  674TIP3    H126217   4.306   7.089  18.470 -0.0362  0.1389 -0.1230
  674TIP3    H226218   4.299   7.102  18.621  0.2430 -1.6375  0.0742
  675TIP3   OH226219   5.660   0.598  18.967 -0.4116  0.0579 -0.5378
  675TIP3    H126220   5.734   0.658  18.981 -0.8321  0.0049  2.6035
  675TIP3    H226221   5.648   0.598  18.872  2.1766  1.7934 -0.9974
  676TIP3   OH226222   6.016   7.172  18.525 -0.0590 -0.4702  0.0196
  676TIP3    H126223   5.966   7.134  18.453  1.1240  1.0900 -1.7080
  676TIP3    H226224   5.982   7.260  18.535  2.0172  0.5249 -0.9815
  677TIP3   OH226225   3.913   1.780  18.150  0.2537 -0.2383 -0.0855
  677TIP3    H126226   3.897   1.702  18.203  0.4315 -0.2497 -0.0482
  677TIP3    H226227   3.826   1.818  18.137  0.0637 -0.8626 -0.7463
  678TIP3   OH226228   5.449   2.942  18.748  0.7316 -0.2248  0.1522
  678TIP3    H126229   5.398   2.867  18.716 -0.2340  1.1358 -1.7659
  678TIP3    H226230   5.428   2.948  18.841  0.0970 -1.7653  0.1347
  679TIP3   OH226231   2.147   5.563  18.277 -0.2582  0.2462 -0.0176
  679TIP3    H126232   2.170   5.641  18.225 -1.4303  0.6589  0.0548
  679TIP3    H226233   2.054   5.549  18.259  0.5598 -3.1981 -2.7666
  680TIP3   OH226234   0.905   6.941  17.655 -0.4690  0.8135  0.1614
  680TIP3    H126235   0.909   6.952  17.560 -0.5073  1.3747  0.2229
  680TIP3    H226236   0.995   6.922  17.681 -0.5668  0.0165 -0.0611
  681TIP3   OH226237   0.185   1.401  18.727  0.0191 -0.4857 -0.2087
  681TIP3    H126238   0.256   1.353  18.684  0.4298  0.0322 -0.1194
  681TIP3    H226239   0.145   1.337  18.786 -0.7701 -1.3036 -1.5862
  682TIP3   OH226240   6.632   5.736  16.929 -0.2610 -0.2049 -0.1461
  682TIP3    H126241   6.640   5.817  16.878 -3.6066  0.4775  0.1915
  682TIP3    H226242   6.625   5.667  16.863  1.4969 -0.1382 -0.4479
  683TIP3   OH226243   7.340   0.014  17.461 -0.3174 -0.0913  0.0931
  683TIP3    H126244   7.370  -0.011  17.374 -0.5311  0.3375 -0.1053
  683TIP3    H226245   7.366  -0.059  17.518  0.4325 -0.0583 -0.2054
  684TIP3   OH226246   4.775   6.395  19.200  0.2540 -0.5417  0.3856
  684TIP3    H126247   4.682   6.416  19.207  0.6321  1.9937 -0.8561
  684TIP3    H226248   4.818   6.480  19.190  2.5732 -1.7038 -0.3134
  685TIP3   OH226249   2.972   4.377  18.639 -0.1899  0.1208 -0.4578
  685TIP3    H126250   2.924   4.294  18.638 -0.2638  0.1574 -1.4512
  685TIP3    H226251   3.040   4.365  18.705 -0.2847 -0.6864 -0.4983
  686TIP3   OH226252   2.847   1.421  17.526 -0.0566  0.6094 -0.7177
  686TIP3    H126253   2.919   1.381  17.478  0.1535 -0.3917  0.3849
  686TIP3    H226254   2.890   1.474  17.593 -0.2938 -0.9267  0.7115
  687TIP3   OH226255   7.404   1.918  17.936  0.1437 -0.0732  0.3754
  687TIP3    H126256   7.343   1.869  17.990 -0.9547  0.1215 -0.6605
  687TIP3    H226257   7.452   1.973  17.999 -1.3644  0.4386  1.1292
  688TIP3   OH226258   7.153   1.451  17.436 -0.2415  0.1684  0.0135
  688TIP3    H126259   7.143   1.539  17.398  0.9490 -0.4407 -1.8537
  688TIP3    H226260   7.085   1.399  17.392 -0.5000 -0.0151  0.6174
  689TIP3   OH226261   0.833   3.890  17.673  0.6338 -0.2919 -0.3389
  689TIP3    H126262   0.844   3.896  17.579 -0.2247  2.7103 -0.3401
  689TIP3    H226263   0.912   3.930  17.710  0.4886 -0.4654  0.1809
  690TIP3   OH226264   5.769   6.275  18.113 -0.1357 -0.1936 -0.1258
  690TIP3    H126265   5.760   6.213  18.185  0.2669 -0.6451 -0.4594
  690TIP3    H226266   5.764   6.221  18.034 -0.7088  0.3128 -0.4417
  691TIP3   OH226267   6.155   1.733  17.236 -0.1106 -0.6845 -0.3304
  691TIP3    H126268   6.223   1.796  17.261 -1.1263  0.4526 -0.3685
  691TIP3    H226269   6.168   1.720  17.142  0.0778 -0.5023 -0.3295
  692TIP3   OH226270   4.544   0.702  18.884 -0.0588 -0.3318  0.0134
  692TIP3    H126271   4.515   0.787  18.916 -2.8053 -0.8179 -0.8933
  692TIP3    H226272   4.540   0.645  18.961 -0.7407 -0.1798  0.0985
  693TIP3   OH226273   6.095   1.253  17.388  0.2834 -0.7164  0.0530
  693TIP3    H126274   6.086   1.321  17.322  0.3576 -0.6227  0.1399
  693TIP3    H226275   6.041   1.284  17.461 -0.1325 -1.0194 -0.1236
  694TIP3   OH226276   4.266   6.118  19.421  0.1120 -0.0237 -0.1487
  694TIP3    H126277   4.255   6.077  19.507  1.5775 -1.9753 -0.8084
  694TIP3    H226278   4.334   6.184  19.433 -0.9949  1.0309  0.5449
  695TIP3   OH226279   6.197   6.571  17.844  0.2707  0.7491  0.5049
  695TIP3    H126280   6.110   6.542  17.818  0.5973  0.7490 -0.6494
  695TIP3    H226281   6.230   6.502  17.902 -0.3035  0.5320  0.5734
  696TIP3   OH226282   6.486   1.221  19.248  0.2990 -0.0820 -0.2803
  696TIP3    H126283   6.497   1.227  19.153  0.4039 -1.5572 -0.3816
  696TIP3    H226284   6.406   1.170  19.260 -0.6431  1.4926  0.4575
  697TIP3   OH226285   6.427   2.739  16.827 -0.0683  0.5500  0.3749
  697TIP3    H126286   6.491   2.674  16.858  0.2815 -0.3456 -2.0250
  697TIP3    H226287   6.359   2.739  16.894  0.6335 -1.2326  1.1631
  698TIP3   OH226288   1.627   3.606  19.417  0.0600 -0.6950 -0.1518
  698TIP3    H126289   1.650   3.696  19.437 -1.0667  0.1861 -2.4592
  698TIP3    H226290   1.661   3.555  19.491  1.2464  1.5182  0.9122
  699TIP3   OH226291   1.790   7.587  18.855  0.4724 -0.5416  0.3025
  699TIP3    H126292   1.723   7.625  18.798  1.3336  1.0486  0.3143
  699TIP3    H226293   1.755   7.501  18.878 -2.2747  0.7535  1.4359
  700TIP3   OH226294   0.882   5.054  16.725 -0.3404 -0.0216  0.1092
  700TIP3    H126295   0.830   4.976  16.708 -1.9436  0.7041  1.4658
  700TIP3    H226296   0.888   5.097  16.639 -3.3227  0.6340  0.1188
  701TIP3   OH226297   2.645   2.673  17.603 -0.3192 -0.2489  0.0241
  701TIP3    H126298   2.640   2.715  17.689  1.0720  0.1304 -0.0527
  701TIP3    H226299   2.732   2.631  17.601 -0.6453 -0.9348 -0.8923
  702TIP3   OH226300   5.931   5.970  17.660  0.3103 -0.0981 -0.1630
  702TIP3    H126301   5.980   5.961  17.578 -0.7615  2.4653 -1.2200
  702TIP3    H226302   5.839   5.978  17.632 -0.2617 -0.7514  1.4237
  703TIP3   OH226303   1.170   5.020  17.831  0.3913  0.1794 -0.5589
  703TIP3    H126304   1.157   4.926  17.819  1.3800 -0.1327  0.6325
  703TIP3    H226305   1.118   5.041  17.909  1.0228  0.4054 -0.1968
  704TIP3   OH226306   7.329   2.111  19.494 -0.3338 -0.3294  0.0008
  704TIP3    H126307   7.333   2.018  19.515  2.1122 -0.2867 -0.0509
  704TIP3    H226308   7.327   2.114  19.398 -0.0128 -0.3219 -0.0062
  705TIP3   OH226309   5.824   1.722  18.205 -0.1133  0.5470  0.4846
  705TIP3    H126310   5.918   1.720  18.189 -0.1996  0.5529 -0.0371
  705TIP3    H226311   5.790   1.790  18.147 -0.5311  0.0602  0.1458
  706TIP3   OH226312   2.403   4.276  17.487  0.2437 -0.1157 -0.0518
  706TIP3    H126313   2.312   4.264  17.460 -0.2456  0.5837  1.1767
  706TIP3    H226314   2.408   4.368  17.512  0.6701 -0.6406  2.0030
  707TIP3   OH226315   4.231   0.161  17.758  0.5464  0.4680 -0.0829
  707TIP3    H126316   4.179   0.147  17.679  0.3934  1.7051 -0.2084
  707TIP3    H226317   4.168   0.188  17.825  0.8937  1.0612  0.0110
  708TIP3   OH226318   6.214   2.260  18.567  0.2161 -0.1715 -0.1405
  708TIP3    H126319   6.217   2.195  18.497 -0.0606  0.2942 -0.5886
  708TIP3    H226320   6.297   2.249  18.613  0.0343 -1.0621 -0.0044
  709TIP3   OH226321   6.090   1.149  16.972  0.2429  0.4445  0.1943
  709TIP3    H126322   6.157   1.214  16.993  1.2400 -0.0633 -1.2170
  709TIP3    H226323   6.029   1.195  16.914  0.0763  0.5421  0.4432
  710TIP3   OH226324   4.162   5.887  19.049  0.2332  0.3542  0.0989
  710TIP3    H126325   4.206   5.971  19.037  0.9413  0.1363  1.0485
  710TIP3    H226326   4.148   5.854  18.960 -2.0922  2.4796 -0.4488
  711TIP3   OH226327   6.606   0.861  18.405 -0.6437  0.4583  0.1679
  711TIP3    H126328   6.692   0.896  18.380 -0.5586  0.4153  0.4042
  711TIP3    H226329   6.622   0.769  18.422 -0.8949  0.2661 -0.5913
  712TIP3   OH226330   3.521   6.831  17.393  0.1536 -0.4649  0.1317
  712TIP3    H126331   3.470   6.847  17.313  0.2814 -2.7011 -0.4673
  712TIP3    H226332   3.457   6.830  17.463 -0.6325 -2.7060 -0.5403
  713TIP3   OH226333   4.916   5.269  17.389  0.3271 -0.2528 -0.0728
  713TIP3    H126334   4.886   5.290  17.300  0.8296 -0.5444 -0.3149
  713TIP3    H226335   4.861   5.323  17.446 -0.2148 -0.2977 -0.5405
  714TIP3   OH226336   2.833   5.769  17.744 -0.0490  0.0718 -0.1977
  714TIP3    H126337   2.916   5.816  17.735  0.0615 -0.5031 -2.9819
  714TIP3    H226338   2.766   5.837  17.738  0.1614  0.4538  1.3567
  715TIP3   OH226339   1.341   4.447  18.222  0.2129  0.4427 -0.3927
  715TIP3    H126340   1.315   4.409  18.138 -2.3594  1.2236 -0.0523
  715TIP3    H226341   1.358   4.539  18.202 -0.9333  0.7568 -0.0333
  716TIP3   OH226342   5.531   7.223  17.079 -0.2735 -0.3105 -0.4934
  716TIP3    H126343   5.542   7.256  17.168 -2.1530  0.6180 -0.5567
  716TIP3    H226344   5.527   7.128  17.089 -0.2947 -0.2255  0.3875
  717TIP3   OH226345   2.869   6.948  18.478 -0.8792  0.0001 -0.0460
  717TIP3    H126346   2.832   6.968  18.564  1.0986  1.4759  0.5248
  717TIP3    H226347   2.952   6.904  18.497  0.2433  1.5541 -1.1312
  718TIP3   OH226348   5.316   2.408  17.248 -0.1608  0.3363  0.1943
  718TIP3    H126349   5.374   2.485  17.251 -2.3017  2.0323  0.8837
  718TIP3    H226350   5.314   2.383  17.156  2.1398 -0.2192  0.2424
  719TIP3   OH226351   1.132   6.888  17.818 -0.5695  0.0651 -0.1869
  719TIP3    H126352   1.146   6.979  17.846 -1.7464  0.6271 -1.3051
  719TIP3    H226353   1.220   6.851  17.811 -0.0212  1.3590 -0.4443
  720TIP3   OH226354   6.972   3.215  17.487 -0.0603  0.4055  0.0233
  720TIP3    H126355   6.914   3.172  17.424 -1.7294 -0.3021  1.9352
  720TIP3    H226356   6.989   3.301  17.450 -0.7016 -0.1041 -1.5320
  721TIP3   OH226357   4.845   2.143  16.804  0.2059  0.0218  0.5937
  721TIP3    H126358   4.800   2.083  16.745  1.3805  0.8487 -1.2348
  721TIP3    H226359   4.890   2.085  16.866 -1.0092 -0.8699  0.6763
  722TIP3   OH226360   0.616   2.379  17.465 -0.1405  0.1535  0.0367
  722TIP3    H126361   0.635   2.291  17.430 -0.2436 -0.3985  1.3066
  722TIP3    H226362   0.643   2.374  17.557  0.8687  1.8012 -0.1401
  723TIP3   OH226363   5.924   3.358  19.234 -0.8039 -0.3026  0.6446
  723TIP3    H126364   5.893   3.314  19.155 -0.6645 -3.1694  2.0896
  723TIP3    H226365   6.015   3.382  19.213 -1.5438  1.4337 -0.9336
  724TIP3   OH226366   3.010   5.880  17.361  0.2529 -0.0454  0.2657
  724TIP3    H126367   2.959   5.919  17.290  1.4957  0.6626 -0.2679
  724TIP3    H226368   2.955   5.809  17.393 -0.7401  0.2139 -0.7830
  725TIP3   OH226369   2.840   2.837  18.618  0.1309  0.5716  0.0031
  725TIP3    H126370   2.923   2.885  18.618 -0.4108  1.5285 -0.5079
  725TIP3    H226371   2.856   2.762  18.676  1.3554  0.7258 -0.1098
  726TIP3   OH226372   2.039   6.747  18.379  0.0837 -0.4094 -0.6036
  726TIP3    H126373   2.124   6.706  18.396 -0.0303 -1.1258 -1.6928
  726TIP3    H226374   2.049   6.787  18.293 -1.5905 -3.1674 -2.2375
  727TIP3   OH226375   4.896   6.878  18.509 -0.8900  0.4620  0.4262
  727TIP3    H126376   4.881   6.839  18.423 -2.1340  0.8731  0.4295
  727TIP3    H226377   4.889   6.972  18.494 -1.0879  0.5380  0.9698
  728TIP3   OH226378   3.166   4.058  19.427  0.0857  0.0288 -0.3588
  728TIP3    H126379   3.255   4.087  19.446  0.8437 -1.4076 -1.4700
  728TIP3    H226380   3.160   4.061  19.331 -1.9472  2.4752 -0.2640
  729TIP3   OH226381   4.009   1.916  19.445  0.2082 -0.2129 -0.1898
  729TIP3    H126382   3.973   1.937  19.531  0.3185  0.8385 -0.3905
  729TIP3    H226383   4.084   1.974  19.435  1.2447 -1.5180 -0.2982
  730TIP3   OH226384   2.950   7.197  18.391  0.1540 -0.2317 -0.4490
  730TIP3    H126385   2.887   7.134  18.427 -0.6882  0.8055 -0.0482
  730TIP3    H226386   2.914   7.282  18.415 -0.3559  0.5312 -3.5802
  731TIP3   OH226387   3.820   3.516  19.488 -0.4361  0.1951 -0.5223
  731TIP3    H126388   3.787   3.574  19.557  1.6602 -0.2450  0.9673
  731TIP3    H226389   3.845   3.575  19.417 -2.8311  0.6376 -1.0784
  732TIP3   OH226390   4.744   6.674  17.735  0.0936  0.1448 -0.0075
  732TIP3    H126391   4.680   6.616  17.775  0.2883 -0.1445 -0.1177
  732TIP3    H226392   4.753   6.747  17.797 -0.2478  0.1246  0.0645
  733TIP3   OH226393   3.008   6.223  17.957 -0.3135 -0.0085 -0.2466
  733TIP3    H126394   2.965   6.217  17.872 -0.3141  0.1334 -0.2554
  733TIP3    H226395   3.077   6.156  17.954 -0.6116 -0.3218 -0.1845
  734TIP3   OH226396   6.924   6.144  16.937  0.6036 -0.3792  0.1445
  734TIP3    H126397   6.871   6.219  16.913  1.7924 -0.0677 -1.6939
  734TIP3    H226398   6.939   6.097  16.855  1.0439 -1.8623  1.0242
  735TIP3   OH226399   5.069   6.481  17.210  0.3133  0.2467 -0.5562
  735TIP3    H126400   5.024   6.560  17.179 -0.1576 -0.1642 -0.9376
  735TIP3    H226401   5.153   6.513  17.243 -0.7550  1.2395  1.4027
  736TIP3   OH226402   6.582   0.430  18.867  0.3657 -0.1816  0.4225
  736TIP3    H126403   6.538   0.452  18.949 -0.3772 -1.8100  0.4850
  736TIP3    H226404   6.538   0.484  18.801 -0.8725 -0.8431  0.6862
  737TIP3   OH226405   1.649   5.193  17.604 -0.1185  0.0380 -0.3640
  737TIP3    H126406   1.718   5.175  17.668  0.7145 -1.1389 -1.5204
  737TIP3    H226407   1.570   5.154  17.643  0.1721  0.1505  0.3566
  738TIP3   OH226408   6.463   3.952  18.160 -0.0869 -0.0533  0.0728
  738TIP3    H126409   6.451   3.888  18.090  0.0228  0.1772 -0.1611
  738TIP3    H226410   6.500   4.029  18.116  0.4338 -0.0763  0.4645
  739TIP3   OH226411   7.670   3.206  18.109 -0.0040  0.8515 -0.2865
  739TIP3    H126412   7.653   3.221  18.203 -0.7102 -0.7417 -0.1400
  739TIP3    H226413   7.765   3.197  18.103  0.0124  0.5684  0.3408
  740TIP3   OH226414   6.903   3.090  17.727  0.0672 -0.0194  0.4798
  740TIP3    H126415   6.845   3.020  17.699 -0.4580  0.7175 -0.3283
  740TIP3    H226416   6.936   3.128  17.645  0.8559  0.2495  0.9122
  741TIP3   OH226417   6.238   1.720  18.654 -0.1364  0.9329 -0.3297
  741TIP3    H126418   6.201   1.637  18.621  0.3021  0.7109 -0.2652
  741TIP3    H226419   6.295   1.750  18.583  1.4389  0.0506  0.5101
  742TIP3   OH226420   4.455   0.859  18.625 -0.4089 -0.2228 -0.2764
  742TIP3    H126421   4.504   0.881  18.546  0.7504 -2.9157 -0.4081
  742TIP3    H226422   4.511   0.889  18.697 -1.2372  1.7704 -0.3982
  743TIP3   OH226423   6.654   0.239  19.203  0.0012 -0.5485 -0.7284
  743TIP3    H126424   6.735   0.203  19.238 -0.0384  0.2468  0.2088
  743TIP3    H226425   6.682   0.303  19.138  0.2107  0.9319  0.7482
  744TIP3   OH226426   0.427   3.351  19.415  0.0700 -0.2351  0.5199
  744TIP3    H126427   0.335   3.330  19.435  0.2523 -1.4678  0.1536
  744TIP3    H226428   0.459   3.274  19.368  0.7959  0.9066 -0.9458
  745TIP3   OH226429   6.897   6.532  18.814  0.0932 -0.1088 -0.1013
  745TIP3    H126430   6.880   6.518  18.721  1.4184  3.1049 -0.9898
  745TIP3    H226431   6.985   6.499  18.828  0.3839  0.5283 -0.3562
  746TIP3   OH226432   4.794   0.869  17.013  0.0687  0.0947  0.1182
  746TIP3    H126433   4.846   0.790  17.030  0.3998  0.2685 -0.0773
  746TIP3    H226434   4.712   0.836  16.976 -0.0783 -0.1996  0.6898
  747TIP3   OH226435   6.479   2.405  18.548  0.0111 -0.1099 -0.1324
  747TIP3    H126436   6.523   2.444  18.624  1.7193  1.2610 -1.7165
  747TIP3    H226437   6.542   2.342  18.515 -0.3016  0.0028 -0.9551
  748TIP3   OH226438   5.914   1.089  19.230 -0.6274  0.6471 -0.5090
  748TIP3    H126439   5.859   1.150  19.180  1.1499  1.3026 -1.7637
  748TIP3    H226440   5.889   1.103  19.321 -3.0132  0.4015 -1.0566
  749TIP3   OH226441   0.640   6.361  16.807  0.3877 -0.0452  0.1505
  749TIP3    H126442   0.674   6.421  16.741 -1.5245 -0.9333 -1.7745
  749TIP3    H226443   0.716   6.311  16.838  1.3845  0.6812 -1.0744
  750TIP3   OH226444   2.875   4.354  19.727  0.8559  0.2366 -0.7126
  750TIP3    H126445   2.859   4.315  19.640 -1.2684 -1.7145  0.4315
  750TIP3    H226446   2.920   4.286  19.776 -0.9938 -0.0804  0.6863
  751TIP3   OH226447   0.370   6.355  16.422 -0.1787 -0.6802 -1.0273
  751TIP3    H126448   0.300   6.325  16.479  1.3436 -0.1452  1.2387
  751TIP3    H226449   0.407   6.275  16.384  0.3909 -1.3043  0.7485
  752TIP3   OH226450   1.079   0.021  17.169 -0.3234  0.1178  0.0183
  752TIP3    H126451   1.042   0.025  17.081 -0.4298 -1.6034 -0.0377
  752TIP3    H226452   1.084   0.113  17.197 -2.0817  0.5740 -1.0294
  753TIP3   OH226453   6.814   3.412  19.605 -0.0942 -0.2083 -1.0409
  753TIP3    H126454   6.782   3.488  19.654  2.2047  0.3448 -0.2900
  753TIP3    H226455   6.907   3.429  19.591  0.4296 -2.7048 -1.1623
  754TIP3   OH226456   1.174   2.442  18.208  0.0956 -0.2317 -0.0827
  754TIP3    H126457   1.249   2.385  18.188  0.1123 -0.5193  0.7657
  754TIP3    H226458   1.170   2.503  18.134  0.8731 -0.5182 -0.3727
  755TIP3   OH226459   3.530   3.937  18.845 -0.1229  0.2164 -0.0661
  755TIP3    H126460   3.540   3.887  18.927 -2.8245 -0.2562  0.0653
  755TIP3    H226461   3.566   4.023  18.866 -0.1953 -0.0800  1.4493
  756TIP3   OH226462   6.985   4.534  17.978 -0.3411  0.3192  0.3317
  756TIP3    H126463   7.009   4.588  18.053 -0.5062 -0.4375  0.9411
  756TIP3    H226464   7.061   4.538  17.920  0.5280 -0.5192  1.3632
  757TIP3   OH226465   1.978   6.291  16.624 -0.3409  0.5801 -0.1039
  757TIP3    H126466   1.918   6.253  16.688 -0.4264 -0.7078 -0.9194
  757TIP3    H226467   1.922   6.340  16.564 -0.5634 -0.4412 -0.7386
  758TIP3   OH226468   6.770   6.650  16.878  0.4621  0.2520  0.3054
  758TIP3    H126469   6.850   6.610  16.846  0.8014 -0.1459  1.5855
  758TIP3    H226470   6.705   6.633  16.810  1.7131  1.6346 -1.3396
  759TIP3   OH226471   3.090   5.012  18.684  0.0774 -0.2105 -0.3488
  759TIP3    H126472   2.995   5.009  18.699 -0.1990  0.8529 -1.6377
  759TIP3    H226473   3.116   5.099  18.714  0.9298 -0.9929  1.2939
  760TIP3   OH226474   6.715   5.118  18.408 -0.1008  0.3559  0.1326
  760TIP3    H126475   6.811   5.126  18.409 -0.0422 -0.3622  0.6460
  760TIP3    H226476   6.686   5.162  18.488 -0.1286 -0.2250  0.4459
  761TIP3   OH226477   2.003   0.507  17.684  0.2973 -0.4178 -0.9062
  761TIP3    H126478   2.028   0.493  17.775  1.4946  1.1603 -0.9562
  761TIP3    H226479   1.920   0.554  17.688  0.7464  0.3614 -0.6042
  762TIP3   OH226480   5.903   6.940  17.880  0.3698 -0.5543  0.2433
  762TIP3    H126481   5.866   7.028  17.873  0.5560 -0.3475  1.5618
  762TIP3    H226482   5.832   6.881  17.855  0.7437 -0.0150 -2.3949
  763TIP3   OH226483   3.781   0.351  16.846 -0.2215  0.0158  0.8173
  763TIP3    H126484   3.797   0.281  16.782  0.1226  2.4191 -1.9463
  763TIP3    H226485   3.868   0.385  16.867 -0.4995  1.2945  0.0130
  764TIP3   OH226486   6.131   2.587  19.132 -0.2788  0.0446 -0.2181
  764TIP3    H126487   6.052   2.631  19.163 -0.1574  0.0746  0.0499
  764TIP3    H226488   6.200   2.653  19.140 -0.1417 -0.1197 -0.0315
  765TIP3   OH226489   5.325   0.183  18.240 -0.4605  0.0664  0.1931
  765TIP3    H126490   5.418   0.161  18.242 -0.8235 -1.8130 -0.4426
  765TIP3    H226491   5.316   0.259  18.297  1.1328 -1.0090  1.9895
  766TIP3   OH226492   3.897   0.281  18.170  0.4805 -0.6564 -0.5238
  766TIP3    H126493   3.859   0.369  18.181 -1.2318 -1.4658  0.4568
  766TIP3    H226494   3.967   0.277  18.235  0.1848 -0.2210 -0.1743
  767TIP3   OH226495   3.384   4.584  17.194  0.0745  0.0826 -0.4477
  767TIP3    H126496   3.430   4.663  17.167 -0.1074  0.6635  0.8567
  767TIP3    H226497   3.307   4.581  17.138 -0.6208  1.5897  0.3723
  768TIP3   OH226498   0.823   5.850  19.242 -0.0413  0.0461 -0.0817
  768TIP3    H126499   0.815   5.945  19.248  2.4178  0.3586 -0.6343
  768TIP3    H226500   0.748   5.823  19.189 -0.1367  1.8080 -0.9248
  769TIP3   OH226501   4.190   3.211  17.994  0.1679 -0.1766  0.3095
  769TIP3    H126502   4.234   3.146  18.049 -1.5064 -0.2313  1.6664
  769TIP3    H226503   4.116   3.241  18.047 -0.6510  0.8834 -1.3575
  770TIP3   OH226504   6.844   6.404  18.140 -0.2922  0.0499 -0.1594
  770TIP3    H126505   6.756   6.441  18.147 -0.3092 -0.0251  0.0164
  770TIP3    H226506   6.857   6.356  18.221  0.3120  0.9171  0.2808
  771TIP3   OH226507   2.769   0.987  18.543  0.5613 -0.5230  0.3558
  771TIP3    H126508   2.695   1.021  18.492  0.6654  0.8244  1.0689
  771TIP3    H226509   2.780   0.897  18.512 -0.5569 -0.3291 -0.6709
  772TIP3   OH226510   0.904   0.849  17.670  0.2404 -0.4142  0.4469
  772TIP3    H126511   0.893   0.922  17.731 -1.2935 -0.0307 -0.2324
  772TIP3    H226512   0.979   0.873  17.616  0.7047 -0.0780  1.2253
  773TIP3   OH226513   0.882   7.257  18.006 -0.1871  0.9872 -0.0216
  773TIP3    H126514   0.845   7.279  17.921  0.0523  0.4441 -0.2672
  773TIP3    H226515   0.973   7.234  17.988 -0.6880 -1.2459  0.0481
  774TIP3   OH226516   3.367   4.821  17.716  0.5981  0.1276 -0.2301
  774TIP3    H126517   3.425   4.895  17.735  0.3505  0.5843 -1.2097
  774TIP3    H226518   3.362   4.818  17.620  0.6999 -1.2345 -0.2164
  775TIP3   OH226519   2.267   6.168  18.438  0.0637  0.3713  0.3426
  775TIP3    H126520   2.313   6.175  18.522 -0.7402 -0.3374  0.8589
  775TIP3    H226521   2.226   6.253  18.426  0.5350  0.6163  0.4633
  776TIP3   OH226522   6.039   1.684  16.946 -0.0039 -0.0817  0.3287
  776TIP3    H126523   6.035   1.683  16.851 -1.7768 -0.3861  0.3744
  776TIP3    H226524   6.126   1.718  16.966  0.7290 -0.8445 -1.3867
  777TIP3   OH226525   6.532   1.110  18.944 -0.2103 -0.1796  0.6402
  777TIP3    H126526   6.540   1.083  18.852 -0.3811  2.2148 -0.1585
  777TIP3    H226527   6.604   1.171  18.957 -0.6403  0.0888  1.8899
  778TIP3   OH226528   0.050   5.801  18.873 -0.4386  0.0714 -0.1395
  778TIP3    H126529   0.013   5.881  18.836 -0.3442 -0.6072 -1.7633
  778TIP3    H226530   0.022   5.731  18.814  0.1099 -1.0060  0.8273
  779TIP3   OH226531   5.921   0.281  16.643 -0.5404 -0.1210 -0.8130
  779TIP3    H126532   5.970   0.363  16.638 -0.3812 -0.1181  0.4915
  779TIP3    H226533   5.987   0.212  16.630 -0.0219 -0.1407  1.5766
  780TIP3   OH226534   7.547   2.611  18.004  0.1131 -0.0812 -0.1743
  780TIP3    H126535   7.632   2.646  17.977  0.9388 -1.2480  0.7652
  780TIP3    H226536   7.567   2.523  18.038 -1.2148  0.2545  1.6517
  781TIP3   OH226537   0.281   3.542  19.157  0.8198  0.2117  0.1496
  781TIP3    H126538   0.198   3.557  19.203  0.6856 -2.0229  0.7797
  781TIP3    H226539   0.274   3.451  19.126  2.1885  0.6650 -1.6325
  782TIP3   OH226540   7.616   5.731  19.156  0.0370  0.0214  0.1215
  782TIP3    H126541   7.674   5.665  19.195 -1.9063 -1.8146  0.0836
  782TIP3    H226542   7.662   5.761  19.078  1.6630 -0.0934  0.9988
  783TIP3   OH226543   5.680   3.084  18.829 -0.0414 -0.5695  0.1762
  783TIP3    H126544   5.663   3.061  18.920 -2.2991  1.3786  0.3289
  783TIP3    H226545   5.608   3.045  18.779 -0.6167  1.0121 -0.3054
  784TIP3   OH226546   5.041   7.278  18.246 -0.6048  0.3257  0.1900
  784TIP3    H126547   5.046   7.294  18.152 -0.4799  2.2297  0.4871
  784TIP3    H226548   4.985   7.348  18.279  0.2023  0.3036  1.6665
  785TIP3   OH226549   1.165   1.307  19.050 -0.2770 -0.6029 -0.1676
  785TIP3    H126550   1.256   1.290  19.075  0.3655 -0.7224 -2.4104
  785TIP3    H226551   1.119   1.226  19.072  0.6544 -1.4219 -1.1049
  786TIP3   OH226552   3.221   2.098  18.727 -0.0165  0.0083 -0.2814
  786TIP3    H126553   3.199   2.142  18.809  0.2443 -0.4687  0.0508
  786TIP3    H226554   3.163   2.022  18.724 -0.4199  0.3306 -0.8202
  787TIP3   OH226555   5.794   7.012  18.431 -0.1200  0.3245 -0.1152
  787TIP3    H126556   5.809   7.061  18.350  0.0044  1.1715  0.4113
  787TIP3    H226557   5.721   6.953  18.410 -0.2318  0.6885 -0.7755
  788TIP3   OH226558   4.721   7.165  19.130  0.5920  0.0450 -0.1162
  788TIP3    H126559   4.681   7.080  19.108 -1.7404  1.2032 -0.6326
  788TIP3    H226560   4.679   7.192  19.211  0.1691  1.3974 -0.7606
  789TIP3   OH226561   5.587   0.547  17.258 -0.3640  0.4156 -0.6988
  789TIP3    H126562   5.629   0.601  17.191  0.8257 -2.1652 -2.1662
  789TIP3    H226563   5.660   0.509  17.307 -1.1718  0.2771  0.4212
  790TIP3   OH226564   5.903   2.980  18.356 -0.6586  0.3124 -0.4537
  790TIP3    H126565   5.832   3.009  18.300  0.4998 -0.2520 -2.3159
  790TIP3    H226566   5.982   2.992  18.303  0.4661 -0.6500  0.9096
  791TIP3   OH226567   2.428   4.335  18.842  0.9404 -0.7689  0.0067
  791TIP3    H126568   2.442   4.368  18.931  0.4271  0.0628 -0.2122
  791TIP3    H226569   2.344   4.372  18.815  0.6576 -1.7414 -0.5032
  792TIP3   OH226570   0.653   1.968  19.193 -0.0447 -0.1140 -0.0160
  792TIP3    H126571   0.702   2.041  19.156 -0.7777 -0.4520 -1.7140
  792TIP3    H226572   0.613   2.003  19.273 -1.7152  1.8514 -1.6306
  793TIP3   OH226573   5.976   3.067  18.773 -0.2103  0.0743  0.2721
  793TIP3    H126574   5.881   3.063  18.776 -0.3292  0.9509 -1.2166
  793TIP3    H226575   6.005   3.025  18.854 -1.8598  0.2488  0.9842
  794TIP3   OH226576   5.589   2.614  18.714  1.0468 -0.2530  0.0293
  794TIP3    H126577   5.563   2.595  18.804  0.5975 -0.0669 -0.0561
  794TIP3    H226578   5.631   2.534  18.683  2.0751  0.0037  0.7206
  795TIP3   OH226579   3.552   5.571  17.488  0.2408 -0.0071 -0.0724
  795TIP3    H126580   3.534   5.505  17.555  0.8534  1.3214  1.4642
  795TIP3    H226581   3.595   5.523  17.417  0.1792 -1.3310  0.7578
  796TIP3   OH226582   3.053   1.310  17.376  0.2980  0.0914 -0.2634
  796TIP3    H126583   3.137   1.266  17.362 -0.3060 -1.0416 -0.4973
  796TIP3    H226584   2.988   1.243  17.354 -0.6709  0.6766  0.7349
  797TIP3   OH226585   5.644   7.434  17.991 -0.1198  0.6657 -0.0320
  797TIP3    H126586   5.550   7.420  17.985 -0.1977  0.7850  0.8236
  797TIP3    H226587   5.681   7.381  17.920 -0.8444  0.8085 -0.5266
  798TIP3   OH226588   1.792   4.283  19.384  0.6606  0.1457 -0.4037
  798TIP3    H126589   1.845   4.247  19.455 -0.6131 -0.6514  0.1825
  798TIP3    H226590   1.773   4.373  19.412  0.5519 -0.0147  0.0438
  799TIP3   OH226591   1.731   5.385  18.626 -0.0706  0.0505  0.2872
  799TIP3    H126592   1.746   5.319  18.559  1.5289 -0.7423  1.3636
  799TIP3    H226593   1.817   5.401  18.665 -0.8542  0.8756  1.7863
  800TIP3   OH226594   5.995   4.585  18.387 -0.0529  0.1685  0.5603
  800TIP3    H126595   5.933   4.651  18.417  0.7703  1.0247  0.4287
  800TIP3    H226596   6.035   4.552  18.468  0.8335  1.1541  0.5566
  801TIP3   OH226597   2.889   5.474  18.850  0.4742  0.3542  0.7057
  801TIP3    H126598   2.810   5.472  18.795  1.8965  0.2574 -1.4474
  801TIP3    H226599   2.922   5.563  18.841  0.9325  0.2301  1.1401
  802TIP3   OH226600   4.542   5.941  19.471 -0.0833 -0.0676 -0.0830
  802TIP3    H126601   4.511   5.909  19.555  0.7242  0.9860  0.6497
  802TIP3    H226602   4.522   6.035  19.472 -1.4333 -0.2836 -1.7174
  803TIP3   OH226603   1.642   7.227  18.570  0.4166  0.0762  0.1990
  803TIP3    H126604   1.577   7.290  18.602  0.0359  0.6299 -1.5724
  803TIP3    H226605   1.703   7.280  18.518  0.5303 -0.8854 -0.6771
  804TIP3   OH226606   2.253   0.824  18.412 -0.2945  0.2728  0.7364
  804TIP3    H126607   2.301   0.827  18.330  0.5989 -1.2640  1.1507
  804TIP3    H226608   2.161   0.827  18.387 -0.0181  0.6295 -0.2577
  805TIP3   OH226609   5.680   3.921  18.422 -0.8946 -0.0676 -1.0371
  805TIP3    H126610   5.647   3.835  18.445  0.7242 -0.5451 -0.3124
  805TIP3    H226611   5.604   3.968  18.388 -2.3471 -1.0175  0.6833
  806TIP3   OH226612   6.280   5.022  17.908  0.1339  0.0036 -0.7070
  806TIP3    H126613   6.323   5.106  17.927 -0.9332  0.5053 -0.3929
  806TIP3    H226614   6.215   5.014  17.978  2.1988 -2.5919  1.1278
  807TIP3   OH226615   4.733   0.530  17.230  0.2370  0.3975  0.3416
  807TIP3    H126616   4.654   0.583  17.219  1.4725  2.2517 -0.1445
  807TIP3    H226617   4.796   0.569  17.169  1.6671 -0.7420  1.0352
  808TIP3   OH226618   0.144   5.277  17.485  0.0587 -0.0931  0.2967
  808TIP3    H126619   0.134   5.187  17.516  1.4450  0.0115  1.1421
  808TIP3    H226620   0.182   5.268  17.398  1.6591 -0.3418  0.9859
  809TIP3   OH226621   5.830   3.229  17.162 -0.0589  0.1639  0.2468
  809TIP3    H126622   5.857   3.217  17.253  1.2054 -1.0520 -0.2656
  809TIP3    H226623   5.803   3.321  17.158 -2.3982 -0.3012  2.3887
  810TIP3   OH226624   7.362   5.546  19.307 -0.1005  0.6027 -0.3240
  810TIP3    H126625   7.407   5.523  19.226 -0.7190  1.3540 -0.8963
  810TIP3    H226626   7.319   5.465  19.334  0.5046  0.2208 -0.4722
  811TIP3   OH226627   6.980   1.086  18.874  0.2923 -0.2680 -0.4324
  811TIP3    H126628   6.968   0.993  18.892  0.7428 -0.3690 -0.6457
  811TIP3    H226629   6.932   1.101  18.793  0.4201 -0.3685 -0.5277
  812TIP3   OH226630   7.662   1.816  18.397 -0.2527  0.2623 -0.1921
  812TIP3    H126631   7.748   1.775  18.409 -1.3570 -1.9249  0.8743
  812TIP3    H226632   7.619   1.762  18.331 -0.4535  2.0140 -1.5543
  813TIP3   OH226633   2.136   3.543  16.680 -0.1251  0.0580 -0.3954
  813TIP3    H126634   2.193   3.592  16.621  0.5447 -0.5427 -0.2663
  813TIP3    H226635   2.193   3.513  16.750 -0.8557  0.4808  0.3900
  814TIP3   OH226636   3.119   3.411  19.606  0.4289 -0.1195 -0.2520
  814TIP3    H126637   3.194   3.375  19.559  1.8864  1.6159  0.6042
  814TIP3    H226638   3.117   3.362  19.688 -1.1190 -2.0343 -1.3593
  815TIP3   OH226639   4.175   2.925  18.566 -0.0191  0.0235  0.4308
  815TIP3    H126640   4.214   2.909  18.480  1.5163  0.4555  1.0008
  815TIP3    H226641   4.082   2.936  18.550  0.1941 -0.3111 -1.1173
  816TIP3   OH226642   4.816   2.771  17.985  0.2460  0.3677 -0.5887
  816TIP3    H126643   4.753   2.775  17.914  0.6203  0.5256 -0.9183
  816TIP3    H226644   4.901   2.768  17.941  0.4089 -1.5810 -0.1898
  817TIP3   OH226645   5.080   4.974  16.925 -0.3766 -0.2461 -0.0672
  817TIP3    H126646   5.021   4.947  16.854 -0.3217  0.5190 -0.4163
  817TIP3    H226647   5.139   4.900  16.937 -0.6253 -0.5315 -0.5688
  818TIP3   OH226648   0.416   5.114  18.986 -0.1678  0.0862 -0.3141
  818TIP3    H126649   0.405   5.022  18.962  0.3747 -0.0371 -0.0897
  818TIP3    H226650   0.342   5.132  19.043  1.1378 -0.9606  1.8063
  819TIP3   OH226651   4.949   4.871  19.005 -0.1151  0.0114 -0.2452
  819TIP3    H126652   4.859   4.840  19.014 -0.3755 -0.4901 -3.3365
  819TIP3    H226653   4.941   4.954  18.959  0.9476 -1.4442 -3.3979
  820TIP3   OH226654   3.413   0.717  17.956  0.1699  0.5937 -0.4813
  820TIP3    H126655   3.461   0.664  18.020 -1.9704 -0.3946  0.4072
  820TIP3    H226656   3.368   0.653  17.902 -2.4050  1.4274  0.5440
  821TIP3   OH226657   4.692   7.586  17.194  0.0903  0.3441  0.0505
  821TIP3    H126658   4.759   7.617  17.255  0.8695  1.8045 -1.4637
  821TIP3    H226659   4.730   7.508  17.153  1.0823  1.3592 -1.0493
  822TIP3   OH226660   2.235   6.860  17.572  0.3977  0.1803  0.3795
  822TIP3    H126661   2.299   6.919  17.612  0.1007  1.1348 -0.5224
  822TIP3    H226662   2.150   6.894  17.600  0.2403 -0.1609  0.3183
  823TIP3   OH226663   0.556   3.363  17.470  0.3436  0.5197 -0.0190
  823TIP3    H126664   0.485   3.364  17.407  1.4048 -0.8678 -1.3059
  823TIP3    H226665   0.568   3.455  17.495 -1.3185  0.8598 -0.3977
  824TIP3   OH226666   2.561   7.125  18.521 -0.9225  0.1596 -0.8221
  824TIP3    H126667   2.499   7.090  18.456 -0.2282  0.4794 -1.6790
  824TIP3    H226668   2.565   7.057  18.589 -2.9499  0.5672 -0.2347
  825TIP3   OH226669   5.170   5.870  18.575 -0.2124  0.4756 -0.5828
  825TIP3    H126670   5.190   5.790  18.528 -1.5509 -0.1896 -0.0673
  825TIP3    H226671   5.252   5.920  18.573  1.6399 -2.1668  1.6074
  826TIP3   OH226672   3.886   1.209  16.908  0.3027  0.4589 -0.7810
  826TIP3    H126673   3.927   1.249  16.831  1.3736 -0.2137 -0.5844
  826TIP3    H226674   3.869   1.119  16.881 -1.0795  0.7311 -0.8580
  827TIP3   OH226675   0.495   6.567  18.331  0.0973  0.1039 -0.1762
  827TIP3    H126676   0.425   6.541  18.391 -1.3295  1.6680 -1.0950
  827TIP3    H226677   0.469   6.653  18.300  2.4050  0.6951 -0.6364
  828TIP3   OH226678   0.753   6.033  17.179  0.5728 -0.0147 -0.2790
  828TIP3    H126679   0.658   6.039  17.168  0.5459 -0.5098 -0.3528
  828TIP3    H226680   0.773   5.940  17.164  0.8849 -0.2061  1.1737
  829TIP3   OH226681   4.084   7.678  17.507 -0.2207 -0.0580  0.6847
  829TIP3    H126682   4.016   7.611  17.510 -0.2535 -0.0619 -0.0015
  829TIP3    H226683   4.160   7.634  17.470 -0.3390  0.3580 -0.0664
  830TIP3   OH226684   3.061   3.434  18.841 -0.1130 -0.0891  0.2306
  830TIP3    H126685   3.152   3.443  18.869  0.4875 -4.2927  0.3571
  830TIP3    H226686   3.013   3.412  18.921 -1.2056  1.5505  0.0752
  831TIP3   OH226687   5.185   6.196  17.486  0.3814 -0.0051 -0.3694
  831TIP3    H126688   5.279   6.212  17.475  0.5241  0.5233  1.2879
  831TIP3    H226689   5.179   6.154  17.572 -0.7007 -2.1963 -1.4479
  832TIP3   OH226690   1.073   6.360  18.067 -0.0226 -0.1584  0.1071
  832TIP3    H126691   1.031   6.378  18.151  0.6692  1.7342  0.1011
  832TIP3    H226692   1.095   6.267  18.070 -1.3168 -0.4437  1.4090
  833TIP3   OH226693   5.247   1.902  17.257 -0.1237  0.3217  0.3368
  833TIP3    H126694   5.316   1.837  17.270  1.2069  1.5990 -0.0954
  833TIP3    H226695   5.216   1.886  17.168 -1.8138 -1.5118  1.1704
  834TIP3   OH226696   2.181   2.952  18.172  0.0213  0.0218 -0.1300
  834TIP3    H126697   2.143   2.944  18.260 -0.4039  1.6061 -0.1371
  834TIP3    H226698   2.250   3.018  18.182 -2.6166  3.3128 -1.7005
  835TIP3   OH226699   7.081   4.327  19.607 -0.5036 -0.2553  0.0675
  835TIP3    H126700   7.121   4.332  19.694  1.0915 -0.2692 -0.6349
  835TIP3    H226701   7.005   4.386  19.613  0.6063  1.1634  0.9525
  836TIP3   OH226702   7.439   1.018  19.001 -0.1207 -0.1781  0.1219
  836TIP3    H126703   7.460   0.946  18.942  0.2124 -1.1280  1.3493
  836TIP3    H226704   7.500   1.008  19.074  0.9298  2.2488 -0.3602
  837TIP3   OH226705   2.105   4.639  17.426 -0.2213  0.6288 -0.2315
  837TIP3    H126706   2.188   4.618  17.468 -0.0022 -2.2813 -1.8657
  837TIP3    H226707   2.043   4.575  17.463 -2.1390  3.4200  1.7988
  838TIP3   OH226708   7.296   5.633  17.022  0.3682  0.9035 -0.7234
  838TIP3    H126709   7.234   5.648  17.093  0.2464 -1.2834 -0.3033
  838TIP3    H226710   7.245   5.649  16.943 -0.2455  0.8531 -0.3515
  839TIP3   OH226711   6.200   4.299  18.346  0.3837 -0.6437 -0.5806
  839TIP3    H126712   6.160   4.346  18.419 -0.8682 -1.4096 -0.7486
  839TIP3    H226713   6.283   4.267  18.381  0.0149 -0.6008  0.3695
  840TIP3   OH226714   4.430   0.230  17.088  0.1464 -0.4218  0.4865
  840TIP3    H126715   4.504   0.275  17.049  0.0487 -0.6109  0.0744
  840TIP3    H226716   4.378   0.299  17.130  0.6206 -0.3057  0.8992
  841TIP3   OH226717   5.380   0.755  18.093 -0.5167  0.4564  0.5966
  841TIP3    H126718   5.464   0.785  18.058 -0.7130 -0.5604 -0.8388
  841TIP3    H226719   5.317   0.778  18.025 -1.3928  0.9825  1.5542
  842TIP3   OH226720   6.234   5.721  16.992  0.5662 -0.0439  0.2916
  842TIP3    H126721   6.298   5.671  16.941 -0.3156 -0.9940  0.0721
  842TIP3    H226722   6.169   5.750  16.928 -0.2230 -0.7203  0.7529
  843TIP3   OH226723   4.648   5.392  16.780 -0.4204 -0.5020  0.2356
  843TIP3    H126724   4.690   5.307  16.791 -0.2935 -0.2090  2.4498
  843TIP3    H226725   4.596   5.404  16.859  0.0530  1.7376  0.2865
  844TIP3   OH226726   5.365   1.970  16.876 -0.1688  0.1685  0.2338
  844TIP3    H126727   5.291   1.922  16.914 -0.1407 -0.2392 -0.2126
  844TIP3    H226728   5.325   2.046  16.833 -0.2175  0.5397  0.9196
  845TIP3   OH226729   0.046   1.226  19.172 -0.4072 -0.8047 -0.0257
  845TIP3    H126730   0.138   1.206  19.186 -0.5954 -1.9302 -0.2864
  845TIP3    H226731   0.000   1.144  19.191 -1.2503 -0.5699 -0.9542
  846TIP3   OH226732   4.318   0.916  17.798  0.1929 -0.4191  0.4137
  846TIP3    H126733   4.404   0.888  17.767 -0.3662  0.0398 -1.7248
  846TIP3    H226734   4.263   0.838  17.791  0.1730 -0.4329  0.7148
  847TIP3   OH226735   3.895   1.518  19.193  0.3372 -0.9186  0.2110
  847TIP3    H126736   3.894   1.547  19.284  1.3338 -0.1138 -0.0102
  847TIP3    H226737   3.806   1.531  19.162  0.5884  1.5093  0.2840
  848TIP3   OH226738   6.385   1.690  19.447  0.2402  0.0623  0.5691
  848TIP3    H126739   6.441   1.612  19.441  2.8515  1.6112  2.4202
  848TIP3    H226740   6.298   1.656  19.469  0.6622 -2.4068 -1.2048
  849TIP3   OH226741   6.768   1.180  19.324 -0.3153  0.2379  0.0720
  849TIP3    H126742   6.673   1.180  19.311 -0.5721  1.7287  1.5698
  849TIP3    H226743   6.785   1.100  19.374 -1.0855  0.8539  1.3886
  850TIP3   OH226744   1.350   6.307  17.447 -0.4928  0.1238  0.0015
  850TIP3    H126745   1.393   6.371  17.389  1.1294 -0.8589  0.0556
  850TIP3    H226746   1.319   6.239  17.388  0.0961 -0.2963  0.1730
  851TIP3   OH226747   1.097   3.692  19.227 -0.0885  0.0595  0.2062
  851TIP3    H126748   1.018   3.667  19.274 -0.6874  0.2705 -0.6542
  851TIP3    H226749   1.169   3.669  19.286 -0.7587 -0.7142  0.7452
  852TIP3   OH226750   0.553   2.735  17.694 -0.4163 -0.0060  0.1524
  852TIP3    H126751   0.630   2.763  17.742 -1.2504  0.6495  1.1473
  852TIP3    H226752   0.501   2.686  17.758 -1.1985  0.2412 -0.2777
  853TIP3   OH226753   6.767   1.169  18.714 -0.4372 -0.0068 -0.1738
  853TIP3    H126754   6.742   1.241  18.772 -0.2384 -0.6211  0.6852
  853TIP3    H226755   6.790   1.212  18.631 -0.8567  0.8665  0.1511
  854TIP3   OH226756   4.117   6.086  17.145  0.0038  0.5241 -0.4389
  854TIP3    H126757   4.083   6.146  17.078  1.3744 -0.0857 -1.7439
  854TIP3    H226758   4.204   6.062  17.114 -0.0285 -1.2190  0.6450
  855TIP3   OH226759   4.884   2.492  19.207  0.0468 -0.3557 -0.2625
  855TIP3    H126760   4.933   2.573  19.192 -0.2380 -0.4333 -1.8265
  855TIP3    H226761   4.951   2.427  19.226  0.4389 -0.1498 -0.9144
  856TIP3   OH226762   3.100   6.796  17.790 -0.1231  0.7503 -0.2776
  856TIP3    H126763   3.131   6.709  17.764 -2.2486 -0.2182  0.2575
  856TIP3    H226764   3.104   6.848  17.709  3.0266  0.8202 -0.2033
  857TIP3   OH226765   4.734   4.523  16.814  0.2040  0.6318 -0.1195
  857TIP3    H126766   4.660   4.582  16.799 -0.1602  0.2444  0.1308
  857TIP3    H226767   4.810   4.581  16.821 -0.0893  1.0398 -0.2917
  858TIP3   OH226768   1.850   0.195  17.745  0.2351  0.5075 -0.5060
  858TIP3    H126769   1.892   0.218  17.828 -1.3845  1.9552 -0.0276
  858TIP3    H226770   1.778   0.257  17.737 -0.4382 -0.4458 -2.3787
  859TIP3   OH226771   7.100   0.399  17.431 -0.1225  0.3165  0.0825
  859TIP3    H126772   7.130   0.339  17.363 -1.3138  0.4462 -0.5695
  859TIP3    H226773   7.172   0.400  17.494  0.0255 -1.6243  0.0104
  860TIP3   OH226774   4.882   7.143  18.444 -0.7784 -0.2414 -0.1751
  860TIP3    H126775   4.790   7.165  18.460 -0.8973 -0.2617 -0.7933
  860TIP3    H226776   4.902   7.182  18.359 -0.8483 -2.0150 -1.0516
  861TIP3   OH226777   5.680   1.341  16.838  0.2554 -0.0968 -0.1007
  861TIP3    H126778   5.621   1.277  16.799 -1.6026 -0.3559  2.8258
  861TIP3    H226779   5.641   1.426  16.815  1.4155 -0.0306 -2.0175
  862TIP3   OH226780   5.823   3.149  17.636 -0.4393 -0.2345 -0.2272
  862TIP3    H126781   5.872   3.180  17.560  0.9982 -0.0297  0.7538
  862TIP3    H226782   5.877   3.173  17.711 -1.5007 -1.0503  0.8288
  863TIP3   OH226783   7.645   3.518  18.116 -0.6401 -0.0104 -0.1579
  863TIP3    H126784   7.563   3.474  18.142 -0.7546  1.1656  1.6797
  863TIP3    H226785   7.699   3.514  18.195  1.9215 -2.4208 -1.8556
  864TIP3   OH226786   1.051   6.108  17.384 -0.9859 -0.0129  0.6240
  864TIP3    H126787   0.995   6.048  17.434 -0.4146 -1.4808 -0.4075
  864TIP3    H226788   1.079   6.056  17.308 -0.5096  1.6079 -0.3508
  865TIP3   OH226789   0.973   6.873  17.353  0.1371  0.2175 -0.1768
  865TIP3    H126790   0.915   6.800  17.376 -0.3119  0.7361  0.3736
  865TIP3    H226791   0.949   6.895  17.263 -3.2537  2.8133  1.0919
  866TIP3   OH226792   6.787   2.177  18.168  0.2750 -0.1958  0.1359
  866TIP3    H126793   6.850   2.229  18.217  2.2478 -1.4055 -0.9966
  866TIP3    H226794   6.840   2.127  18.106 -1.6972 -2.2095 -0.0530
  867TIP3   OH226795   3.051   3.026  17.505  0.2614 -0.0774  0.2853
  867TIP3    H126796   2.973   3.020  17.560  1.0102  0.6554  1.4757
  867TIP3    H226797   3.023   3.079  17.430 -0.4340  0.0295  0.6123
  868TIP3   OH226798   4.904   2.635  18.416 -0.3833  0.2249  0.5515
  868TIP3    H126799   4.892   2.604  18.327 -0.8399  1.0729  0.3065
  868TIP3    H226800   4.944   2.722  18.406 -1.3466  0.7558  1.1242
  869TIP3   OH226801   4.137   5.254  17.686  0.1215  0.1246  0.1529
  869TIP3    H126802   4.097   5.210  17.612 -0.9846  0.3159  0.6178
  869TIP3    H226803   4.128   5.193  17.759 -0.1585  0.5466  0.4758
  870TIP3   OH226804   3.048   0.295  18.160 -0.6776 -0.2628 -0.0353
  870TIP3    H126805   3.132   0.253  18.175 -0.3661 -0.0861 -1.1770
  870TIP3    H226806   3.070   0.386  18.139 -1.1904 -0.0795  0.1902
  871TIP3   OH226807   5.722   3.618  18.410  0.1217  0.3631 -0.1158
  871TIP3    H126808   5.664   3.544  18.393 -1.2602  1.5871 -1.0343
  871TIP3    H226809   5.796   3.581  18.458 -0.7415 -1.5084 -0.1567
  872TIP3   OH226810   2.572   0.984  18.724  0.1296 -0.2230 -0.2228
  872TIP3    H126811   2.493   0.980  18.669 -0.0812 -0.6690  0.0981
  872TIP3    H226812   2.645   0.975  18.663 -0.1161 -1.1436 -0.4015
  873TIP3   OH226813   2.810   4.001  17.394  0.1097 -0.3813 -0.2511
  873TIP3    H126814   2.848   4.056  17.462  0.6385 -2.4159  1.2061
  873TIP3    H226815   2.879   3.991  17.329  1.9241 -3.2127  1.8724
  874TIP3   OH226816   5.381   1.657  17.276 -0.8108 -0.2397  0.6440
  874TIP3    H126817   5.342   1.575  17.246 -1.2189 -0.2514  1.1944
  874TIP3    H226818   5.405   1.640  17.367 -2.8620  0.9024  1.4779
  875TIP3   OH226819   1.227   1.760  18.662  0.1585  0.1627  0.6798
  875TIP3    H126820   1.221   1.667  18.685 -0.5096 -0.1790 -0.7402
  875TIP3    H226821   1.312   1.767  18.618  0.8575  0.5428  2.0588
  876TIP3   OH226822   5.805   5.418  18.288  0.3497  0.0673  0.3731
  876TIP3    H126823   5.780   5.504  18.320  0.0950  0.6331 -1.2180
  876TIP3    H226824   5.829   5.433  18.196  0.0549 -1.5865 -0.0094
  877TIP3   OH226825   6.068   4.277  19.482  0.0689 -0.4714  0.1168
  877TIP3    H126826   6.028   4.358  19.451  0.7204 -0.4356 -0.6394
  877TIP3    H226827   6.005   4.243  19.546  0.3325  1.2274  1.3479
  878TIP3   OH226828   2.815   2.669  17.050  0.1484 -0.1828 -0.0414
  878TIP3    H126829   2.719   2.668  17.052  0.1426 -1.3308 -0.1784
  878TIP3    H226830   2.837   2.745  16.996 -0.6128  1.5894  1.9811
  879TIP3   OH226831   0.512   5.596  17.655 -0.7923 -0.2865  0.4846
  879TIP3    H126832   0.501   5.526  17.719  0.7465 -1.3049 -0.2931
  879TIP3    H226833   0.603   5.625  17.667 -0.2150 -1.0206 -1.6803
  880TIP3   OH226834   3.677   4.999  19.277  0.4867 -0.1920 -0.0710
  880TIP3    H126835   3.591   4.991  19.318  0.7953 -2.4162  0.2985
  880TIP3    H226836   3.737   5.012  19.350  0.6096 -0.1420 -0.1820
  881TIP3   OH226837   0.669   1.203  18.306  0.1940 -0.2321 -0.8320
  881TIP3    H126838   0.665   1.145  18.229 -2.2423 -0.0285 -0.9306
  881TIP3    H226839   0.646   1.289  18.273 -1.3409 -0.2225  0.1587
  882TIP3   OH226840   6.226   0.437  19.500  0.1171  0.0367  0.0263
  882TIP3    H126841   6.258   0.412  19.586  0.6420  1.7055  0.3346
  882TIP3    H226842   6.302   0.428  19.442  0.3322  0.9600  0.1553
  883TIP3   OH226843   0.427   1.981  17.548 -0.1773  0.0929  0.5286
  883TIP3    H126844   0.463   2.048  17.491  0.6159  0.1910  1.1308
  883TIP3    H226845   0.451   1.898  17.506 -1.0535  0.1730 -0.1509
  884TIP3   OH226846   7.111   0.354  17.820  0.1744  0.1392 -0.5457
  884TIP3    H126847   7.173   0.321  17.755 -0.0084  1.2650 -1.3254
  884TIP3    H226848   7.138   0.313  17.902  1.6406  0.2003 -0.9651
  885TIP3   OH226849   5.639   0.357  18.468 -0.0812 -0.2899 -0.0049
  885TIP3    H126850   5.543   0.359  18.463 -0.1665 -1.0230  1.1528
  885TIP3    H226851   5.667   0.337  18.378 -0.9814  0.4437 -0.4646
  886TIP3   OH226852   5.769   5.596  17.597 -0.2909  0.1560  0.4310
  886TIP3    H126853   5.845   5.624  17.546  0.8174 -1.9370  0.8470
  886TIP3    H226854   5.776   5.646  17.679  1.3258 -0.8322  0.9389
  887TIP3   OH226855   3.124   5.949  19.333  0.1239  0.2697 -0.4038
  887TIP3    H126856   3.130   5.937  19.238 -0.1216  1.1815 -0.5458
  887TIP3    H226857   3.046   6.002  19.345 -1.3732 -2.0164  0.5315
  888TIP3   OH226858   5.738   2.442  18.012  0.5642  0.0603  0.0469
  888TIP3    H126859   5.772   2.527  17.982 -2.5230  2.2704  2.1082
  888TIP3    H226860   5.669   2.465  18.074 -2.6891 -3.9663 -1.6312
  889TIP3   OH226861   4.842   5.173  18.452  0.3413  0.0082 -0.0783
  889TIP3    H126862   4.811   5.203  18.538 -1.1142  0.3707 -0.6853
  889TIP3    H226863   4.874   5.252  18.410  0.0621  0.0275 -0.2570
  890TIP3   OH226864   6.585   0.467  17.907  0.0318  0.1644  0.0446
  890TIP3    H126865   6.615   0.384  17.945  0.9005  0.9711  1.1815
  890TIP3    H226866   6.526   0.504  17.972  0.7776  1.1050  0.2154
  891TIP3   OH226867   5.060   7.569  17.155 -0.2110 -0.2118 -0.2309
  891TIP3    H126868   5.004   7.603  17.085  0.6779  0.8107 -0.4936
  891TIP3    H226869   5.004   7.568  17.232 -0.0554  3.1246  0.0950
  892TIP3   OH226870   6.425   0.569  18.116 -0.3113 -0.7917 -0.0511
  892TIP3    H126871   6.451   0.655  18.149  0.6882 -0.6323 -1.1602
  892TIP3    H226872   6.337   0.581  18.082 -0.0428 -0.0980 -0.5237
  893TIP3   OH226873   3.660   6.780  17.672  0.2767  0.4155  0.2018
  893TIP3    H126874   3.595   6.714  17.646  1.6874 -0.4049 -1.4720
  893TIP3    H226875   3.682   6.758  17.763 -0.5748 -0.3251  0.2420
  894TIP3   OH226876   1.877   6.163  18.863 -0.8364  0.0611  0.4194
  894TIP3    H126877   1.854   6.074  18.838 -1.3539  0.1147  0.7016
  894TIP3    H226878   1.893   6.158  18.957  1.1383 -0.1500  0.1235
  895TIP3   OH226879   4.696   6.891  16.901  0.3004 -0.1119 -0.0855
  895TIP3    H126880   4.623   6.952  16.915  0.4118 -0.2455  1.1490
  895TIP3    H226881   4.770   6.932  16.946  0.3306 -1.2366  0.9388
  896TIP3   OH226882   2.441   5.081  19.667  0.0875 -0.1224  0.0361
  896TIP3    H126883   2.368   5.033  19.706  0.0951 -0.7663 -0.7003
  896TIP3    H226884   2.412   5.100  19.578  1.2641 -1.4888 -0.6891
  897TIP3   OH226885   6.721   0.910  19.395 -0.1824 -0.3853  0.4576
  897TIP3    H126886   6.650   0.871  19.343 -0.5178 -0.1048  0.7038
  897TIP3    H226887   6.768   0.834  19.431 -0.3247 -0.5737  0.2520
  898TIP3   OH226888   5.505   7.590  18.806 -0.4337 -0.2055 -0.2532
  898TIP3    H126889   5.478   7.535  18.879 -0.1620 -0.0988 -0.0727
  898TIP3    H226890   5.535   7.529  18.739 -0.7952 -0.3091 -0.3224
  899TIP3   OH226891   7.430   0.646  16.803  0.5308 -0.7679  0.4914
  899TIP3    H126892   7.362   0.639  16.869 -1.2129 -3.1724 -1.3786
  899TIP3    H226893   7.409   0.726  16.754 -0.7624 -1.2890  0.1701
  900TIP3   OH226894   0.806   3.652  18.440  0.4104  0.1623  0.7381
  900TIP3    H126895   0.757   3.696  18.510  0.6283  3.0938 -0.7718
  900TIP3    H226896   0.791   3.707  18.363  2.7901 -1.1234 -0.7517
  901TIP3   OH226897   2.486   5.473  18.626 -0.0834 -0.1515  0.1759
  901TIP3    H126898   2.517   5.538  18.690  0.6285 -0.7097  0.4064
  901TIP3    H226899   2.488   5.390  18.673 -1.3353 -0.3111 -0.0047
  902TIP3   OH226900   5.815   6.131  17.138 -0.7206 -0.7057 -0.0002
  902TIP3    H126901   5.852   6.047  17.109 -0.7884 -0.2590 -1.4641
  902TIP3    H226902   5.871   6.197  17.097 -0.5825 -0.0189  1.2606
  903TIP3   OH226903   5.716   1.568  17.737 -0.1632 -0.0421 -0.4468
  903TIP3    H126904   5.687   1.659  17.738 -0.6186 -0.1882  0.0766
  903TIP3    H226905   5.661   1.524  17.802  0.1253 -0.6685 -0.6146
  904TIP3   OH226906   4.742   4.555  17.751  0.4530 -0.0972  0.2590
  904TIP3    H126907   4.683   4.595  17.687  2.1903 -0.3822 -1.6235
  904TIP3    H226908   4.806   4.623  17.771 -0.1734  0.0494  1.8943
  905TIP3   OH226909   4.885   4.334  17.994 -0.1463 -0.8016 -0.4005
  905TIP3    H126910   4.903   4.410  18.050  0.0425 -0.7788 -0.4908
  905TIP3    H226911   4.790   4.325  17.996 -0.1583 -0.6603 -0.2608
  906TIP3   OH226912   2.890   2.537  18.076 -0.6079 -0.4344  0.2416
  906TIP3    H126913   2.818   2.558  18.136 -0.3018 -0.4411  0.6146
  906TIP3    H226914   2.965   2.523  18.133  0.0001  0.8013 -0.2131
  907TIP3   OH226915   6.355   0.113  17.968 -0.0126 -0.5031 -0.1234
  907TIP3    H126916   6.312   0.042  17.920 -0.7731 -1.6991  2.1676
  907TIP3    H226917   6.290   0.142  18.031  1.6273 -0.5559  1.6878
  908TIP3   OH226918   7.389   0.689  19.281 -0.3872  0.2799  0.2708
  908TIP3    H126919   7.420   0.706  19.192  2.4386 -0.2871  1.0726
  908TIP3    H226920   7.373   0.776  19.318  1.6009  0.7146  0.2097
  909TIP3   OH226921   0.663   4.207  16.688  0.0905  0.1520 -0.4987
  909TIP3    H126922   0.729   4.235  16.624  0.4704  1.3476  0.3797
  909TIP3    H226923   0.681   4.259  16.766 -0.6888 -0.9040  0.4256
  910TIP3   OH226924   1.183   6.706  17.573  0.0336 -0.1650 -0.1294
  910TIP3    H126925   1.101   6.657  17.581 -0.0040 -0.0506  0.2161
  910TIP3    H226926   1.232   6.684  17.652  0.1113  0.1766 -0.0807
  911TIP3   OH226927   0.872   7.660  17.956 -0.1197 -0.3127  0.4151
  911TIP3    H126928   0.935   7.595  17.924  1.2447 -0.8424  3.7727
  911TIP3    H226929   0.916   7.744  17.942 -0.6851 -0.2682 -1.3555
  912TIP3   OH226930   3.621   2.640  18.822 -0.2179 -0.1543 -0.6892
  912TIP3    H126931   3.692   2.703  18.836 -1.0879  0.9418 -1.0753
  912TIP3    H226932   3.557   2.688  18.770 -1.1561 -1.1942 -0.5133
  913TIP3   OH226933   0.562   2.257  18.738 -0.5834  0.1360 -0.2070
  913TIP3    H126934   0.573   2.305  18.656  1.4621 -0.8041 -0.5614
  913TIP3    H226935   0.580   2.166  18.714 -0.3945 -0.2134  1.1934
  914TIP3   OH226936   0.054   6.544  18.320 -0.2765 -0.1978 -0.2368
  914TIP3    H126937   0.109   6.622  18.333  0.2993 -0.3029 -1.8113
  914TIP3    H226938   0.095   6.498  18.246 -2.4027 -0.3645 -1.3811
  915TIP3   OH226939   0.931   1.613  18.292  0.0810 -0.4324 -0.2142
  915TIP3    H126940   0.930   1.523  18.259 -0.7962 -1.6023  2.7107
  915TIP3    H226941   1.011   1.650  18.256 -0.5934 -1.6006 -3.2672
  916TIP3   OH226942   1.235   5.449  17.502  0.6589 -0.5175 -0.1275
  916TIP3    H126943   1.192   5.422  17.583  0.5928 -2.4117 -0.7450
  916TIP3    H226944   1.303   5.383  17.488  1.2360  0.2731 -1.1688
  917TIP3   OH226945   2.906   4.203  17.632 -0.5032 -0.0204 -0.2955
  917TIP3    H126946   2.833   4.265  17.626  0.8827  1.5162 -2.2358
  917TIP3    H226947   2.982   4.257  17.653  0.3450 -1.4266  0.4032
  918TIP3   OH226948   4.112   3.657  18.416 -0.3469 -0.1818  0.2583
  918TIP3    H126949   4.131   3.728  18.477  0.9267 -0.0738 -0.2314
  918TIP3    H226950   4.091   3.700  18.334 -2.6791 -0.3094  0.7368
  919TIP3   OH226951   0.180   1.179  17.562  0.3393 -0.7138  0.1689
  919TIP3    H126952   0.156   1.142  17.477  0.3241 -0.1895 -0.0608
  919TIP3    H226953   0.198   1.103  17.617  2.3806 -1.0954 -0.8891
  920TIP3   OH226954   7.654   2.539  16.987  0.3482  0.3571 -0.2622
  920TIP3    H126955   7.732   2.587  16.960  0.2370  1.1855  0.8003
  920TIP3    H226956   7.687   2.465  17.038  0.4830 -0.1056 -1.0136
  921TIP3   OH226957   7.458   5.122  18.809 -0.3448  0.0667 -0.0825
  921TIP3    H126958   7.523   5.134  18.877 -0.5946 -0.2562  0.2157
  921TIP3    H226959   7.507   5.126  18.727  0.1639 -0.9131  0.1660
  922TIP3   OH226960   2.408   5.728  17.281 -0.2335 -0.0142 -0.0674
  922TIP3    H126961   2.355   5.800  17.314 -0.5013  0.1875 -0.9129
  922TIP3    H226962   2.493   5.767  17.262  0.1626 -0.2838  1.0409
  923TIP3   OH226963   3.055   3.123  18.972  0.7469 -0.4746  0.4992
  923TIP3    H126964   3.114   3.141  19.045  0.4920 -0.6995  0.7627
  923TIP3    H226965   3.010   3.042  18.997 -0.6752  0.4087  0.9486
  924TIP3   OH226966   5.962   4.852  19.396 -0.1424  0.0114  0.6019
  924TIP3    H126967   5.884   4.828  19.446 -0.2100  1.6369  1.3451
  924TIP3    H226968   5.981   4.942  19.423  2.0857 -0.3978  0.5496
  925TIP3   OH226969   2.598   5.216  19.387 -0.0242 -0.0664  0.3446
  925TIP3    H126970   2.532   5.148  19.374  1.3177 -1.5598  0.9404
  925TIP3    H226971   2.635   5.197  19.473  1.5919  0.3217 -0.2204
  926TIP3   OH226972   6.239   5.220  19.392 -0.2338  0.3791  0.1339
  926TIP3    H126973   6.290   5.292  19.427 -1.0633  1.6480 -1.1342
  926TIP3    H226974   6.271   5.209  19.302 -2.4385  1.5587 -0.8822
  927TIP3   OH226975   2.264   5.391  18.127  0.4393 -0.0557 -0.0207
  927TIP3    H126976   2.351   5.425  18.106  1.6763 -3.0924 -0.2296
  927TIP3    H226977   2.236   5.443  18.202  2.5987  0.7353  0.3175
  928TIP3   OH226978   3.428   4.259  18.104  0.2675  0.4659 -0.1183
  928TIP3    H126979   3.355   4.251  18.165  1.0399  0.6995  0.8759
  928TIP3    H226980   3.427   4.178  18.053 -0.4922  0.3351  0.1007
  929TIP3   OH226981   3.540   1.998  18.843  0.3525  0.0996 -0.3182
  929TIP3    H126982   3.468   1.952  18.800 -0.9589 -1.0717  2.8487
  929TIP3    H226983   3.593   1.929  18.882  0.8704  1.1037  0.8266
  930TIP3   OH226984   0.221   4.510  16.806  0.6916  0.4874 -0.6431
  930TIP3    H126985   0.241   4.563  16.729  0.5046 -0.2737 -1.2167
  930TIP3    H226986   0.289   4.444  16.808  3.2434  2.8898  2.2093
  931TIP3   OH226987   2.231   3.410  16.890 -0.2291  0.3081 -0.2497
  931TIP3    H126988   2.196   3.321  16.895  0.7638 -0.1228 -0.7290
  931TIP3    H226989   2.204   3.451  16.973 -0.9329 -0.3381 -0.1458
  932TIP3   OH226990   5.843   2.769  18.928 -0.1663  0.1884 -0.4231
  932TIP3    H126991   5.919   2.818  18.897 -0.2915 -0.0361 -1.1078
  932TIP3    H226992   5.813   2.720  18.851 -0.3485 -0.5704  0.1117
  933TIP3   OH226993   4.522   2.307  18.802  0.7895 -0.2487 -0.5782
  933TIP3    H126994   4.468   2.259  18.865 -0.4414  0.3383 -1.1476
  933TIP3    H226995   4.506   2.400  18.823  1.8334 -0.0570 -0.5627
  934TIP3   OH226996   5.082   2.130  19.099  0.4433 -0.0148  0.0907
  934TIP3    H126997   5.014   2.196  19.115 -2.1373 -2.7142  1.2880
  934TIP3    H226998   5.154   2.154  19.157 -1.0772  0.9152  1.6843
  935TIP3   OH226999   1.186   4.546  18.852 -0.0534 -0.2339  0.2186
  935TIP3    H127000   1.173   4.451  18.863 -3.2899  0.2226  1.1605
  935TIP3    H227001   1.171   4.582  18.939 -0.3134  1.2757 -0.4351
  936TIP3   OH227002   4.221   5.196  16.960 -0.0557  0.0270  0.6540
  936TIP3    H127003   4.236   5.113  16.915  2.7911  0.9383 -0.2455
  936TIP3    H227004   4.144   5.233  16.916 -1.4183 -2.0830  1.1118
  937TIP3   OH227005   0.234   3.516  18.615  0.3835 -0.2177  0.4575
  937TIP3    H127006   0.216   3.464  18.693  1.0990  0.7092  1.2592
  937TIP3    H227007   0.250   3.604  18.648 -2.2580  0.9105 -0.9756
  938TIP3   OH227008   3.133   4.191  18.298  0.2207 -0.0395 -0.3053
  938TIP3    H127009   3.220   4.224  18.319  0.3269  0.9641 -2.0902
  938TIP3    H227010   3.075   4.266  18.312  0.1922  0.4376 -2.5399
  939TIP3   OH227011   2.323   2.496  16.780  0.2066 -0.2828  0.2921
  939TIP3    H127012   2.370   2.476  16.861  0.4297  0.6220  0.3879
  939TIP3    H227013   2.328   2.591  16.771  2.8877 -0.4952 -2.3490
  940TIP3   OH227014   6.732   2.909  18.049 -0.2621 -0.3399  0.7032
  940TIP3    H127015   6.813   2.888  18.003  0.7210  1.7753  1.3237
  940TIP3    H227016   6.731   3.005  18.052 -4.8632  0.0545 -2.8639
  941TIP3   OH227017   3.018   7.248  19.005 -0.1874 -0.2131  0.3291
  941TIP3    H127018   3.055   7.166  19.036 -0.3864 -0.4350 -0.0218
  941TIP3    H227019   3.093   7.304  18.988  0.1998 -1.5632 -3.0319
  942TIP3   OH227020   3.895   3.044  19.709 -0.3253  0.3104 -0.2734
  942TIP3    H127021   3.976   3.071  19.754 -1.3647 -1.1150  2.7664
  942TIP3    H227022   3.865   3.123  19.664  1.1427  1.7677  1.1461
  943TIP3   OH227023   2.147   6.106  17.976 -0.7986  0.1071 -0.0657
  943TIP3    H127024   2.243   6.111  17.972 -0.8484  0.6324 -1.0523
  943TIP3    H227025   2.118   6.189  17.939 -1.6408  0.6506  1.7472
  944TIP3   OH227026   3.952   5.018  18.771  0.6506  0.2957 -0.2838
  944TIP3    H127027   4.006   5.088  18.807  0.4363  0.1230  0.3830
  944TIP3    H227028   3.877   5.013  18.830  1.6365 -1.8461  0.8815
  945TIP3   OH227029   3.609   7.465  18.519  0.1843  0.1597 -0.4438
  945TIP3    H127030   3.700   7.475  18.492  0.1126  0.3238 -0.6279
  945TIP3    H227031   3.578   7.555  18.531 -0.0175  0.1125 -0.5970
  946TIP3   OH227032   1.794   2.326  16.801 -0.1178 -0.2800  0.9298
  946TIP3    H127033   1.778   2.255  16.864 -1.2094 -0.8359  0.0687
  946TIP3    H227034   1.889   2.338  16.802  0.0603 -1.5514  1.3197
  947TIP3   OH227035   4.814   6.958  16.627 -0.2992  0.0271  0.2819
  947TIP3    H127036   4.816   6.921  16.538  0.2907  0.9904 -0.1155
  947TIP3    H227037   4.721   6.978  16.642 -0.4679 -0.5729  0.0701
  948TIP3   OH227038   2.321   0.242  17.146 -0.0937 -0.5320  0.1510
  948TIP3    H127039   2.276   0.321  17.176  0.1541  0.6387 -2.2861
  948TIP3    H227040   2.414   0.261  17.160  0.0407  0.1284 -1.4436
  949TIP3   OH227041   2.938   5.839  18.284 -0.2613 -0.5974  0.2421
  949TIP3    H127042   2.906   5.923  18.250  0.6403 -0.0157  0.7530
  949TIP3    H227043   2.906   5.774  18.223 -1.3288  0.0775  0.0531
  950TIP3   OH227044   1.325   4.330  17.953  1.3596  0.1471  0.0465
  950TIP3    H127045   1.331   4.424  17.937  0.9645  0.0493 -0.7255
  950TIP3    H227046   1.313   4.291  17.866  1.7723 -0.6411  0.3293
  951TIP3   OH227047   3.407   5.886  18.839  0.0939 -0.1721  0.0963
  951TIP3    H127048   3.437   5.909  18.927  1.5754 -2.0267  0.1274
  951TIP3    H227049   3.367   5.967  18.806  0.1352  0.7700  2.1832
  952TIP3   OH227050   2.469   6.432  18.654 -0.3985 -0.1317  0.2616
  952TIP3    H127051   2.413   6.477  18.718  0.4621 -0.0323  0.9717
  952TIP3    H227052   2.500   6.502  18.596  2.4227  0.6465  2.4614
  953TIP3   OH227053   6.258   4.721  19.350  0.1754  0.2161 -0.2414
  953TIP3    H127054   6.244   4.640  19.301  1.3466 -1.4499  1.9600
  953TIP3    H227055   6.172   4.763  19.354 -0.8576 -1.8257 -0.0132
  954TIP3   OH227056   3.192   5.648  18.267 -0.1980 -0.5942 -0.6498
  954TIP3    H127057   3.162   5.615  18.183  1.9856 -0.8480 -1.3892
  954TIP3    H227058   3.210   5.741  18.252 -1.1415 -0.3085 -0.0660
  955TIP3   OH227059   4.347   0.626  18.007  0.0351 -0.8340 -0.2297
  955TIP3    H127060   4.396   0.576  17.942  0.6864 -0.5522  0.0387
  955TIP3    H227061   4.262   0.582  18.012  0.7772 -2.2585  0.4009
  956TIP3   OH227062   1.353   3.623  19.334  0.3297 -0.0459  0.3146
  956TIP3    H127063   1.421   3.592  19.275  2.0143 -0.2718  2.2576
  956TIP3    H227064   1.398   3.685  19.392 -0.4804 -1.8863  3.1312
  957TIP3   OH227065   4.754   1.433  18.351  0.2363  0.2145  0.4344
  957TIP3    H127066   4.730   1.430  18.258  1.9191 -0.5345 -0.0194
  957TIP3    H227067   4.678   1.397  18.396 -0.8112  1.0619 -0.5875
  958TIP3   OH227068   5.851   1.879  18.626 -0.1633  0.3050  0.1917
  958TIP3    H127069   5.932   1.920  18.654 -0.6619  0.2797  1.7725
  958TIP3    H227070   5.873   1.786  18.616  0.3613  0.5319 -0.9654
  959TIP3   OH227071   4.937   6.934  17.785  0.3549 -0.3940 -0.7348
  959TIP3    H127072   4.943   6.927  17.880  0.2473  2.2270 -0.4536
  959TIP3    H227073   5.018   6.895  17.752  1.2537  0.2855  0.5868
  960TIP3   OH227074   7.112   6.595  18.124  0.2497  0.2394  0.0558
  960TIP3    H127075   7.040   6.631  18.073  1.0920  1.0404 -0.5935
  960TIP3    H227076   7.104   6.637  18.210 -0.9154 -0.7894  0.4777
  961TIP3   OH227077   7.593   5.260  19.314  0.0093  0.0091  0.5353
  961TIP3    H127078   7.671   5.303  19.348  0.2137  0.3616 -0.3657
  961TIP3    H227079   7.551   5.325  19.259 -0.1106 -0.6673 -0.1970
  962TIP3   OH227080   2.213   1.717  18.993 -0.7943 -0.4507  0.0774
  962TIP3    H127081   2.243   1.638  19.038  0.1633 -0.6040 -0.7852
  962TIP3    H227082   2.264   1.788  19.032 -2.3278 -0.0616  1.5295
  963TIP3   OH227083   6.095   1.824  18.425 -0.4034 -0.2510  0.3951
  963TIP3    H127084   6.023   1.856  18.370 -1.2250  0.3192  1.7637
  963TIP3    H227085   6.056   1.755  18.479  0.6195 -1.4639 -0.3386
  964TIP3   OH227086   7.094   0.123  18.305  0.0999 -0.1034  0.0578
  964TIP3    H127087   7.077   0.029  18.310 -0.8149  0.1252  1.8089
  964TIP3    H227088   7.125   0.146  18.392  2.2687  0.8983 -0.8980
  965TIP3   OH227089   5.692   6.427  18.867 -0.1827 -0.2151  0.1813
  965TIP3    H127090   5.728   6.465  18.787  0.6874 -0.7079  0.3263
  965TIP3    H227091   5.753   6.454  18.935 -1.2349  0.7036  0.8012
  966TIP3   OH227092   2.597   5.304  19.675 -0.2739  0.1545 -0.5025
  966TIP3    H127093   2.540   5.228  19.663 -0.0097  0.0550 -1.1689
  966TIP3    H227094   2.609   5.310  19.769 -0.0243 -0.8342 -0.4546
  967TIP3   OH227095   6.942   6.448  16.709  0.5323  0.3544  0.4021
  967TIP3    H127096   6.950   6.379  16.642 -0.3688  1.2204 -0.6314
  967TIP3    H227097   6.996   6.519  16.676 -0.0768  0.8636  0.4983
  968TIP3   OH227098   6.484   6.031  18.823 -0.1121  0.3218 -0.0849
  968TIP3    H127099   6.405   6.074  18.855  0.8883  1.6425  0.7002
  968TIP3    H227100   6.460   5.997  18.737 -1.9300 -0.5389  0.7066
  969TIP3   OH227101   3.324   0.884  17.621 -0.1744  0.3908  0.4771
  969TIP3    H127102   3.318   0.789  17.609 -1.3820  0.6728 -1.7103
  969TIP3    H227103   3.244   0.919  17.581  1.6080  2.4969 -1.5986
  970TIP3   OH227104   6.449   5.433  18.338 -0.2948 -0.1150 -0.6009
  970TIP3    H127105   6.517   5.388  18.388  0.0660 -0.4551 -1.3833
  970TIP3    H227106   6.469   5.413  18.247 -1.3614 -0.0923 -0.8505
  971TIP3   OH227107   3.557   6.333  19.253  0.0793  0.1079 -0.4121
  971TIP3    H127108   3.612   6.316  19.176 -0.0341  0.0811 -0.4872
  971TIP3    H227109   3.496   6.260  19.255 -1.2689  1.1393 -1.4865
  972TIP3   OH227110   2.538   1.262  19.150 -0.3080  0.3054 -0.3014
  972TIP3    H127111   2.537   1.244  19.056 -1.7217 -0.2722 -0.2073
  972TIP3    H227112   2.571   1.181  19.190 -0.3916  0.2839 -0.2733
  973TIP3   OH227113   6.946   6.039  16.688  0.1371 -0.1140  0.3531
  973TIP3    H127114   6.947   5.963  16.630  0.6375  0.3014 -0.1982
  973TIP3    H227115   7.020   6.093  16.658  0.1273  0.3231  1.0897
  974TIP3   OH227116   2.238   5.533  18.517  0.3632  0.1178  0.4254
  974TIP3    H127117   2.222   5.557  18.426 -2.1082 -0.5851  0.5973
  974TIP3    H227118   2.333   5.518  18.522  0.6894  1.1096 -1.7700
  975TIP3   OH227119   5.038   2.832  17.418  0.1287 -0.0217  0.3001
  975TIP3    H127120   5.038   2.800  17.327  0.5194  0.9881 -0.0764
  975TIP3    H227121   5.129   2.857  17.434 -0.2675  1.4680  0.3503
  976TIP3   OH227122   5.975   5.134  19.464 -0.6546 -0.1850 -0.9188
  976TIP3    H127123   5.934   5.220  19.459  0.0581  0.2840  0.6504
  976TIP3    H227124   6.068   5.150  19.453 -0.3282 -0.4971  1.0172
  977TIP3   OH227125   4.584   1.971  16.871  0.0768  0.0559 -0.2293
  977TIP3    H127126   4.623   1.944  16.788  0.1125  1.3126 -0.6388
  977TIP3    H227127   4.521   2.038  16.848 -1.0384 -0.6536  0.6269
  978TIP3   OH227128   0.883   7.484  16.862 -0.6130 -0.5962  0.0725
  978TIP3    H127129   0.911   7.572  16.887  0.2102 -0.4095 -1.3957
  978TIP3    H227130   0.795   7.496  16.826 -0.4912 -0.3544 -0.1520
  979TIP3   OH227131   7.128   2.029  18.819 -0.2926 -0.5424  0.5185
  979TIP3    H127132   7.079   2.075  18.750  1.3659  0.4880 -0.0344
  979TIP3    H227133   7.079   2.048  18.899 -1.6214 -0.8027 -0.2031
  980TIP3   OH227134   6.465   7.190  17.983  0.0650  0.2253  0.1267
  980TIP3    H127135   6.397   7.250  18.014 -0.5143  0.0864 -0.8482
  980TIP3    H227136   6.509   7.161  18.063  0.2097  1.7611  0.6340
  981TIP3   OH227137   4.486   3.218  18.878 -0.1005  0.3424  0.1972
  981TIP3    H127138   4.549   3.273  18.832 -0.2890 -0.2468 -0.7851
  981TIP3    H227139   4.435   3.175  18.809 -0.8214 -0.0671  0.9568
  982TIP3   OH227140   6.757   5.491  18.607  0.1703  0.7844  0.1155
  982TIP3    H127141   6.835   5.449  18.571  0.6369 -0.2211  2.1468
  982TIP3    H227142   6.690   5.423  18.605 -0.6764  1.6079 -1.5037
  983TIP3   OH227143   4.421   7.292  18.026  0.4238  0.1424 -0.5652
  983TIP3    H127144   4.352   7.352  18.054  0.4971 -0.2969  0.6522
  983TIP3    H227145   4.461   7.335  17.950 -0.7197  0.7329 -0.8520
  984TIP3   OH227146   6.140   3.527  19.679  0.0973  0.1233 -0.1184
  984TIP3    H127147   6.152   3.588  19.607  0.3090 -0.2628 -0.4156
  984TIP3    H227148   6.138   3.582  19.758 -0.0960  0.5404 -0.4111
  985TIP3   OH227149   7.192   7.407  17.804 -0.0962  0.2085 -0.6337
  985TIP3    H127150   7.241   7.486  17.831 -0.3705  0.1340  0.1145
  985TIP3    H227151   7.236   7.335  17.850 -1.5458  0.2606  0.9607
  986TIP3   OH227152   0.963   7.138  16.787  0.1470  0.2339 -0.2757
  986TIP3    H127153   0.888   7.108  16.735  0.1630 -0.1971 -0.0533
  986TIP3    H227154   1.011   7.058  16.809  0.6405  0.5035 -0.3623
  987TIP3   OH227155   5.858   7.595  18.717  0.2875  0.2123  0.3174
  987TIP3    H127156   5.823   7.682  18.739  2.1229  0.6528  1.7246
  987TIP3    H227157   5.879   7.601  18.624 -2.8650  0.0356 -0.5203
  988TIP3   OH227158   6.562   1.137  18.169  0.0196  0.0400 -0.3529
  988TIP3    H127159   6.652   1.171  18.165 -0.5333  1.9774  1.6118
  988TIP3    H227160   6.522   1.165  18.087  0.4672  1.6432 -0.0584
  989TIP3   OH227161   4.207   0.703  16.790 -0.0257 -0.0782 -0.4380
  989TIP3    H127162   4.183   0.735  16.703 -0.7461 -1.7385 -0.8936
  989TIP3    H227163   4.125   0.707  16.840 -0.1720 -1.2665 -0.5533
  990TIP3   OH227164   1.493   5.645  17.039 -0.5167 -0.0577 -0.6656
  990TIP3    H127165   1.584   5.640  17.009 -0.2471 -0.8815  0.2601
  990TIP3    H227166   1.474   5.558  17.072 -1.8948 -0.1004 -1.5027
  991TIP3   OH227167   7.641   4.826  19.034 -0.8153 -0.1291 -0.0006
  991TIP3    H127168   7.619   4.820  18.941 -0.5051 -1.0903 -0.0223
  991TIP3    H227169   7.640   4.920  19.052  2.2906  0.4027 -1.7746
  992TIP3   OH227170   6.841   3.886  19.414  0.4436 -0.3134  0.3394
  992TIP3    H127171   6.849   3.951  19.484 -1.4918 -2.0429  2.3013
  992TIP3    H227172   6.917   3.829  19.426  1.4028  0.7082 -0.5404
  993TIP3   OH227173   5.269   0.520  17.792  0.2806 -0.4783  0.4093
  993TIP3    H127174   5.352   0.482  17.821 -0.1245 -1.5071  0.2360
  993TIP3    H227175   5.213   0.445  17.774 -0.1902  0.1722 -0.9543
  994TIP3   OH227176   2.271   0.483  17.775  0.3037 -0.1486 -0.4916
  994TIP3    H127177   2.215   0.425  17.723  0.6748  0.3007 -1.4077
  994TIP3    H227178   2.215   0.513  17.846  0.0887 -1.5996 -0.0077
  995TIP3   OH227179   4.528   6.407  17.127 -0.3449 -0.2619 -0.0322
  995TIP3    H127180   4.550   6.500  17.118  0.8018 -0.6867 -2.2905
  995TIP3    H227181   4.459   6.392  17.063 -1.3224 -0.7654  1.0987
  996TIP3   OH227182   6.659   3.664  18.373 -0.7413 -0.1129 -0.1488
  996TIP3    H127183   6.708   3.682  18.453  3.5118 -1.3419 -2.2070
  996TIP3    H227184   6.701   3.719  18.306 -2.1976 -1.2742 -2.1200
  997TIP3   OH227185   5.882   5.823  18.055 -0.0443 -0.1910  0.0945
  997TIP3    H127186   5.802   5.874  18.065  0.0683 -0.1194  0.6736
  997TIP3    H227187   5.900   5.788  18.142  0.8939  0.2933  0.1120
  998TIP3   OH227188   6.696   0.623  17.719 -0.1491  0.3948  0.6170
  998TIP3    H127189   6.655   0.572  17.789 -0.0971  0.9643  1.0670
  998TIP3    H227190   6.790   0.612  17.733 -0.1280 -0.4222 -0.0577
  999TIP3   OH227191   0.840   5.168  17.335 -0.8051 -0.3226 -0.6363
  999TIP3    H127192   0.859   5.251  17.380  0.1359 -0.2944 -1.0572
  999TIP3    H227193   0.802   5.194  17.251 -0.0200 -0.2923 -0.9894
 1000TIP3   OH227194   7.130   4.886  19.115  0.2876  0.0190 -0.3309
 1000TIP3    H127195   7.163   4.807  19.072 -1.7925  0.2994 -2.6103
 1000TIP3    H227196   7.062   4.855  19.175  0.1967 -0.0024 -0.4464
 1001TIP3   OH227197   7.604   5.164  18.570 -0.4384 -0.2839  0.2594
 1001TIP3    H127198   7.671   5.211  18.618 -0.9921 -0.5202  1.2901
 1001TIP3    H227199   7.567   5.229  18.510  0.0024  0.1180  0.4192
 1002TIP3   OH227200   4.301   4.406  16.768 -0.4670  0.0647 -0.0209
 1002TIP3    H127201   4.367   4.376  16.830 -0.6852  0.9465  0.6506
 1002TIP3    H227202   4.297   4.336  16.702  0.9351 -0.1240  0.0667
 1003TIP3   OH227203   6.507   7.026  17.467 -0.3798  0.3083  0.2278
 1003TIP3    H127204   6.594   7.053  17.497 -0.9172 -0.8874  3.1599
 1003TIP3    H227205   6.523   6.982  17.384  1.6229  1.2751  0.0287
 1004TIP3   OH227206   4.668   5.722  19.368 -0.8216 -0.7616  0.1144
 1004TIP3    H127207   4.619   5.777  19.429  1.7236 -0.1234  1.7695
 1004TIP3    H227208   4.718   5.785  19.315  0.3108 -1.4011  0.3931
 1005TIP3   OH227209   7.088   7.542  17.137  0.0277  0.0949  0.5799
 1005TIP3    H127210   7.128   7.567  17.054  0.8684 -1.3619  0.5180
 1005TIP3    H227211   7.036   7.619  17.163  0.1600  0.7552 -1.0219
 1006TIP3   OH227212   5.017   6.963  18.047  0.8201  0.3853 -0.2937
 1006TIP3    H127213   5.098   6.977  18.097  0.5215  0.4317  0.1847
 1006TIP3    H227214   4.999   7.047  18.006  0.1144  0.8594  0.9524
 1007TIP3   OH227215   3.651   6.793  18.521  1.0893 -0.3477 -0.3068
 1007TIP3    H127216   3.578   6.760  18.574 -0.9259  4.2127  0.2314
 1007TIP3    H227217   3.727   6.787  18.579 -0.1185  0.1932  1.4117
 1008TIP3   OH227218   0.240   6.540  17.022 -0.0514 -0.1323  0.1258
 1008TIP3    H127219   0.149   6.512  17.026  0.2627 -1.0841  0.9992
 1008TIP3    H227220   0.276   6.494  16.946  0.5125 -2.4051  1.6595
 1009TIP3   OH227221   4.649   2.156  18.347  0.2859  0.1131  0.1037
 1009TIP3    H127222   4.621   2.211  18.420  1.3040  1.3773 -0.4234
 1009TIP3    H227223   4.697   2.084  18.387 -0.9744 -0.3688  0.7964
 1010TIP3   OH227224   5.787   4.096  19.096 -0.5060 -0.0316  0.4612
 1010TIP3    H127225   5.751   4.066  19.013 -1.8286  2.9237 -0.1727
 1010TIP3    H227226   5.879   4.114  19.077 -0.8168  0.6933 -0.4164
 1011TIP3   OH227227   2.730   7.360  18.006  0.0828  0.2275  0.2884
 1011TIP3    H127228   2.792   7.432  18.022  0.0721 -0.1187  2.1686
 1011TIP3    H227229   2.729   7.311  18.088 -0.5523 -1.4480 -0.6736
 1012TIP3   OH227230   2.321   5.004  18.907  0.6427 -0.1194  0.0652
 1012TIP3    H127231   2.374   4.952  18.968  0.2407 -1.6410 -0.8211
 1012TIP3    H227232   2.243   5.027  18.957  0.3963 -1.1941  0.1917
 1013TIP3   OH227233   3.605   1.113  18.197  0.4145  0.6548  0.2245
 1013TIP3    H127234   3.579   1.145  18.284 -1.5726  0.0615 -0.0928
 1013TIP3    H227235   3.525   1.120  18.144  0.7299 -1.7541 -0.7194
 1014TIP3   OH227236   1.976   0.391  18.311 -0.1476  0.0859  0.1418
 1014TIP3    H127237   1.958   0.424  18.399  0.4375  1.2554 -0.1688
 1014TIP3    H227238   2.061   0.427  18.288  0.1369 -0.9816 -0.5445
 1015TIP3   OH227239   6.862   4.074  18.168  0.1795  0.7277  0.2361
 1015TIP3    H127240   6.800   4.101  18.235 -1.9736  0.4623 -1.5138
 1015TIP3    H227241   6.900   4.156  18.137 -1.2839  1.2135 -0.4092
 1016TIP3   OH227242   0.690   5.025  17.518  0.2115 -0.1060 -0.6801
 1016TIP3    H127243   0.653   5.030  17.606 -0.0793  0.4358 -0.8333
 1016TIP3    H227244   0.755   5.094  17.514 -0.1579  0.2316 -1.0653
 1017TIP3   OH227245   1.003   5.349  17.863  0.1384  0.4751  0.0885
 1017TIP3    H127246   1.062   5.320  17.932  0.9956 -0.5997 -1.0527
 1017TIP3    H227247   1.028   5.297  17.786 -1.0061  1.3848 -0.9440
 1018TIP3   OH227248   1.804   7.650  17.429  0.3885  0.1237  0.3192
 1018TIP3    H127249   1.856   7.713  17.379  0.5833  0.9648  1.5210
 1018TIP3    H227250   1.849   7.566  17.416  1.1178  0.5471  0.0437
 1019TIP3   OH227251   7.065   1.104  17.853  0.1301 -0.3619  0.5126
 1019TIP3    H127252   7.117   1.141  17.782 -1.0351 -0.8565 -0.6478
 1019TIP3    H227253   7.117   1.030  17.885  0.4221 -0.4822 -0.2259
 1020TIP3   OH227254   3.087   4.858  18.417 -0.4901  0.2226 -0.5985
 1020TIP3    H127255   3.096   4.894  18.505  0.3701  0.1639 -0.6561
 1020TIP3    H227256   3.005   4.808  18.420  0.4880 -1.4374  0.7774
 1021TIP3   OH227257   6.012   7.430  17.656 -0.3600 -0.0673 -0.7080
 1021TIP3    H127258   5.960   7.428  17.737 -0.0402  2.2937 -0.3866
 1021TIP3    H227259   6.038   7.338  17.643 -3.5089 -1.1547 -0.2204
 1022TIP3   OH227260   4.596   7.527  18.744  0.2646 -0.1214  0.2079
 1022TIP3    H127261   4.685   7.513  18.713 -0.1824  1.3515 -1.9410
 1022TIP3    H227262   4.601   7.607  18.797  0.3030 -0.3556  0.5625
 1023TIP3   OH227263   7.083   2.815  18.155  0.3064 -0.2240 -0.3069
 1023TIP3    H127264   7.033   2.820  18.073  0.9107  0.8739 -0.6225
 1023TIP3    H227265   7.170   2.848  18.132  1.0485 -1.6440  0.3545
 1024TIP3   OH227266   7.256   1.141  18.801  0.4023  0.3425  0.6340
 1024TIP3    H127267   7.306   1.067  18.836  2.0382  0.7237 -0.7527
 1024TIP3    H227268   7.167   1.128  18.834  0.6623 -2.1536  0.5408
 1025TIP3   OH227269   2.842   4.422  17.388  0.0665  0.1075  0.3182
 1025TIP3    H127270   2.755   4.411  17.425  0.1452 -2.0583 -0.0368
 1025TIP3    H227271   2.872   4.506  17.422 -1.6570  0.3089  1.4382
 1026TIP3   OH227272   1.893   3.732  17.958  0.3446 -0.6648 -0.3008
 1026TIP3    H127273   1.903   3.657  17.900 -1.2939 -0.0474 -1.4505
 1026TIP3    H227274   1.830   3.789  17.914  0.1267  0.5158  1.4096
 1027TIP3   OH227275   6.532   7.062  18.597 -0.2478  0.4039  0.0233
 1027TIP3    H127276   6.493   7.088  18.514  0.2553  0.1283 -0.3042
 1027TIP3    H227277   6.614   7.111  18.602  2.1210 -2.9464 -1.9034
 1028TIP3   OH227278   0.300   4.210  17.669 -0.6713  0.2784 -0.3049
 1028TIP3    H127279   0.341   4.226  17.754  0.1217  1.1169 -0.8267
 1028TIP3    H227280   0.217   4.167  17.690 -0.1004 -0.3066  0.8419
 1029TIP3   OH227281   5.559   0.686  16.723 -0.4381  0.1311 -0.3913
 1029TIP3    H127282   5.564   0.662  16.631  0.9963 -0.7551 -0.1255
 1029TIP3    H227283   5.624   0.629  16.766  1.4914  2.8792  0.6571
 1030TIP3   OH227284   6.284   6.279  17.352  0.1616 -0.1254 -0.5250
 1030TIP3    H127285   6.336   6.352  17.386 -2.1500  1.2593  0.3356
 1030TIP3    H227286   6.212   6.270  17.415 -0.0393 -2.6695 -1.0397
 1031TIP3   OH227287   1.011   2.082  18.020 -0.7621  1.0985  0.0481
 1031TIP3    H127288   0.959   2.052  17.945 -2.7475  0.8313  1.4781
 1031TIP3    H227289   0.963   2.157  18.055  1.0201  2.2900  0.1177
 1032TIP3   OH227290   6.150   5.549  17.672  0.5144  0.7895 -0.6304
 1032TIP3    H127291   6.180   5.505  17.751 -0.4303  0.6898 -0.3149
 1032TIP3    H227292   6.166   5.642  17.688 -0.6362  0.8769  0.1320
 1033TIP3   OH227293   2.696   1.281  18.157  0.2477 -0.4187 -0.0207
 1033TIP3    H127294   2.661   1.259  18.071  1.7110  0.0521 -0.7643
 1033TIP3    H227295   2.663   1.369  18.175 -1.3100 -1.1005  0.6112
 1034TIP3   OH227296   4.150   7.604  18.791  0.8873  0.2655 -0.3917
 1034TIP3    H127297   4.240   7.630  18.775  0.7312 -0.5100 -2.9499
 1034TIP3    H227298   4.153   7.509  18.803  0.2790 -0.0609 -2.4002
 1035TIP3   OH227299   7.335   4.136  17.315 -0.2233 -0.0524 -0.7495
 1035TIP3    H127300   7.336   4.153  17.220  0.8887 -1.5951 -1.0580
 1035TIP3    H227301   7.339   4.223  17.355 -1.0488  0.6424 -2.1104
 1036TIP3   OH227302   2.871   1.137  17.308 -0.2419 -0.1731  0.3818
 1036TIP3    H127303   2.777   1.140  17.326  0.2052 -0.3569  3.1799
 1036TIP3    H227304   2.895   1.045  17.319  0.2752 -0.1583 -0.4872
 1037TIP3   OH227305   7.136   4.552  17.742  0.1526 -0.2681  0.0583
 1037TIP3    H127306   7.209   4.511  17.695 -0.1247  0.2164 -0.8342
 1037TIP3    H227307   7.060   4.536  17.686 -0.7382 -2.0319  1.6675
 1038TIP3   OH227308   0.245   6.472  17.819 -0.1884  0.3777 -0.0991
 1038TIP3    H127309   0.177   6.433  17.764  0.5668 -1.4197  0.1978
 1038TIP3    H227310   0.263   6.556  17.778 -1.8244  0.4278 -0.7934
 1039TIP3   OH227311   3.818   7.455  18.834 -0.1267 -0.0418 -0.4302
 1039TIP3    H127312   3.825   7.534  18.887 -0.2179 -0.1078 -0.3178
 1039TIP3    H227313   3.740   7.410  18.867  0.1182 -0.3497 -0.2513
 1040TIP3   OH227314   2.006   4.743  19.133 -0.3243 -0.1554  0.1953
 1040TIP3    H127315   1.939   4.756  19.066 -1.2256 -0.5021  0.9927
 1040TIP3    H227316   2.080   4.705  19.087 -1.1388 -0.9249 -0.5122
 1041TIP3   OH227317   0.529   2.187  18.391 -0.4383  0.6422 -0.5388
 1041TIP3    H127318   0.445   2.163  18.353 -0.0932 -0.0934 -0.8507
 1041TIP3    H227319   0.594   2.143  18.337  0.1162  0.6136  0.1329
 1042TIP3   OH227320   2.120   0.378  16.930 -0.5109  0.2718 -0.4649
 1042TIP3    H127321   2.064   0.344  17.000  0.5869  1.5396  1.0869
 1042TIP3    H227322   2.068   0.447  16.890 -1.4849 -1.0176 -1.5417
 1043TIP3   OH227323   0.859   6.179  16.894  0.3110 -0.3197 -0.0837
 1043TIP3    H127324   0.836   6.087  16.906  1.4431 -0.5453  0.4349
 1043TIP3    H227325   0.840   6.220  16.978 -1.2718  0.1911 -0.6412
 1044TIP3   OH227326   6.834   0.653  19.495 -0.9802  0.4730 -0.0075
 1044TIP3    H127327   6.829   0.566  19.456  2.9615  0.4867 -0.9246
 1044TIP3    H227328   6.826   0.639  19.589 -2.8863 -0.4780 -0.2557
 1045TIP3   OH227329   3.658   4.729  17.961 -0.1486  0.5360 -0.2742
 1045TIP3    H127330   3.618   4.644  17.978  0.6066  0.3381  0.6454
 1045TIP3    H227331   3.626   4.755  17.875 -1.5479  0.0037  0.0658
 1046TIP3   OH227332   4.791   2.981  17.482  0.0994 -0.1259  0.1176
 1046TIP3    H127333   4.763   2.922  17.552  0.7595  0.5462  0.9709
 1046TIP3    H227334   4.885   2.968  17.477  0.1534  0.3577 -0.1463
 1047TIP3   OH227335   2.938   4.848  19.516  0.3588  0.4818 -0.4211
 1047TIP3    H127336   2.919   4.763  19.556  1.4798  1.0057  1.3333
 1047TIP3    H227337   2.858   4.899  19.529 -0.0554 -0.0468 -0.8279
 1048TIP3   OH227338   2.779   4.411  18.976  0.1766 -0.1449 -0.0429
 1048TIP3    H127339   2.693   4.424  19.015 -0.3133 -2.5426 -0.2319
 1048TIP3    H227340   2.810   4.328  19.011  0.9635 -0.9817 -2.5062
 1049TIP3   OH227341   1.136   5.027  16.801 -0.6428  0.2088 -0.1682
 1049TIP3    H127342   1.135   4.933  16.819 -1.1087 -0.2452 -2.2917
 1049TIP3    H227343   1.043   5.050  16.790 -0.6586  1.2511  1.6917
 1050TIP3   OH227344   2.737   3.948  19.387  0.2199  0.2423 -0.2438
 1050TIP3    H127345   2.686   3.932  19.308  0.2565  0.7396 -0.3723
 1050TIP3    H227346   2.675   3.986  19.450  0.4423  0.9328 -0.4310
 1051TIP3   OH227347   4.408   4.596  18.186 -0.0543 -0.9486  0.3311
 1051TIP3    H127348   4.462   4.583  18.108 -0.4524  1.2550 -0.4029
 1051TIP3    H227349   4.444   4.675  18.227 -1.1872 -0.8382  1.1725
 1052TIP3   OH227350   7.554   2.370  18.124 -0.1930 -0.3711  0.2304
 1052TIP3    H127351   7.627   2.309  18.117 -1.4480 -2.0873  1.2993
 1052TIP3    H227352   7.524   2.363  18.214 -1.1137  0.9836  0.0699
 1053TIP3   OH227353   0.086   7.602  17.921  0.2976 -0.2508  0.4356
 1053TIP3    H127354   0.124   7.661  17.986 -0.1299 -0.5732  0.9858
 1053TIP3    H227355   0.161   7.564  17.876  0.5750  1.2682 -0.4484
 1054TIP3   OH227356   6.557   4.262  18.730  0.2488  0.5019 -0.4679
 1054TIP3    H127357   6.652   4.268  18.721  0.6828 -0.9734  1.9738
 1054TIP3    H227358   6.529   4.351  18.751  1.5751  0.4737  1.7471
 1055TIP3   OH227359   4.027   3.033  17.841 -0.5153 -0.5062  0.2541
 1055TIP3    H127360   4.078   3.104  17.882 -0.8351  1.4745 -2.4799
 1055TIP3    H227361   3.989   2.985  17.915  1.3176  0.9600  2.2780
 1056TIP3   OH227362   7.429   3.916  18.443  0.9345  0.2207 -0.1445
 1056TIP3    H127363   7.388   3.904  18.357 -0.2486  0.6833  0.3442
 1056TIP3    H227364   7.504   3.856  18.441 -0.1440 -1.1820 -0.8114
 1057TIP3   OH227365   1.632   3.531  18.159 -0.2068  0.5940  0.7107
 1057TIP3    H127366   1.581   3.578  18.093 -0.5531 -0.1090  0.4734
 1057TIP3    H227367   1.692   3.597  18.194  0.0763  0.9455 -0.3945
 1058TIP3   OH227368   1.432   0.417  17.132  0.2078  0.0470 -0.0107
 1058TIP3    H127369   1.454   0.434  17.040  0.2212  2.6280  0.3919
 1058TIP3    H227370   1.349   0.462  17.146  0.4372  0.0935  1.3567
 1059TIP3   OH227371   6.602   5.868  19.035  0.1926 -0.0961 -0.0059
 1059TIP3    H127372   6.586   5.930  18.964  1.2386  0.1108 -0.0825
 1059TIP3    H227373   6.542   5.894  19.105 -1.5547 -0.8980 -1.1482
 1060TIP3   OH227374   6.585   0.863  19.101  0.0943  0.1033 -0.1212
 1060TIP3    H127375   6.547   0.935  19.050  0.1607  0.7380  0.7117
 1060TIP3    H227376   6.636   0.813  19.037 -0.8263  0.1659 -0.9291
 1061TIP3   OH227377   5.238   1.625  18.967 -0.2068  0.2820  0.1676
 1061TIP3    H127378   5.160   1.657  19.013 -1.0222 -0.7253 -0.4765
 1061TIP3    H227379   5.205   1.590  18.884  0.7162 -1.5866  0.5333
 1062TIP3   OH227380   2.877   0.834  17.976  0.2655  0.0424 -0.0151
 1062TIP3    H127381   2.932   0.911  17.959  1.7938 -1.6344 -3.5800
 1062TIP3    H227382   2.799   0.849  17.922 -0.5778  0.1253  1.1824
 1063TIP3   OH227383   6.231   5.699  18.644 -0.0605  0.1337 -0.2175
 1063TIP3    H127384   6.273   5.619  18.676  2.1122  0.2152 -2.5332
 1063TIP3    H227385   6.215   5.751  18.722  1.5927 -1.1550  1.0548
 1064TIP3   OH227386   3.331   5.248  17.553  0.1485  0.1050  0.1823
 1064TIP3    H127387   3.258   5.233  17.613  0.6082 -1.7660  0.3384
 1064TIP3    H227388   3.290   5.257  17.467 -0.3495  0.2456  0.4329
 1065TIP3   OH227389   6.671   5.360  17.645  0.2605 -0.0930 -0.0276
 1065TIP3    H127390   6.644   5.270  17.660  0.4508 -0.0090  0.8738
 1065TIP3    H227391   6.728   5.355  17.568  0.3328 -0.7507  0.0640
 1066TIP3   OH227392   1.264   4.868  17.138  0.5105  0.2445 -0.1100
 1066TIP3    H127393   1.194   4.854  17.201  1.4720  0.1929  0.9880
 1066TIP3    H227394   1.227   4.927  17.072 -0.6029  0.0624  0.3372
 1067TIP3   OH227395   4.714   2.619  17.432  0.0172  0.0368  0.3847
 1067TIP3    H127396   4.729   2.670  17.352 -0.6069 -1.6817 -0.8755
 1067TIP3    H227397   4.789   2.561  17.438 -0.4845 -0.6159  0.4335
 1068TIP3   OH227398   1.211   6.296  16.549 -0.1299  0.2667  0.3702
 1068TIP3    H127399   1.292   6.250  16.571 -0.5569 -0.4078  0.5568
 1068TIP3    H227400   1.160   6.233  16.500 -0.4858  0.7409  0.1268
 1069TIP3   OH227401   7.425   2.355  17.520  0.5283 -0.6967  0.0312
 1069TIP3    H127402   7.438   2.444  17.551 -1.5935 -0.4990  0.5083
 1069TIP3    H227403   7.452   2.300  17.594  3.7271 -0.6128 -0.9412
 1070TIP3   OH227404   1.802   3.304  18.182  0.1032  0.3297 -0.3527
 1070TIP3    H127405   1.838   3.385  18.144  0.3640  0.6134  0.4736
 1070TIP3    H227406   1.709   3.308  18.162  0.6791 -1.5852 -4.7260
 1071TIP3   OH227407   0.338   0.888  18.695 -0.5606  0.1906  0.1343
 1071TIP3    H127408   0.293   0.831  18.633  0.5601 -3.1091  2.0964
 1071TIP3    H227409   0.394   0.943  18.640 -2.3960  0.1135 -1.9390
 1072TIP3   OH227410   2.522   5.100  16.650  0.4445  0.8787  0.8385
 1072TIP3    H127411   2.452   5.101  16.716  0.9228 -0.1484  1.3893
 1072TIP3    H227412   2.500   5.027  16.592  0.7970  0.8486  0.7388
 1073TIP3   OH227413   1.149   3.899  18.620  0.2441  0.3309  0.3136
 1073TIP3    H127414   1.071   3.885  18.673 -0.0225  1.3181  0.2135
 1073TIP3    H227415   1.173   3.812  18.587 -0.5195 -0.0485  0.7514
 1074TIP3   OH227416   1.199   6.695  17.274 -0.3048 -0.0215  0.3805
 1074TIP3    H127417   1.144   6.761  17.316 -2.0563 -0.7741 -0.6168
 1074TIP3    H227418   1.286   6.734  17.273 -0.6484  0.9531  2.6046
 1075TIP3   OH227419   5.287   6.095  17.780 -0.1731  0.0219 -0.2559
 1075TIP3    H127420   5.313   6.096  17.873  0.0637 -0.3013 -0.3158
 1075TIP3    H227421   5.345   6.030  17.740 -1.6372 -1.3620 -0.2210
 1076TIP3   OH227422   2.245   6.646  17.767  0.2238  0.2821 -0.4244
 1076TIP3    H127423   2.262   6.718  17.706  0.5398  3.2477  2.8641
 1076TIP3    H227424   2.330   6.628  17.806 -0.1740 -0.7524 -0.0103
 1077TIP3   OH227425   2.688   1.685  18.747 -0.2050  0.1242  0.1882
 1077TIP3    H127426   2.662   1.744  18.817 -0.4887 -0.3888  0.5183
 1077TIP3    H227427   2.606   1.665  18.701  0.0274  0.7481 -0.5275
 1078TIP3   OH227428   5.540   5.121  18.867  0.8206  0.6974  0.2719
 1078TIP3    H127429   5.590   5.044  18.892  1.3279  0.0425 -2.5016
 1078TIP3    H227430   5.465   5.121  18.927  1.4824 -1.1801  1.1755
 1079TIP3   OH227431   4.795   7.489  16.393  0.6962  0.1149  0.2419
 1079TIP3    H127432   4.720   7.440  16.361  2.1136 -0.5573 -2.3317
 1079TIP3    H227433   4.787   7.575  16.352  1.3013  0.0445 -0.0313
 1080TIP3   OH227434   0.714   2.980  17.085  0.0731 -0.0326 -0.1627
 1080TIP3    H127435   0.619   2.988  17.094  0.1300  0.4968 -0.0048
 1080TIP3    H227436   0.748   3.061  17.123  0.5379  0.3058 -1.2665
 1081TIP3   OH227437   0.002   7.009  17.215  0.1390  0.1948  0.0613
 1081TIP3    H127438   0.034   7.023  17.304  0.7382  0.2773 -0.1631
 1081TIP3    H227439  -0.073   7.068  17.207 -0.5978 -0.6024  0.8630
 1082TIP3   OH227440   2.057   0.464  18.942 -0.1513  0.3988  0.1428
 1082TIP3    H127441   2.104   0.546  18.929 -1.1145  1.0376  0.5768
 1082TIP3    H227442   2.125   0.401  18.965  1.0539  0.2984 -3.0806
 1083TIP3   OH227443   7.446   2.815  19.528  0.0130 -0.4456  0.1781
 1083TIP3    H127444   7.409   2.887  19.578 -3.2166 -2.1892  0.5594
 1083TIP3    H227445   7.499   2.857  19.460 -0.0895  2.1449  1.5922
 1084TIP3   OH227446   3.358   6.139  19.271 -0.6309  0.1979  0.5893
 1084TIP3    H127447   3.310   6.132  19.189  0.4591 -0.5593 -0.0069
 1084TIP3    H227448   3.307   6.085  19.332 -1.6188  1.0162  0.5318
 1085TIP3   OH227449   6.260   1.274  16.677 -0.0211  0.2766 -0.0738
 1085TIP3    H127450   6.176   1.251  16.717  0.8115 -0.8829  1.1116
 1085TIP3    H227451   6.285   1.196  16.627 -0.4853  1.2819 -1.9983
 1086TIP3   OH227452   4.363   2.999  19.690 -0.1932 -0.2794  0.8180
 1086TIP3    H127453   4.417   2.923  19.669  2.5352  1.5110  0.8257
 1086TIP3    H227454   4.422   3.074  19.680 -2.8119  1.8973  0.5456
 1087TIP3   OH227455   0.357   1.939  17.930 -0.2795  0.1327  0.2175
 1087TIP3    H127456   0.285   1.981  17.977  0.1278  3.0894 -1.5566
 1087TIP3    H227457   0.317   1.908  17.849 -0.4927 -2.8455  1.3367
 1088TIP3   OH227458   3.428   6.311  16.950  0.1263 -0.0714 -0.2098
 1088TIP3    H127459   3.344   6.346  16.919  0.7111  1.4161 -0.1928
 1088TIP3    H227460   3.451   6.244  16.886  0.1613  1.3094 -1.7167
 1089TIP3   OH227461   0.290   4.980  18.671  0.2723 -0.4991 -0.0498
 1089TIP3    H127462   0.290   4.951  18.762  2.0548  0.0893  0.1838
 1089TIP3    H227463   0.351   4.921  18.627  2.4972  1.5816  0.0288
 1090TIP3   OH227464   0.653   6.684  16.913 -0.4124 -0.1281  0.2222
 1090TIP3    H127465   0.669   6.631  16.834  0.2499 -0.7288  0.7463
 1090TIP3    H227466   0.587   6.748  16.886 -1.1643 -1.1679 -0.4481
 1091TIP3   OH227467   5.261   4.739  19.455  0.0769 -0.6397 -0.0264
 1091TIP3    H127468   5.200   4.813  19.465  1.5744  0.8343 -1.1863
 1091TIP3    H227469   5.252   4.713  19.364  0.2431 -1.2686  0.1338
 1092TIP3   OH227470   4.869   3.929  18.412  0.3945 -0.0258  0.0382
 1092TIP3    H127471   4.780   3.958  18.431  1.2759  2.3544  1.0396
 1092TIP3    H227472   4.896   3.880  18.489  1.1638  2.5663  1.5487
 1093TIP3   OH227473   2.373   3.267  18.452  0.0258  0.1827 -0.0174
 1093TIP3    H127474   2.362   3.351  18.495 -1.1106  0.3355 -0.5655
 1093TIP3    H227475   2.464   3.266  18.422  0.7927  0.1633  2.1342
 1094TIP3   OH227476   6.711   0.158  19.571 -0.1831  0.0759 -0.2283
 1094TIP3    H127477   6.746   0.076  19.536 -0.4427  0.0046 -0.3214
 1094TIP3    H227478   6.624   0.166  19.532 -0.4806 -0.0101  0.4129
 1095TIP3   OH227479   1.503   4.769  17.701 -0.0792 -0.4122 -0.5518
 1095TIP3    H127480   1.494   4.863  17.684  0.8554 -0.2552 -0.2262
 1095TIP3    H227481   1.579   4.762  17.757  0.0353 -1.4024 -0.8134
 1096TIP3   OH227482   3.877   5.027  19.497  0.3896 -0.5658 -0.3112
 1096TIP3    H127483   3.948   4.968  19.474  1.3273 -0.3124  1.7305
 1096TIP3    H227484   3.892   5.105  19.444  0.2684 -1.3725 -1.5746
 1097TIP3   OH227485   6.374   2.814  18.746 -0.0129 -0.7417 -0.8504
 1097TIP3    H127486   6.326   2.894  18.723  0.2702 -0.8291 -1.7723
 1097TIP3    H227487   6.450   2.815  18.689  0.0226 -1.6434 -0.8257
 1098TIP3   OH227488   5.802   0.308  17.065  0.1122  0.0683  0.1572
 1098TIP3    H127489   5.827   0.394  17.034 -1.2600  0.3794 -0.1609
 1098TIP3    H227490   5.833   0.304  17.155  1.6020  0.2560 -0.3260
 1099TIP3   OH227491   1.651   6.375  18.897 -0.5193  0.1750 -0.1970
 1099TIP3    H127492   1.689   6.293  18.866  1.9139  0.8222  0.9165
 1099TIP3    H227493   1.672   6.439  18.828 -2.1560  0.0017 -0.9216
 1100TIP3   OH227494   6.874   4.864  17.395 -1.0305 -0.6187 -0.6048
 1100TIP3    H127495   6.830   4.946  17.371 -1.0516 -0.6639 -0.7188
 1100TIP3    H227496   6.961   4.872  17.356 -0.3558  0.1722  0.9337
 1101TIP3   OH227497   7.091   5.666  18.394 -0.3408 -0.3310  0.0379
 1101TIP3    H127498   7.103   5.700  18.482  0.4473  0.4934 -0.3678
 1101TIP3    H227499   7.050   5.737  18.346  2.2123  0.5047 -1.0712
 1102TIP3   OH227500   4.464   6.012  18.344  1.1639 -0.5106  0.7966
 1102TIP3    H127501   4.499   6.043  18.428  0.0936  1.7062  0.5005
 1102TIP3    H227502   4.524   6.048  18.279 -0.0046  0.8780  0.4494
 1103TIP3   OH227503   6.664   1.389  18.903  0.0862  0.5342  0.7399
 1103TIP3    H127504   6.675   1.481  18.878 -0.3064  0.5677  0.6970
 1103TIP3    H227505   6.722   1.378  18.979  2.6132  0.0074 -1.1334
 1104TIP3   OH227506   7.168   6.276  18.622  0.1542 -0.2439 -1.1657
 1104TIP3    H127507   7.176   6.186  18.589 -2.1847 -0.3310 -1.7142
 1104TIP3    H227508   7.161   6.329  18.543 -0.8333  0.1098 -0.8546
 1105TIP3   OH227509   2.719   3.073  17.422  0.3351  0.1054  0.5332
 1105TIP3    H127510   2.761   3.108  17.344  0.4118 -1.6523 -0.2542
 1105TIP3    H227511   2.680   2.991  17.394  1.3437 -1.1593  2.5694
 1106TIP3   OH227512   0.485   0.062  18.365  0.3592 -0.6386  0.0034
 1106TIP3    H127513   0.517  -0.024  18.393  0.7531 -0.4796  0.0355
 1106TIP3    H227514   0.491   0.059  18.269  0.0441 -0.7735 -0.0149
 1107TIP3   OH227515   4.863   0.430  19.287  0.1558  0.4931  0.1968
 1107TIP3    H127516   4.817   0.368  19.231 -0.4983 -0.1353  1.4026
 1107TIP3    H227517   4.952   0.432  19.252 -0.0254 -0.4934 -0.3664
 1108TIP3   OH227518   4.486   3.445  17.707 -0.4467  0.6238  0.5449
 1108TIP3    H127519   4.556   3.384  17.685  0.1245  0.1431  3.2941
 1108TIP3    H227520   4.444   3.407  17.784 -1.4172  2.6774  1.1128
 1109TIP3   OH227521   4.075   0.776  17.719 -1.0122  0.3626  0.4102
 1109TIP3    H127522   4.085   0.853  17.664 -1.7375 -0.6186 -1.1555
 1109TIP3    H227523   3.981   0.771  17.737 -0.8371  0.4511  1.4588
 1110TIP3   OH227524   5.407   7.147  18.976 -0.1116  0.1925 -0.1717
 1110TIP3    H127525   5.456   7.066  18.991  0.2914  0.1785 -1.4977
 1110TIP3    H227526   5.458   7.214  19.020 -0.2209 -0.1943  0.5676
 1111TIP3   OH227527   3.389   7.420  16.896 -0.1973  0.2281 -0.1441
 1111TIP3    H127528   3.421   7.334  16.920  2.7591  1.2843  0.1132
 1111TIP3    H227529   3.390   7.421  16.801 -0.7326 -0.1650 -0.1586
 1112TIP3   OH227530   1.283   3.071  17.519  0.2924  0.3613  0.1599
 1112TIP3    H127531   1.208   3.092  17.574  0.8079  0.5600  0.7899
 1112TIP3    H227532   1.261   2.985  17.481 -1.2771  1.3866 -1.4806
 1113TIP3   OH227533   1.225   4.669  18.038  0.2268  0.2868 -0.4990
 1113TIP3    H127534   1.265   4.747  18.076 -0.1115  0.9001 -1.3515
 1113TIP3    H227535   1.133   4.692  18.026  0.2646  0.0199 -1.4047
 1114TIP3   OH227536   7.365   4.478  18.291  0.1339  0.0477 -0.1118
 1114TIP3    H127537   7.432   4.487  18.223  0.4744 -0.7804  0.0941
 1114TIP3    H227538   7.409   4.503  18.372  0.2149 -0.5153  0.0263
 1115TIP3   OH227539   3.644   0.180  16.561  0.5588 -0.3481 -0.0262
 1115TIP3    H127540   3.630   0.121  16.487 -0.4342 -0.9624  0.6067
 1115TIP3    H227541   3.736   0.169  16.584  0.9240 -0.0044 -1.2771
 1116TIP3   OH227542   6.102   3.155  18.277 -0.1027 -0.0536  0.4055
 1116TIP3    H127543   6.193   3.135  18.295  0.1389  0.1664 -0.4871
 1116TIP3    H227544   6.062   3.170  18.362  1.2992  2.4518  0.7230
 1117TIP3   OH227545   7.542   1.731  18.162 -0.2345 -0.4354 -0.5509
 1117TIP3    H127546   7.449   1.750  18.178  0.0722 -0.5221  1.7034
 1117TIP3    H227547   7.548   1.720  18.068 -2.0802  1.8042 -1.0279
 1118TIP3   OH227548   0.366   6.439  16.794 -0.8020 -0.5220  0.2640
 1118TIP3    H127549   0.459   6.438  16.816 -0.6458  1.0014 -0.2065
 1118TIP3    H227550   0.357   6.512  16.732 -2.7726  1.2787  2.4907
 1119TIP3   OH227551   0.953   0.231  19.121 -0.0840  0.4455  0.3204
 1119TIP3    H127552   0.874   0.278  19.148 -1.3232 -0.4624 -1.5759
 1119TIP3    H227553   0.950   0.230  19.025  2.1961  0.2897  0.1794
 1120TIP3   OH227554   5.248   1.007  17.713 -0.7293 -0.3228  0.3993
 1120TIP3    H127555   5.228   0.928  17.763  3.6134 -1.3132  0.9313
 1120TIP3    H227556   5.280   0.975  17.629 -1.3542  1.0290 -0.3913
 1121TIP3   OH227557   1.410   4.059  19.309 -0.2053  0.6612 -0.3916
 1121TIP3    H127558   1.458   4.139  19.285 -1.3241  1.5854  0.3135
 1121TIP3    H227559   1.320   4.089  19.322 -0.1866 -0.2002  2.4276
 1122TIP3   OH227560   4.409   0.247  19.217 -0.1035  0.6165  0.1579
 1122TIP3    H127561   4.316   0.233  19.235  0.0589 -0.6264  0.0913
 1122TIP3    H227562   4.438   0.168  19.171  0.9383  1.0715 -0.0073
 1123TIP3   OH227563   1.610   2.405  18.898  0.1873 -0.1917 -0.1608
 1123TIP3    H127564   1.657   2.395  18.981 -0.9866 -0.8925  0.4598
 1123TIP3    H227565   1.663   2.359  18.834  0.1886 -1.2720  0.5963
 1124TIP3   OH227566   0.779   6.124  18.777 -0.3719 -0.3738  0.1259
 1124TIP3    H127567   0.851   6.151  18.834  1.2257  0.3342 -2.0881
 1124TIP3    H227568   0.822   6.091  18.699 -2.4307  0.9105 -1.6609
 1125TIP3   OH227569   6.734   2.833  19.273  0.2992  0.1358  0.1700
 1125TIP3    H127570   6.694   2.845  19.360  0.2349  3.6057 -0.1962
 1125TIP3    H227571   6.820   2.795  19.291 -0.7540 -1.7778  1.4751
 1126TIP3   OH227572   3.660   4.442  16.689 -0.3734  0.0238  0.0300
 1126TIP3    H127573   3.744   4.398  16.675 -0.5777 -0.0423 -1.0741
 1126TIP3    H227574   3.596   4.370  16.689 -0.4192  0.0427  1.1532
 1127TIP3   OH227575   3.759   6.680  19.642  0.3353 -0.0183 -0.1913
 1127TIP3    H127576   3.815   6.604  19.663 -0.2541  0.3250  3.1632
 1127TIP3    H227577   3.696   6.646  19.579  0.7239 -2.0505  0.4375
 1128TIP3   OH227578   7.044   6.765  17.765 -0.3655 -0.2069 -0.1478
 1128TIP3    H127579   6.992   6.755  17.685  1.3534 -1.1757 -1.1915
 1128TIP3    H227580   6.990   6.726  17.834 -0.3020 -2.8748 -1.5001
 1129TIP3   OH227581   0.112   5.537  17.076 -0.3271  0.1293 -0.0832
 1129TIP3    H127582   0.162   5.536  17.158  0.0280  0.1967 -0.2991
 1129TIP3    H227583   0.106   5.445  17.051  0.2945  0.1735 -0.4196
 1130TIP3   OH227584   1.964   2.719  16.752 -0.4953 -0.1355  0.9415
 1130TIP3    H127585   1.963   2.811  16.777  0.6822 -0.0507  0.7349
 1130TIP3    H227586   1.891   2.709  16.690 -0.6476  0.6426  0.9942
 1131TIP3   OH227587   0.136   0.645  18.712 -0.1356  0.0093  0.2106
 1131TIP3    H127588   0.207   0.599  18.756 -0.1889  0.7909  1.1324
 1131TIP3    H227589   0.108   0.585  18.643  0.7083 -0.7500  0.5117
 1132TIP3   OH227590   1.929   3.800  18.959 -0.2651 -0.2186 -0.2790
 1132TIP3    H127591   1.875   3.878  18.971  1.0629  0.9435 -1.4760
 1132TIP3    H227592   1.870   3.737  18.918 -0.3341  1.6773 -3.4317
 1133TIP3   OH227593   6.943   3.608  19.103 -0.1469 -0.6481 -0.4066
 1133TIP3    H127594   6.927   3.550  19.028  3.1030 -0.8247 -1.1284
 1133TIP3    H227595   6.941   3.697  19.065  0.4015 -0.6687 -0.4918
 1134TIP3   OH227596   1.381   6.244  16.806 -0.0736 -0.0779  0.2501
 1134TIP3    H127597   1.378   6.280  16.717 -0.3424 -1.0974 -0.1713
 1134TIP3    H227598   1.329   6.305  16.858  1.8976  1.7526  0.2025
 1135TIP3   OH227599   2.970   2.210  17.855  0.3527  0.2432  0.7516
 1135TIP3    H127600   2.961   2.141  17.920 -0.4853 -0.5364 -0.1407
 1135TIP3    H227601   2.965   2.164  17.771 -0.3752  1.3883  0.1340
 1136TIP3   OH227602   6.315   2.406  19.424 -0.1830  0.3759 -0.2403
 1136TIP3    H127603   6.371   2.483  19.431  1.3193 -0.7584  1.0621
 1136TIP3    H227604   6.371   2.339  19.386 -0.4624 -0.9164  1.5183
 1137TIP3   OH227605   1.158   2.114  17.177 -0.1589 -0.0840 -0.1533
 1137TIP3    H127606   1.174   2.113  17.083 -0.3430  0.8008 -0.2050
 1137TIP3    H227607   1.138   2.206  17.197 -1.8464 -0.5378  0.4527
 1138TIP3   OH227608   6.768   3.182  18.062 -0.0783 -0.6777 -0.4775
 1138TIP3    H127609   6.705   3.229  18.117  0.7562  0.0671 -0.1323
 1138TIP3    H227610   6.794   3.247  17.996  3.5276  0.5639  1.8919
 1139TIP3   OH227611   0.709   6.159  17.690 -0.0683 -0.6289  0.5972
 1139TIP3    H127612   0.651   6.234  17.704 -0.0771 -0.1839 -1.5304
 1139TIP3    H227613   0.772   6.189  17.625  0.9890 -1.9483  0.9622
 1140TIP3   OH227614   3.066   3.430  17.021 -0.1103  0.7334  0.6561
 1140TIP3    H127615   3.132   3.364  17.039  0.0243  0.0942 -1.8173
 1140TIP3    H227616   3.113   3.514  17.026  0.7130  0.3430 -0.1965
 1141TIP3   OH227617   4.472   1.669  18.534 -0.5356  0.7263 -0.3823
 1141TIP3    H127618   4.404   1.734  18.521 -0.4238  1.3900  1.8940
 1141TIP3    H227619   4.463   1.609  18.460 -4.0170  0.4246  0.0936
 1142TIP3   OH227620   1.883   6.997  18.633 -0.3445 -0.0635 -0.0564
 1142TIP3    H127621   1.967   7.016  18.591 -0.2243 -2.1209 -0.8813
 1142TIP3    H227622   1.907   6.953  18.715 -0.6069 -0.3484 -0.1295
 1143TIP3   OH227623   1.123   5.924  17.158  0.0065  0.5083  0.5798
 1143TIP3    H127624   1.150   5.835  17.180 -0.6136  0.0839 -0.3183
 1143TIP3    H227625   1.073   5.915  17.077 -1.5239  1.4558  1.3722
 1144TIP3   OH227626   2.949   7.409  18.603  0.2759 -0.6325 -0.0337
 1144TIP3    H127627   3.018   7.468  18.573  0.1353 -1.2336 -1.6705
 1144TIP3    H227628   2.995   7.327  18.623  0.3375 -0.3002  1.2282
 1145TIP3   OH227629   5.456   1.406  17.749  0.2718  0.2302  0.5564
 1145TIP3    H127630   5.380   1.349  17.757  0.9504 -0.6290  1.1007
 1145TIP3    H227631   5.495   1.408  17.836  0.2637  1.5616  0.5564
 1146TIP3   OH227632   7.341   6.437  17.680  0.4106 -0.3657  0.2475
 1146TIP3    H127633   7.397   6.480  17.745 -1.3966  3.2505 -0.3092
 1146TIP3    H227634   7.262   6.413  17.728 -0.9300  2.3160 -0.3980
 1147TIP3   OH227635   3.740   3.635  18.287 -0.4944  0.1812  0.4035
 1147TIP3    H127636   3.793   3.681  18.352 -1.4439  1.2909  0.4332
 1147TIP3    H227637   3.770   3.668  18.203  0.3916 -0.8845  0.2798
 1148TIP3   OH227638   0.371   7.517  18.077  0.0451  0.2204  0.3927
 1148TIP3    H127639   0.445   7.570  18.107  1.5709 -2.1308  1.0496
 1148TIP3    H227640   0.408   7.457  18.012 -1.2312 -1.1324  0.8471
 1149TIP3   OH227641   2.553   3.626  17.950 -0.2011  0.1467 -0.0479
 1149TIP3    H127642   2.600   3.708  17.933  1.1076  0.0873  2.7385
 1149TIP3    H227643   2.568   3.574  17.871  0.2219  1.9938 -1.2604
 1150TIP3   OH227644   5.783   4.938  17.277  0.1813 -0.2126 -0.3369
 1150TIP3    H127645   5.728   4.974  17.208  0.7074  1.2843 -0.0032
 1150TIP3    H227646   5.721   4.910  17.345 -0.2227  0.4100 -0.4458
 1151TIP3   OH227647   0.803   5.459  17.385 -0.1822  0.3685  0.4802
 1151TIP3    H127648   0.787   5.553  17.387 -0.3917  0.4088 -1.3792
 1151TIP3    H227649   0.818   5.439  17.292  0.3722 -1.3491  0.8973
 1152TIP3   OH227650   1.425   7.515  17.536  0.0476  0.6460 -0.4032
 1152TIP3    H127651   1.348   7.478  17.493 -0.4731  1.9679 -0.6527
 1152TIP3    H227652   1.499   7.471  17.495 -0.5722 -1.1954  0.3702
 1153TIP3   OH227653   7.419   3.777  18.956  1.1072  0.5580  0.0837
 1153TIP3    H127654   7.364   3.702  18.979  0.4519  1.6129  2.2538
 1153TIP3    H227655   7.418   3.779  18.860  1.0852 -2.1109 -0.0519
 1154TIP3   OH227656   1.938   5.959  17.368 -0.2971 -0.0143  0.1342
 1154TIP3    H127657   1.851   5.920  17.375  0.3604 -1.2738  1.7575
 1154TIP3    H227658   1.988   5.920  17.439  1.3912  1.2771 -0.2829
 1155TIP3   OH227659   2.297   2.693  19.020  0.5048  0.6779  0.4584
 1155TIP3    H127660   2.295   2.647  19.105  0.9189 -0.6955 -0.2405
 1155TIP3    H227661   2.388   2.723  19.012  0.1721  1.9143  1.0340
 1156TIP3   OH227662   1.373   1.214  17.413 -0.0358 -0.5083 -0.2216
 1156TIP3    H127663   1.362   1.307  17.393  1.4477 -0.5468 -1.3964
 1156TIP3    H227664   1.452   1.189  17.366 -0.1717 -2.2753  0.4291
 1157TIP3   OH227665   5.821   6.059  19.034 -0.1840  0.3210 -0.2214
 1157TIP3    H127666   5.781   6.064  18.948  1.6788 -1.2142 -1.2488
 1157TIP3    H227667   5.772   5.991  19.080  0.5448 -0.8548 -1.1178
 1158TIP3   OH227668   2.895   3.317  17.584 -0.3182  0.3460  0.4501
 1158TIP3    H127669   2.911   3.241  17.640  0.2252  0.3136  0.2533
 1158TIP3    H227670   2.914   3.287  17.495 -2.1895  0.0805  0.0794
 1159TIP3   OH227671   7.044   4.465  18.886 -0.0245 -0.0675 -0.1606
 1159TIP3    H127672   6.990   4.523  18.940  0.5811  1.6542 -1.3051
 1159TIP3    H227673   7.092   4.411  18.948  0.0854  1.3231  1.0099
 1160TIP3   OH227674   1.737   0.385  17.988  0.2555  0.9761  0.4101
 1160TIP3    H127675   1.830   0.363  17.984 -0.1192 -0.5575 -0.5262
 1160TIP3    H227676   1.692   0.301  17.989 -1.2072  1.6546 -1.3642
 1161TIP3   OH227677   6.857   3.818  17.166 -0.2270 -0.5182  0.1265
 1161TIP3    H127678   6.767   3.798  17.193 -0.1031  0.8068  1.6784
 1161TIP3    H227679   6.849   3.899  17.115 -0.0825 -1.3781 -1.3362
 1162TIP3   OH227680   7.269   0.485  18.571 -0.4740  0.0546 -0.0276
 1162TIP3    H127681   7.216   0.548  18.619 -0.4505 -0.0957  0.1983
 1162TIP3    H227682   7.235   0.399  18.597  0.1626 -0.0577  0.4613
 1163TIP3   OH227683   3.308   6.464  19.193 -0.2879 -0.3162  0.1206
 1163TIP3    H127684   3.372   6.413  19.243 -0.7446 -0.9789  0.0495
 1163TIP3    H227685   3.233   6.474  19.252  0.3033  1.4599  0.6344
 1164TIP3   OH227686   7.595   4.506  18.149 -0.5311  0.3960 -0.2019
 1164TIP3    H127687   7.652   4.554  18.210 -0.7058 -0.5265  0.7056
 1164TIP3    H227688   7.654   4.481  18.077 -0.4952  2.1864 -0.8560
 1165TIP3   OH227689   2.074   4.842  18.782 -0.5590 -0.7222 -0.3484
 1165TIP3    H127690   2.079   4.938  18.781 -0.0814 -0.7330  0.3140
 1165TIP3    H227691   1.985   4.823  18.753 -0.9070 -0.0500  0.2383
 1166TIP3   OH227692   5.240   7.380  18.480 -0.5054 -0.7555  0.7215
 1166TIP3    H127693   5.169   7.394  18.542  0.1598 -0.7944  1.4970
 1166TIP3    H227694   5.320   7.389  18.531  0.0470 -1.3652 -0.0007
 1167TIP3   OH227695   3.542   5.880  16.733  0.3780 -0.6617 -0.6172
 1167TIP3    H127696   3.636   5.870  16.753 -0.0009 -1.5153  0.8875
 1167TIP3    H227697   3.526   5.815  16.665  0.8901 -0.4874 -0.9124
 1168TIP3   OH227698   3.069   7.496  17.273  0.3224  0.4205  0.3452
 1168TIP3    H127699   3.095   7.588  17.279  0.0681  0.6625 -1.5787
 1168TIP3    H227700   3.103   7.467  17.188 -2.5899 -0.2316 -0.7264
 1169TIP3   OH227701   1.290   5.945  16.795  0.0279 -0.1740 -0.1109
 1169TIP3    H127702   1.370   5.997  16.786  0.3037 -0.3525  1.1951
 1169TIP3    H227703   1.219   6.008  16.781  0.3708  0.3885  0.5867
 1170TIP3   OH227704   1.503   2.229  18.681  0.0707 -0.1591 -0.5644
 1170TIP3    H127705   1.537   2.140  18.690 -0.7008 -0.2996  1.8469
 1170TIP3    H227706   1.428   2.221  18.623  0.3174 -0.9954 -0.7748
 1171TIP3   OH227707   5.543   1.279  19.286 -0.2296  0.2785 -0.0346
 1171TIP3    H127708   5.461   1.329  19.294  0.5504  1.6898 -0.5545
 1171TIP3    H227709   5.522   1.209  19.224 -0.9166  0.9114 -0.5395
 1172TIP3   OH227710   3.356   5.191  18.864  0.4594  0.1381 -0.6370
 1172TIP3    H127711   3.381   5.250  18.793  2.8338  0.4028  0.3279
 1172TIP3    H227712   3.393   5.107  18.839  0.3504 -0.0281 -0.2429
 1173TIP3   OH227713   5.948   4.506  17.666  0.1412 -0.1942 -0.0332
 1173TIP3    H127714   5.988   4.467  17.588 -0.2671  2.1548 -1.5523
 1173TIP3    H227715   5.991   4.591  17.675 -0.8375  0.1895  1.4432
 1174TIP3   OH227716   1.180   2.656  18.048  0.3305 -0.0804 -0.3071
 1174TIP3    H127717   1.255   2.697  18.090  1.4433 -1.4411 -0.8960
 1174TIP3    H227718   1.184   2.684  17.957  1.0269 -1.3529 -0.6852
 1175TIP3   OH227719   0.101   5.574  17.396  0.2775 -0.3035 -0.2369
 1175TIP3    H127720   0.188   5.594  17.362  0.8178  1.2610  1.8203
 1175TIP3    H227721   0.113   5.496  17.450 -0.0883 -1.3537 -1.6113
 1176TIP3   OH227722   6.582   3.575  17.830  0.3204 -0.5242 -0.4077
 1176TIP3    H127723   6.645   3.505  17.814 -1.3346 -2.3235  0.6220
 1176TIP3    H227724   6.632   3.641  17.879  1.3205 -2.0833  0.7587
 1177TIP3   OH227725   5.861   4.858  16.981 -0.0888  0.5900 -0.2467
 1177TIP3    H127726   5.942   4.909  16.975 -0.7035  1.4991 -1.3659
 1177TIP3    H227727   5.822   4.885  17.064  0.9044 -0.1216  0.4718
 1178TIP3   OH227728   7.124   2.878  18.416 -0.2157 -0.1130 -0.7061
 1178TIP3    H127729   7.110   2.831  18.333 -0.7493 -0.0250 -0.6720
 1178TIP3    H227730   7.202   2.837  18.454 -1.4431 -1.9578 -0.0156
 1179TIP3   OH227731   3.465   3.833  17.420  0.2941 -0.1652 -0.0015
 1179TIP3    H127732   3.511   3.755  17.389  2.2122  0.5218  0.9753
 1179TIP3    H227733   3.509   3.906  17.377 -1.3724  0.4411 -0.7707
 1180TIP3   OH227734   2.534   1.186  18.897 -0.1040  1.1311 -0.8944
 1180TIP3    H127735   2.483   1.238  18.835 -2.5788  0.3583  0.3396
 1180TIP3    H227736   2.565   1.112  18.846 -0.6337  1.3883 -1.6075
 1181TIP3   OH227737   1.856   1.347  19.155  0.0908 -0.4998 -0.0792
 1181TIP3    H127738   1.795   1.366  19.084 -1.1227 -0.9278  0.8156
 1181TIP3    H227739   1.926   1.412  19.145  0.3095 -0.9735 -2.0503
 1182TIP3   OH227740   3.927   1.050  16.597 -0.2264  0.1154 -0.5755
 1182TIP3    H127741   3.937   0.989  16.671 -3.0463 -0.8691 -0.8742
 1182TIP3    H227742   3.864   1.006  16.539  1.0571  1.3697 -3.0468
 1183TIP3   OH227743   4.657   1.100  18.390  0.2057  0.3945 -0.1423
 1183TIP3    H127744   4.606   1.181  18.398 -0.4771 -0.1275  1.0226
 1183TIP3    H227745   4.704   1.094  18.473  2.2207  0.8782 -1.2003
 1184TIP3   OH227746   3.163   2.607  19.576  0.1758  0.1422 -0.2148
 1184TIP3    H127747   3.189   2.696  19.596  0.4360  0.6204 -2.4136
 1184TIP3    H227748   3.201   2.589  19.490 -0.3228 -1.9014 -0.0762
 1185TIP3   OH227749   4.230   6.662  19.018 -0.3847  0.2099  0.2772
 1185TIP3    H127750   4.243   6.583  18.965 -2.5370  0.0711 -0.1505
 1185TIP3    H227751   4.238   6.734  18.956  0.1127  0.2468  0.3782
 1186TIP3   OH227752   4.387   4.577  17.715 -0.1527 -0.5731  0.0099
 1186TIP3    H127753   4.428   4.644  17.661 -1.7486  1.3921  1.0723
 1186TIP3    H227754   4.304   4.559  17.672 -1.0480  0.3694  1.2690
 1187TIP3   OH227755   0.762   4.021  17.957  0.1639 -0.1854 -0.3678
 1187TIP3    H127756   0.823   4.003  17.885 -0.4727 -0.8587 -0.7433
 1187TIP3    H227757   0.819   4.051  18.028  1.0942 -2.0733 -0.2680
 1188TIP3   OH227758   0.958   6.449  18.299 -0.2139 -0.3720 -0.3596
 1188TIP3    H127759   0.966   6.510  18.225 -1.9354  0.7309  0.3145
 1188TIP3    H227760   0.872   6.468  18.337  0.6598 -0.8343  2.0040
 1189TIP3   OH227761   4.644   5.595  18.241  0.0582  0.1869 -0.2614
 1189TIP3    H127762   4.602   5.518  18.201 -0.1707 -0.0199  0.3525
 1189TIP3    H227763   4.571   5.655  18.258  0.1362  0.2219 -0.0514
 1190TIP3   OH227764   6.838   4.437  19.594  0.1016  0.2655 -0.4196
 1190TIP3    H127765   6.783   4.510  19.623  0.4775  0.3908 -0.0115
 1190TIP3    H227766   6.787   4.395  19.525  0.0484  1.1530 -0.9376
 1191TIP3   OH227767   1.691   6.250  18.288  0.1187  0.1566  0.3664
 1191TIP3    H127768   1.679   6.257  18.194 -0.2779  1.5069  0.4972
 1191TIP3    H227769   1.786   6.241  18.300  0.2847  1.1535 -0.1159
 1192TIP3   OH227770   5.527   5.118  17.509 -0.6770 -0.1647 -0.2990
 1192TIP3    H127771   5.543   5.105  17.603  0.6639 -0.0362 -0.4831
 1192TIP3    H227772   5.471   5.044  17.485 -1.0571 -0.1916  0.6035
 1193TIP3   OH227773   4.917   1.683  19.361 -0.1678 -0.0162 -0.0782
 1193TIP3    H127774   4.996   1.738  19.358 -1.0159  1.2893  0.5098
 1193TIP3    H227775   4.923   1.637  19.444 -1.1332  1.8917  1.1251
 1194TIP3   OH227776   2.582   0.864  18.143 -0.2882 -0.7824 -0.1962
 1194TIP3    H127777   2.657   0.890  18.197 -0.0819 -1.7638  0.0069
 1194TIP3    H227778   2.618   0.799  18.083 -0.6277 -0.0768 -1.1959
 1195TIP3   OH227779   2.947   4.805  18.876 -0.1451 -0.4421  0.1204
 1195TIP3    H127780   2.899   4.866  18.820 -0.1014 -0.9458 -0.4709
 1195TIP3    H227781   3.036   4.805  18.839 -0.1724 -0.9413  0.0538
 1196TIP3   OH227782   1.927   1.108  17.699  0.8481  0.0426  0.1743
 1196TIP3    H127783   1.836   1.124  17.674  0.9666 -0.8527 -0.9155
 1196TIP3    H227784   1.920   1.066  17.785  0.2695  0.6072  0.4124
 1197TIP3   OH227785   3.514   5.751  18.232  0.4212 -0.1105 -0.3105
 1197TIP3    H127786   3.576   5.823  18.227  1.8972 -1.2700  0.5755
 1197TIP3    H227787   3.494   5.743  18.325  0.1866 -0.7735 -0.4086
 1198TIP3   OH227788   7.471   6.224  17.337 -0.4031  0.2145  0.2048
 1198TIP3    H127789   7.474   6.134  17.369  1.2242  0.4325  0.7670
 1198TIP3    H227790   7.442   6.276  17.413 -0.5261  0.2575  0.1282
 1199TIP3   OH227791   5.111   0.386  19.190  0.0937 -0.0909  0.2887
 1199TIP3    H127792   5.132   0.293  19.202  0.3922 -0.0977 -0.2474
 1199TIP3    H227793   5.191   0.424  19.154 -0.1756  0.2831  0.0812
 1200TIP3   OH227794   7.051   6.107  17.264 -0.5733 -0.7296 -0.0693
 1200TIP3    H127795   6.985   6.069  17.323  0.5853  0.9890  2.4767
 1200TIP3    H227796   7.133   6.063  17.288 -0.0192  0.2308 -0.1661
 1201TIP3   OH227797   3.638   6.702  18.240  0.0312  0.4860  0.3488
 1201TIP3    H127798   3.572   6.737  18.180  0.8641 -0.5755 -1.2477
 1201TIP3    H227799   3.596   6.706  18.327 -2.3246 -0.6218 -0.6499
 1202TIP3   OH227800   6.843   5.774  16.616  0.4341 -0.6607  0.2263
 1202TIP3    H127801   6.782   5.706  16.645  0.6876 -1.2019 -0.4908
 1202TIP3    H227802   6.819   5.791  16.525  0.1823  0.4317  0.4828
 1203TIP3   OH227803   5.547   6.555  18.321 -0.1833 -0.3818 -0.0472
 1203TIP3    H127804   5.519   6.492  18.254  0.7877 -0.4827 -0.3704
 1203TIP3    H227805   5.617   6.509  18.369 -0.1624  0.0765  0.3672
 1204TIP3   OH227806   3.237   1.468  18.775 -0.0472 -0.0499  0.2658
 1204TIP3    H127807   3.259   1.427  18.859  1.3498  0.9005  0.4184
 1204TIP3    H227808   3.142   1.476  18.775 -0.1951 -1.5947  1.0125
 1205TIP3   OH227809   6.903   3.900  18.969 -0.6486  0.1181 -0.0909
 1205TIP3    H127810   6.964   3.878  18.899  0.5891 -0.9344  1.2495
 1205TIP3    H227811   6.825   3.933  18.924  0.1548 -0.3916 -1.9323
 1206TIP3   OH227812   2.539   6.233  17.341  0.1926  0.0333  0.0713
 1206TIP3    H127813   2.498   6.294  17.401  0.0471  1.6566 -1.5699
 1206TIP3    H227814   2.575   6.288  17.271 -0.7505 -1.7998 -1.9951
 1207TIP3   OH227815   5.895   1.358  17.570  0.0229  0.0254  0.1258
 1207TIP3    H127816   5.811   1.353  17.525  0.7894 -0.3192 -1.3090
 1207TIP3    H227817   5.872   1.367  17.663 -1.5845  0.1627 -0.2627
 1208TIP3   OH227818   0.676   2.460  17.736  0.3501 -0.1822 -0.1684
 1208TIP3    H127819   0.682   2.554  17.717 -1.0704  0.1682  0.9285
 1208TIP3    H227820   0.735   2.447  17.810 -1.7998  0.5541  1.8034
 1209TIP3   OH227821   2.004   2.454  17.552 -0.2188  0.0659  0.1223
 1209TIP3    H127822   1.966   2.456  17.639 -3.7614  0.3870 -1.2648
 1209TIP3    H227823   2.001   2.362  17.526  0.0193  0.0821  0.0373
 1210TIP3   OH227824   7.570   6.329  17.931  0.0146  0.2025 -0.2170
 1210TIP3    H127825   7.579   6.416  17.892 -0.2119  0.5722  0.5281
 1210TIP3    H227826   7.503   6.340  17.999  1.5910  0.0329  1.4665
 1211TIP3   OH227827   0.795   5.343  17.109 -0.0508 -0.5949 -0.4142
 1211TIP3    H127828   0.708   5.383  17.106 -0.2362 -0.7154  1.8119
 1211TIP3    H227829   0.817   5.326  17.017 -1.1042  2.1136 -1.2555
 1212TIP3   OH227830   7.404   4.180  18.366 -0.0708  0.5786  0.0890
 1212TIP3    H127831   7.441   4.159  18.280 -0.3261 -0.4557  0.2160
 1212TIP3    H227832   7.436   4.110  18.423  0.8412  1.7503  1.0631
 1213TIP3   OH227833   4.518   2.241  17.542 -0.0671 -0.1878  0.4265
 1213TIP3    H127834   4.425   2.262  17.541  0.0910  0.5349  0.2687
 1213TIP3    H227835   4.530   2.185  17.618 -0.8087 -1.1226 -0.1281
 1214TIP3   OH227836   0.960   3.525  17.224 -0.4318  0.0519 -0.6187
 1214TIP3    H127837   1.021   3.491  17.290 -1.0388 -0.3211 -0.2388
 1214TIP3    H227838   0.998   3.608  17.196 -0.4454  0.4835  0.6016
 1215TIP3   OH227839   4.849   4.694  19.334  0.7568 -0.1341  0.1360
 1215TIP3    H127840   4.839   4.758  19.263 -2.1351 -2.4561 -1.8482
 1215TIP3    H227841   4.759   4.679  19.364  1.2623 -3.2170  0.4064
 1216TIP3   OH227842   1.334   2.059  18.532  0.0095  0.5400 -0.0898
 1216TIP3    H127843   1.367   1.971  18.514  0.2950  0.3735  1.1659
 1216TIP3    H227844   1.286   2.050  18.615  0.6696  1.7126  0.4349
 1217TIP3   OH227845   0.301   6.059  16.687  0.9475  0.5896 -0.3365
 1217TIP3    H127846   0.376   6.065  16.746  1.5660  2.4148 -1.2277
 1217TIP3    H227847   0.237   6.121  16.722  0.8953  0.9120 -0.9873
 1218TIP3   OH227848   6.047   3.788  18.790  0.4539 -0.2428 -0.1580
 1218TIP3    H127849   6.126   3.806  18.739  2.5294 -3.5680  1.4806
 1218TIP3    H227850   6.080   3.771  18.879 -2.2991 -0.4995  0.9050
 1219TIP3   OH227851   3.170   1.542  17.503 -0.5646 -0.0774 -0.0514
 1219TIP3    H127852   3.199   1.555  17.413 -1.2971 -0.5828 -0.3759
 1219TIP3    H227853   3.116   1.463  17.499 -0.7526  0.0009  0.7966
 1220TIP3   OH227854   3.159   4.589  19.041 -0.8398 -0.4008 -0.7374
 1220TIP3    H127855   3.245   4.581  19.001  0.0262 -1.0651  1.1592
 1220TIP3    H227856   3.141   4.683  19.041  1.4376  0.1416  1.8292
 1221TIP3   OH227857   3.139   5.202  17.748 -0.1447 -0.4346 -0.5992
 1221TIP3    H127858   3.155   5.115  17.784  1.7714  0.2730  0.3806
 1221TIP3    H227859   3.186   5.262  17.807 -1.3393  1.2739 -1.2874
 1222TIP3   OH227860   3.454   7.365  19.304 -0.3013  0.9660  0.0548
 1222TIP3    H127861   3.438   7.391  19.213  0.7343  0.8164 -0.1836
 1222TIP3    H227862   3.384   7.303  19.324  1.0558 -1.2482 -1.6155
 1223TIP3   OH227863   2.602   0.015  18.085 -0.4289 -0.2088 -0.1902
 1223TIP3    H127864   2.669  -0.044  18.051 -0.4944 -0.0919 -0.5327
 1223TIP3    H227865   2.543   0.028  18.010 -1.3081 -0.9911  0.3466
 1224TIP3   OH227866   2.394   0.016  18.328  0.1513  0.8237 -0.4545
 1224TIP3    H127867   2.422   0.025  18.237  3.1265  0.8316  0.3560
 1224TIP3    H227868   2.407  -0.077  18.349 -1.5214  0.5909 -0.2740
 1225TIP3   OH227869   0.815   0.444  18.008 -0.4992  0.4094 -0.1843
 1225TIP3    H127870   0.865   0.521  17.981  1.3824 -1.0920 -1.1783
 1225TIP3    H227871   0.735   0.448  17.955 -0.3398  1.5583 -0.3609
 1226TIP3   OH227872   5.024   4.876  19.398 -0.0094 -0.6734  0.8062
 1226TIP3    H127873   4.963   4.804  19.382 -0.0018 -1.4849  3.7939
 1226TIP3    H227874   4.973   4.943  19.443 -0.2434  1.7862 -2.6782
 1227TIP3   OH227875   5.701   0.624  18.244  0.4247  0.1181  0.0846
 1227TIP3    H127876   5.673   0.686  18.176  2.9025  1.2594 -0.0443
 1227TIP3    H227877   5.698   0.539  18.201  0.6451  0.6524 -1.0516
 1228TIP3   OH227878   5.729   4.137  18.629 -0.4552  0.5773  0.1093
 1228TIP3    H127879   5.733   4.109  18.721 -1.0009 -1.1755 -0.3547
 1228TIP3    H227880   5.704   4.058  18.582 -1.1206  1.6849 -1.4540
 1229TIP3   OH227881   3.088   7.471  19.398 -0.1969 -0.1139  0.0666
 1229TIP3    H127882   3.115   7.498  19.310  2.3908 -0.2557  0.7558
 1229TIP3    H227883   3.093   7.375  19.396 -0.9308 -0.1634  0.1707
 1230TIP3   OH227884   0.192   6.741  19.208 -0.7217 -0.3515  0.2621
 1230TIP3    H127885   0.219   6.679  19.140 -0.4612  1.1266 -1.0297
 1230TIP3    H227886   0.269   6.796  19.221 -1.6799  1.1860 -0.3410
 1231TIP3   OH227887   3.905   2.946  18.160 -0.6709 -0.4931  0.2961
 1231TIP3    H127888   3.922   3.000  18.237 -0.2943  0.7026 -0.5910
 1231TIP3    H227889   3.842   2.880  18.190 -0.3307 -0.2147  1.6805
 1232TIP3   OH227890   5.941   2.290  17.879  0.1329  0.3422  0.0539
 1232TIP3    H127891   5.871   2.331  17.929  0.6247  3.1809 -1.4086
 1232TIP3    H227892   5.901   2.268  17.795  0.3318 -0.6501  0.2016
 1233TIP3   OH227893   1.987   5.112  16.890  0.1107 -0.1051 -0.0223
 1233TIP3    H127894   1.946   5.113  16.803 -0.3806  2.3596  0.1559
 1233TIP3    H227895   1.915   5.132  16.950  1.0896  2.0879  0.5122
 1234TIP3   OH227896   3.902   5.985  19.275 -0.1888 -0.1989  0.0397
 1234TIP3    H127897   3.954   5.930  19.217 -1.4785 -1.6170  0.1824
 1234TIP3    H227898   3.905   6.072  19.235 -1.6124 -1.2629 -2.5875
 1235TIP3   OH227899   3.755   0.767  18.052 -0.1582  0.1955 -0.1551
 1235TIP3    H127900   3.767   0.767  17.957 -1.1036 -0.5484 -0.2878
 1235TIP3    H227901   3.843   0.774  18.088  0.1451  1.4539 -1.0837
 1236TIP3   OH227902   2.938   7.351  17.632  0.3308  0.0285  0.0046
 1236TIP3    H127903   2.890   7.404  17.569 -0.5222 -0.5631  0.1379
 1236TIP3    H227904   2.870   7.315  17.690  1.0010 -0.2460  0.6388
 1237TIP3   OH227905   4.140   4.546  18.122 -0.3798 -0.1855  0.1139
 1237TIP3    H127906   4.226   4.575  18.153 -1.6327  1.4717  2.3959
 1237TIP3    H227907   4.156   4.512  18.034  2.5068  0.5091  0.2717
 1238TIP3   OH227908   7.383   5.080  16.675  0.1886 -0.1279 -0.1054
 1238TIP3    H127909   7.474   5.108  16.672  0.5904 -0.5995  3.3063
 1238TIP3    H227910   7.388   4.984  16.684 -0.6386 -0.1857 -0.1863
 1239TIP3   OH227911   6.123   0.000  19.253  0.5996 -0.5041  0.1902
 1239TIP3    H127912   6.128  -0.087  19.214  0.6555  0.6919 -2.7833
 1239TIP3    H227913   6.031   0.010  19.278  0.6449 -1.4709  0.7942
 1240TIP3   OH227914   0.950   6.587  17.666  0.0339  0.4003 -0.3666
 1240TIP3    H127915   0.942   6.502  17.622  0.1204 -0.7042  1.6127
 1240TIP3    H227916   0.919   6.571  17.755  1.4346  2.0757  0.4951
 1241TIP3   OH227917   1.461   7.449  18.641  0.4583 -0.1888 -0.1239
 1241TIP3    H127918   1.495   7.507  18.574  0.8592  0.6515  0.7778
 1241TIP3    H227919   1.456   7.503  18.720  0.6423 -1.3150  0.6983
 1242TIP3   OH227920   2.059   1.562  18.302 -0.2816  0.1632 -0.0845
 1242TIP3    H127921   2.086   1.572  18.211  1.2558 -1.8968  0.0908
 1242TIP3    H227922   1.965   1.543  18.298 -0.0820 -0.6037 -1.2904
 1243TIP3   OH227923   1.599   5.638  18.674  0.6787 -0.5591 -0.6519
 1243TIP3    H127924   1.685   5.671  18.700  0.3308 -0.0675 -0.0938
 1243TIP3    H227925   1.617   5.560  18.622  1.4097 -1.3197  0.6959
 1244TIP3   OH227926   1.139   7.530  18.667 -0.3016  0.0209 -0.3968
 1244TIP3    H127927   1.202   7.565  18.730 -1.7121  1.5135  0.2634
 1244TIP3    H227928   1.193   7.503  18.592  1.1799  0.5436  0.4359
 1245TIP3   OH227929   5.899   1.721  18.868 -0.5198 -0.0043  0.0271
 1245TIP3    H127930   5.852   1.780  18.926 -0.6446 -0.9845  0.9514
 1245TIP3    H227931   5.984   1.762  18.854 -0.9950  0.9200 -0.2445
 1246TIP3   OH227932   7.416   4.806  16.713 -0.0219 -0.4796  0.4374
 1246TIP3    H127933   7.460   4.735  16.666 -0.3653 -1.2378  1.2505
 1246TIP3    H227934   7.344   4.764  16.759 -1.9426  0.7935 -1.2042
 1247TIP3   OH227935   3.617   0.244  18.185 -0.0195 -0.2264  0.2852
 1247TIP3    H127936   3.624   0.254  18.090 -0.1035 -2.0322  0.0449
 1247TIP3    H227937   3.704   0.212  18.211  0.2722  1.0630  0.9606
 1248TIP3   OH227938   5.034   7.294  18.660  0.4861 -0.3422  0.7470
 1248TIP3    H127939   4.975   7.240  18.607 -0.0536 -1.3763  2.3341
 1248TIP3    H227940   5.106   7.234  18.682 -0.2588 -0.5547  2.7673
 1249TIP3   OH227941   0.940   4.317  16.883 -0.3721  0.0100 -0.4521
 1249TIP3    H127942   0.941   4.236  16.832 -1.5573 -0.7952  0.7185
 1249TIP3    H227943   0.870   4.369  16.844  1.4086  1.2203 -2.2088
 1250TIP3   OH227944   3.184   2.523  18.619  0.5357  0.5810 -0.0970
 1250TIP3    H127945   3.256   2.484  18.569 -0.8864 -1.8403 -0.4271
 1250TIP3    H227946   3.176   2.612  18.583  0.4953 -0.5609 -3.2655
 1251TIP3   OH227947   7.456   7.383  18.697  0.0963 -0.0077 -0.5420
 1251TIP3    H127948   7.514   7.312  18.671 -0.7309 -0.4493 -1.2351
 1251TIP3    H227949   7.391   7.341  18.754  0.7396  0.5770  0.6475
 1252TIP3   OH227950   0.876   3.868  18.245 -0.5721 -1.2045  0.1684
 1252TIP3    H127951   0.816   3.841  18.176 -0.4535 -1.2881  0.0984
 1252TIP3    H227952   0.956   3.818  18.229  0.5239  0.8818 -1.4018
 1253TIP3   OH227953   0.617   7.091  16.427 -0.2443  0.4996 -0.3814
 1253TIP3    H127954   0.550   7.091  16.358  0.0493 -1.4740 -0.7121
 1253TIP3    H227955   0.570   7.065  16.506  0.0209 -0.5067 -0.5369
 1254TIP3   OH227956   0.689   7.522  17.618  0.0546  0.2911  0.3630
 1254TIP3    H127957   0.706   7.473  17.698  1.6105  1.2484  0.6434
 1254TIP3    H227958   0.775   7.554  17.590 -0.3285 -0.5905 -2.0683
 1255TIP3   OH227959   1.744   3.917  18.195  0.0322 -0.2065 -0.3277
 1255TIP3    H127960   1.750   3.920  18.100 -4.2319  0.0374 -0.7871
 1255TIP3    H227961   1.765   4.006  18.223  1.6098 -0.3513 -0.9461
 1256TIP3   OH227962   7.208   1.773  18.740  0.2410  0.2824  0.1858
 1256TIP3    H127963   7.181   1.853  18.785  0.6526  0.2979  0.4175
 1256TIP3    H227964   7.274   1.735  18.798 -0.4900 -0.6232  0.4530
 1257TIP3   OH227965   6.091   0.456  16.921 -0.1627  1.0815  0.1839
 1257TIP3    H127966   6.083   0.384  16.984  0.0225  2.3503  1.7149
 1257TIP3    H227967   6.006   0.498  16.921 -0.0779  1.2631 -0.2320
 1258TIP3   OH227968   1.045   1.465  17.822  0.0599  0.0410 -0.0256
 1258TIP3    H127969   1.119   1.525  17.829 -0.3048  0.8920 -2.5039
 1258TIP3    H227970   1.082   1.385  17.784 -0.0923  0.0305 -0.1531
 1259TIP3   OH227971   6.068   5.976  17.418  0.0015  0.3968 -1.3580
 1259TIP3    H127972   6.119   6.012  17.491 -0.4855 -0.4989 -0.5511
 1259TIP3    H227973   6.123   5.906  17.384 -0.2492  0.0893 -1.1336
 1260TIP3   OH227974   4.669   3.228  17.653 -0.3037  0.1833  0.0680
 1260TIP3    H127975   4.637   3.162  17.714 -1.5408  1.2596  0.6277
 1260TIP3    H227976   4.764   3.228  17.665 -0.3493 -1.0075  0.5376
 1261TIP3   OH227977   6.572   1.999  19.048  0.5970  0.0919 -0.4210
 1261TIP3    H127978   6.561   1.933  19.117  1.3261  0.4390  0.0457
 1261TIP3    H227979   6.508   1.975  18.981 -1.7971  1.0893  1.3762
 1262TIP3   OH227980   2.409   6.294  16.754 -0.0647 -0.4044  0.0074
 1262TIP3    H127981   2.500   6.324  16.745 -0.4616  0.2420 -3.1305
 1262TIP3    H227982   2.358   6.374  16.765 -0.3574 -0.6956  0.8334
 1263TIP3   OH227983   4.247   2.600  18.243 -0.4277  0.3190 -0.6315
 1263TIP3    H127984   4.194   2.632  18.316  0.8254 -1.3575  1.1363
 1263TIP3    H227985   4.197   2.528  18.205  0.1109 -0.6563  0.4427
 1264TIP3   OH227986   0.554   0.070  18.096 -0.0548 -0.2171  0.7690
 1264TIP3    H127987   0.549   0.111  18.010  0.2132 -2.0336 -0.1653
 1264TIP3    H227988   0.634   0.106  18.135  0.7530 -0.6072 -0.4592
 1265TIP3   OH227989   0.410   5.802  18.079 -0.5601  0.0742  0.1676
 1265TIP3    H127990   0.422   5.707  18.084 -0.2663  0.0118 -1.2628
 1265TIP3    H227991   0.349   5.815  18.007 -0.5536  0.9784  0.3130
 1266TIP3   OH227992   6.417   5.424  17.531  0.6062  0.0369  0.3374
 1266TIP3    H127993   6.507   5.396  17.548  0.2348 -0.3323  1.8483
 1266TIP3    H227994   6.415   5.443  17.437  1.6912 -1.9760 -0.1373
 1267TIP3   OH227995   1.260   7.592  18.348  0.1767  0.4407 -0.1518
 1267TIP3    H127996   1.171   7.608  18.315  0.2085 -0.5965 -0.7758
 1267TIP3    H227997   1.306   7.674  18.334 -0.5675  0.8545 -0.2201
 1268TIP3   OH227998   3.108   0.484  19.260  0.0625 -0.1117  0.2443
 1268TIP3    H127999   3.100   0.543  19.334  0.3865 -1.5902  1.5041
 1268TIP3    H228000   3.073   0.533  19.186 -0.3072  1.3854  1.3714
 1269TIP3   OH228001   2.331   1.118  17.854  0.1431 -0.0879  0.2379
 1269TIP3    H128002   2.271   1.144  17.924 -0.4215 -0.4877 -0.0812
 1269TIP3    H228003   2.340   1.196  17.800  0.5998  0.2275  0.7716
 1270TIP3   OH228004   0.341   4.232  17.406  0.6925 -0.3836  0.4746
 1270TIP3    H128005   0.258   4.272  17.380  0.9817 -0.2792 -0.2969
 1270TIP3    H228006   0.336   4.228  17.502  0.1844  0.4622  0.4968
 1271TIP3   OH228007   3.619   2.292  19.666  0.1514  0.2925  0.4118
 1271TIP3    H128008   3.676   2.367  19.649 -0.4071  0.9548  1.4482
 1271TIP3    H228009   3.601   2.295  19.759  1.3411 -2.0066  0.8138
 1272TIP3   OH228010   6.101   1.697  17.869  0.4682 -0.5681  0.3184
 1272TIP3    H128011   6.020   1.729  17.830  0.3535 -0.4462  0.6509
 1272TIP3    H228012   6.170   1.753  17.832  0.1334  0.9544  1.8691
 1273TIP3   OH228013   3.766   6.971  17.286  0.2765  0.3319 -0.3241
 1273TIP3    H128014   3.684   6.925  17.299  0.5252  0.2345  1.0857
 1273TIP3    H228015   3.740   7.058  17.253 -0.2959 -0.1326 -1.1282
 1274TIP3   OH228016   7.621   2.767  18.584 -0.3564 -0.0865 -0.2532
 1274TIP3    H128017   7.538   2.738  18.546  0.3056 -0.8233 -1.1823
 1274TIP3    H228018   7.663   2.818  18.514 -0.2623  0.7311  0.3928
 1275TIP3   OH228019   1.715   2.166  18.155 -0.3291 -0.0465  0.2473
 1275TIP3    H128020   1.664   2.086  18.164  1.2000 -0.9494  1.3609
 1275TIP3    H228021   1.670   2.215  18.086 -1.5986 -1.6130 -0.1084
 1276TIP3   OH228022   3.716   1.956  17.792  0.0989  0.6665 -0.3118
 1276TIP3    H128023   3.795   1.988  17.836  0.1730  0.2615 -0.1496
 1276TIP3    H228024   3.728   1.983  17.700  1.6363 -1.5301 -0.8496
 1277TIP3   OH228025   4.050   6.967  19.322  0.2083  0.1352  0.4911
 1277TIP3    H128026   4.089   6.884  19.348 -0.3256 -0.1547  0.4003
 1277TIP3    H228027   4.124   7.026  19.307  0.5510  0.0841  1.9071
 1278TIP3   OH228028   1.968   4.530  19.323 -0.1317  0.1230 -0.1243
 1278TIP3    H128029   2.039   4.471  19.297  1.5479  1.7721  0.4382
 1278TIP3    H228030   1.979   4.607  19.267 -0.8645  0.7889  0.6237
 1279TIP3   OH228031   7.243   6.124  18.036 -0.3814 -0.7182  0.1466
 1279TIP3    H128032   7.184   6.134  18.111 -0.0971 -1.6181  0.5001
 1279TIP3    H228033   7.184   6.123  17.960 -0.5436  2.2238  0.1286
 1280TIP3   OH228034   3.888   6.364  19.566 -0.4659 -0.2112 -0.4694
 1280TIP3    H128035   3.894   6.270  19.549 -1.1681 -0.6275  1.3158
 1280TIP3    H228036   3.811   6.373  19.622  1.1620  1.0161  1.7337
 1281TIP3   OH228037   6.475   0.471  16.575 -0.0999  0.2037 -0.2638
 1281TIP3    H128038   6.462   0.565  16.589 -1.6978  0.0184 -0.3198
 1281TIP3    H228039   6.395   0.430  16.607  0.0142 -1.0324 -1.4447
 1282TIP3   OH228040   5.037   4.659  17.989  0.0055 -0.5477  0.1424
 1282TIP3    H128041   5.088   4.610  18.053 -0.2919  0.2197  0.9707
 1282TIP3    H228042   5.097   4.726  17.956  0.4753 -1.5490 -1.1357
 1283TIP3   OH228043   6.690   7.305  16.871  0.2004  0.0643 -0.2009
 1283TIP3    H128044   6.598   7.323  16.855  0.5346  0.5506 -1.7369
 1283TIP3    H228045   6.695   7.210  16.885 -0.3121 -0.2337 -1.8830
 1284TIP3   OH228046   4.096   2.373  17.787 -0.2932  0.0473  0.5443
 1284TIP3    H128047   4.103   2.323  17.869  0.7313  0.7563  0.9155
 1284TIP3    H228048   4.167   2.339  17.733 -1.7612 -1.3212 -0.5820
 1285TIP3   OH228049   3.348   4.427  17.606 -0.0570  0.0294  0.0280
 1285TIP3    H128050   3.269   4.420  17.661 -0.5096 -0.7221 -0.7060
 1285TIP3    H228051   3.396   4.346  17.622 -0.4415 -0.4249 -1.0482
 1286TIP3   OH228052   4.651   2.273  19.124  0.0855 -0.2690  0.4699
 1286TIP3    H128053   4.718   2.339  19.144  1.5122 -1.2081 -0.9105
 1286TIP3    H228054   4.643   2.222  19.204  1.0145 -0.1053  0.6780
 1287TIP3   OH228055   2.973   1.610  17.684 -0.2096 -0.5833 -0.2101
 1287TIP3    H128056   3.041   1.605  17.618  0.6652 -0.0940  0.6183
 1287TIP3    H228057   2.929   1.694  17.667  1.6746  0.8128  1.3188
 1288TIP3   OH228058   2.635   3.465  17.731 -0.0293 -0.0156  0.1141
 1288TIP3    H128059   2.717   3.497  17.695 -0.3067 -0.0977 -0.6185
 1288TIP3    H228060   2.567   3.515  17.684 -0.3983  0.0650  0.7173
 1289TIP3   OH228061   0.498   5.999  18.721  0.0272 -0.4428  0.0521
 1289TIP3    H128062   0.439   6.044  18.660  0.1017 -0.2576  0.1154
 1289TIP3    H228063   0.440   5.952  18.780 -0.0593 -0.1900  0.1687
 1290TIP3   OH228064   4.920   6.106  18.505 -0.0926  0.6168  0.6996
 1290TIP3    H128065   4.866   6.091  18.583  1.4582  3.8111  2.5730
 1290TIP3    H228066   4.990   6.164  18.535  0.1418  2.6980 -3.2329
 1291TIP3   OH228067   6.584   6.573  16.671 -0.2014  0.3310  0.4766
 1291TIP3    H128068   6.532   6.622  16.607 -0.0591  1.9795  1.5778
 1291TIP3    H228069   6.569   6.481  16.648 -0.3112  0.8498 -1.7883
 1292TIP3   OH228070   3.940   4.330  19.665  0.1454  0.6579  0.0842
 1292TIP3    H128071   3.978   4.291  19.587  1.1186  1.4887  0.1251
 1292TIP3    H228072   3.876   4.393  19.632 -1.8216 -1.2566  0.0181
 1293TIP3   OH228073   1.303   6.623  16.771  0.3560  0.0889  0.2028
 1293TIP3    H128074   1.251   6.606  16.693  2.5479  0.1318 -1.3585
 1293TIP3    H228075   1.244   6.604  16.844 -1.8593  0.2975 -1.4234
 1294TIP3   OH228076   0.446   2.358  18.037 -0.2458 -0.2451 -0.2161
 1294TIP3    H128077   0.501   2.291  17.997  0.7221  1.0095 -1.0534
 1294TIP3    H228078   0.498   2.438  18.033 -2.2994  1.1358 -1.5411
 1295TIP3   OH228079   5.698   7.461  16.596 -0.4668  0.5074  0.0869
 1295TIP3    H128080   5.618   7.478  16.548 -0.8647  2.3199  1.2874
 1295TIP3    H228081   5.675   7.478  16.688  0.9163 -0.3508  0.6317
 1296TIP3   OH228082   4.408   6.487  17.618  0.3165 -0.0459 -0.0133
 1296TIP3    H128083   4.487   6.473  17.566  0.5797  0.9514  0.0953
 1296TIP3    H228084   4.438   6.487  17.709  0.4660  1.7347 -0.0136
 1297TIP3   OH228085   5.634   0.813  17.733  0.2989  0.1221  0.9152
 1297TIP3    H128086   5.715   0.864  17.736  0.9479 -0.6725 -1.2190
 1297TIP3    H228087   5.648   0.742  17.796  1.5861 -0.4079  0.0676
 1298TIP3   OH228088   3.336   7.500  17.515  0.8572 -0.0221 -0.2261
 1298TIP3    H128089   3.289   7.418  17.502  1.7998 -0.9188  1.7079
 1298TIP3    H228090   3.269   7.561  17.546  0.3469 -0.3377 -0.6756
 1299TIP3   OH228091   4.848   2.068  19.325  0.0004  0.3405  0.4918
 1299TIP3    H128092   4.758   2.039  19.337  0.6121 -1.2772  1.3901
 1299TIP3    H228093   4.866   2.052  19.232 -1.0786  2.1188 -0.0823
 1300TIP3   OH228094   0.029   1.972  17.845 -0.6414  0.7051  0.9272
 1300TIP3    H128095   0.078   2.052  17.823 -0.6646  0.5564  0.3213
 1300TIP3    H228096  -0.025   1.997  17.919 -2.0532  1.8068 -0.4214
 1301TIP3   OH228097   6.950   5.600  17.606  0.2631 -0.3225  0.0214
 1301TIP3    H128098   6.908   5.527  17.561  1.0779 -0.1746 -1.0227
 1301TIP3    H228099   7.007   5.559  17.672  0.3161 -0.6134 -0.2033
 1302TIP3   OH228100   6.399   1.194  18.373 -0.0235  0.6882  0.1634
 1302TIP3    H128101   6.463   1.170  18.305  1.9730  0.3676  2.0387
 1302TIP3    H228102   6.414   1.288  18.387 -1.1206  0.9805 -0.4605
 1303TIP3   OH228103   5.677   3.459  17.169 -0.2453  0.1633  0.1758
 1303TIP3    H128104   5.746   3.506  17.216 -1.2875  1.9245  0.0188
 1303TIP3    H228105   5.656   3.514  17.094 -0.1630 -1.5282 -1.1468
 1304TIP3   OH228106   4.339   1.483  19.277  0.1923  0.2674 -0.3423
 1304TIP3    H128107   4.300   1.549  19.334  0.1850 -0.9220  1.0973
 1304TIP3    H228108   4.283   1.481  19.200  0.3889  2.1467 -0.5796
 1305TIP3   OH228109   3.404   2.876  19.213  0.1573  0.5333 -0.3200
 1305TIP3    H128110   3.470   2.931  19.256 -0.7941  1.8000 -0.4418
 1305TIP3    H228111   3.405   2.906  19.122  0.1172 -0.1466 -0.5466
 1306TIP3   OH228112   4.165   6.243  17.378 -0.0950  0.3687  0.0196
 1306TIP3    H128113   4.167   6.201  17.292 -0.1602 -1.2759  0.7910
 1306TIP3    H228114   4.247   6.292  17.382  0.9568 -1.3067 -0.1465
 1307TIP3   OH228115   4.231   2.684  16.927  0.6028  0.2107 -0.1625
 1307TIP3    H128116   4.212   2.747  16.857  0.4110  0.2239 -0.1013
 1307TIP3    H228117   4.316   2.709  16.961  0.5082  0.4609 -0.1135
 1308TIP3   OH228118   0.330   4.752  18.464 -0.0719  0.4013 -0.2342
 1308TIP3    H128119   0.410   4.778  18.417  0.0770 -0.1402 -0.2861
 1308TIP3    H228120   0.362   4.717  18.547 -0.2020 -0.4374 -0.5242
 1309TIP3   OH228121   2.938   2.274  18.541 -0.5793  0.3007 -0.0469
 1309TIP3    H128122   2.852   2.302  18.510  0.6393  1.6982 -2.5256
 1309TIP3    H228123   2.976   2.228  18.466  1.3146  0.8862  0.5085
 1310TIP3   OH228124   2.486   3.793  18.731 -0.0552 -0.2036  0.0583
 1310TIP3    H128125   2.416   3.808  18.667 -0.5239  1.1214  0.8451
 1310TIP3    H228126   2.528   3.879  18.740  1.1694 -0.8023  0.1867
 1311TIP3   OH228127   7.306   2.790  18.631  0.0602 -0.2744  0.3516
 1311TIP3    H128128   7.334   2.710  18.676  0.1596  0.1483  1.0693
 1311TIP3    H228129   7.317   2.859  18.697  0.8942  0.4818 -0.5445
 1312TIP3   OH228130   0.157   5.003  19.423 -0.2231 -0.5555 -0.4241
 1312TIP3    H128131   0.173   5.096  19.437  0.5039 -0.6626 -0.4974
 1312TIP3    H228132   0.063   4.997  19.407 -0.1763  0.2518 -1.0711
 1313TIP3   OH228133   1.833   0.723  18.704 -0.2111  0.0928 -0.0570
 1313TIP3    H128134   1.800   0.811  18.685 -0.2685 -0.2625 -1.6673
 1313TIP3    H228135   1.784   0.695  18.782 -2.0566  0.4779 -1.0466
 1314TIP3   OH228136   3.965   5.269  18.051 -0.2098  0.4056  0.5999
 1314TIP3    H128137   4.014   5.341  18.011  0.3956 -0.8477 -0.9885
 1314TIP3    H228138   3.878   5.275  18.012  0.2136 -0.4649 -0.5376
 1315TIP3   OH228139   2.057   0.175  18.593  0.0819  0.3840 -0.7033
 1315TIP3    H128140   2.123   0.186  18.662 -0.1745  2.0830 -0.6999
 1315TIP3    H228141   2.096   0.216  18.516  0.3895 -1.5496 -1.6314
 1316TIP3   OH228142   5.044   1.268  18.749  0.2978  0.0510  0.0882
 1316TIP3    H128143   5.123   1.315  18.722  0.2121  0.4321  0.4890
 1316TIP3    H228144   5.004   1.240  18.667  0.6764  0.1438 -0.1297
 1317TIP3   OH228145   3.674   3.324  18.818 -0.0996  0.6350 -0.6140
 1317TIP3    H128146   3.675   3.237  18.779 -0.2797 -0.5603  1.8353
 1317TIP3    H228147   3.697   3.383  18.747  0.5317 -1.4527 -2.2329
 1318TIP3   OH228148   7.220   6.105  16.891 -0.0437  0.3509  0.0187
 1318TIP3    H128149   7.313   6.102  16.914 -0.3545  1.3710  1.5894
 1318TIP3    H228150   7.219   6.142  16.802  1.1448 -2.4547 -1.2925
 1319TIP3   OH228151   5.656   5.989  18.812  0.3534  0.1039  0.3098
 1319TIP3    H128152   5.642   5.898  18.786 -0.1774  0.7655 -1.9351
 1319TIP3    H228153   5.575   6.014  18.856  0.6322 -0.5570  1.2611
 1320TIP3   OH228154   7.189   4.613  19.444  0.3578 -0.4751  0.0172
 1320TIP3    H128155   7.173   4.629  19.537 -1.1090 -0.9342 -0.1456
 1320TIP3    H228156   7.132   4.675  19.398 -0.5567 -1.7121 -0.5717
 1321TIP3   OH228157   7.602   1.187  17.168 -0.3190 -0.1832  0.0808
 1321TIP3    H128158   7.520   1.235  17.178 -0.7709 -0.8350 -0.4337
 1321TIP3    H228159   7.667   1.242  17.212 -1.3881 -0.6932  2.4537
 1322TIP3   OH228160   3.576   0.936  17.743 -0.2480  0.5364 -0.2850
 1322TIP3    H128161   3.551   0.949  17.835  0.4248  1.1649 -0.1837
 1322TIP3    H228162   3.496   0.903  17.701 -1.1589  2.1503  0.1035
 1323TIP3   OH228163   1.105   6.432  17.313  0.3688 -0.3667  0.3064
 1323TIP3    H128164   1.162   6.509  17.308  0.6042 -0.3834  2.1622
 1323TIP3    H228165   1.163   6.361  17.339 -0.1634 -0.7928  0.3459
 1324TIP3   OH228166   2.710   1.008  19.159 -0.6496 -0.8734 -0.0048
 1324TIP3    H128167   2.742   0.985  19.072 -0.8523  0.4711 -0.4565
 1324TIP3    H228168   2.645   0.940  19.179  0.4767 -2.0672 -0.2288
 1325TIP3   OH228169   5.305   4.450  17.372 -0.2038 -0.0114 -0.5644
 1325TIP3    H128170   5.317   4.535  17.330 -0.9443  0.1960 -0.3661
 1325TIP3    H228171   5.387   4.435  17.420 -0.4199  1.0397  0.1826
 1326TIP3   OH228172   0.025   0.154  18.880 -0.5886  0.3530 -0.8641
 1326TIP3    H128173  -0.011   0.077  18.834  0.2409 -2.4128  2.7270
 1326TIP3    H228174  -0.052   0.197  18.917 -0.8826 -0.3903 -0.5868
 1327TIP3   OH228175   2.994   2.909  18.092 -0.0824  0.0851  0.4173
 1327TIP3    H128176   3.041   2.825  18.087 -0.4664 -0.1147  0.0645
 1327TIP3    H228177   2.912   2.892  18.046 -0.8756  0.1881  1.7690
 1328TIP3   OH228178   1.977   6.973  16.465 -0.2904 -0.7967  0.0204
 1328TIP3    H128179   1.977   6.915  16.542 -0.0998 -0.7789  0.0328
 1328TIP3    H228180   2.050   6.941  16.412  0.9213  0.5087  0.8356
 1329TIP3   OH228181   0.611   6.088  19.021  0.6526 -0.1673  0.4309
 1329TIP3    H128182   0.641   6.082  18.930  1.4582  1.7103  0.5152
 1329TIP3    H228183   0.688   6.066  19.073  0.0270 -1.8458  0.6878
 1330TIP3   OH228184   2.390   2.877  17.725 -0.2350  0.5504 -0.0397
 1330TIP3    H128185   2.323   2.863  17.792 -0.1018 -0.0694 -0.0251
 1330TIP3    H228186   2.342   2.906  17.648 -0.2722  2.5434  0.6703
 1331TIP3   OH228187   7.211   2.473  17.244 -0.1736  0.0872  0.8336
 1331TIP3    H128188   7.197   2.408  17.175 -1.0465 -0.6594  1.6959
 1331TIP3    H228189   7.284   2.526  17.212 -0.7849 -0.0140 -0.8272
 1332TIP3   OH228190   2.763   5.019  18.396 -0.2054 -0.3989  0.1812
 1332TIP3    H128191   2.837   5.051  18.344 -0.8657  1.8444  0.5195
 1332TIP3    H228192   2.686   5.046  18.347 -0.8224 -0.2395  1.2110
 1333TIP3   OH228193   3.646   5.862  17.946  0.2413  0.0177  0.1389
 1333TIP3    H128194   3.680   5.773  17.954  0.4344  0.0556 -0.2669
 1333TIP3    H228195   3.672   5.904  18.029  0.5573 -0.1662  0.1360
 1334TIP3   OH228196   5.974   5.752  18.307  0.5665 -0.0583 -0.4038
 1334TIP3    H128197   5.942   5.781  18.392  1.1898  0.6831 -0.4072
 1334TIP3    H228198   6.038   5.683  18.327  1.0179  0.4010 -0.2389
 1335TIP3   OH228199   7.594   0.232  17.675 -0.3164 -0.2105 -0.0554
 1335TIP3    H128200   7.686   0.236  17.701 -0.3642  1.4113 -0.0008
 1335TIP3    H228201   7.569   0.324  17.661 -2.0399 -0.5737  0.3511
 1336TIP3   OH228202   2.784   0.789  16.936  0.6620  0.0505 -0.1293
 1336TIP3    H128203   2.839   0.760  17.008 -0.0756  1.1891  0.9474
 1336TIP3    H228204   2.718   0.845  16.978 -0.1953  0.1976 -1.6054
 1337TIP3   OH228205   3.687   5.968  18.211 -1.1304  0.6457 -0.2775
 1337TIP3    H128206   3.681   6.047  18.156  0.6685  0.8011 -0.3251
 1337TIP3    H228207   3.699   6.002  18.299  0.0647  0.4677 -0.3490
 1338TIP3   OH228208   1.220   5.700  17.315 -0.1545  0.1667 -0.3199
 1338TIP3    H128209   1.202   5.784  17.357 -0.8147 -0.6720  1.1583
 1338TIP3    H228210   1.236   5.640  17.388  0.6291 -0.9283 -1.3558
 1339TIP3   OH228211   7.350   4.454  17.588 -0.6151  0.0095  0.3869
 1339TIP3    H128212   7.432   4.406  17.578 -0.2746  0.3847  1.2794
 1339TIP3    H228213   7.307   4.447  17.502  0.9202  0.8554 -0.4912
 1340TIP3   OH228214   4.320   6.259  16.647 -0.1749 -0.4393 -0.3030
 1340TIP3    H128215   4.278   6.178  16.620 -2.2653 -0.0074  1.4167
 1340TIP3    H228216   4.267   6.328  16.608  1.8275  0.1893 -2.1147
 1341TIP3   OH228217   4.656   3.354  19.152 -0.6160 -0.5412  0.0482
 1341TIP3    H128218   4.616   3.270  19.176 -1.1504 -0.2035  0.3766
 1341TIP3    H228219   4.588   3.398  19.101 -1.1403  0.5381  1.6267
 1342TIP3   OH228220   2.477   4.857  18.364  0.2965  0.2802  0.0972
 1342TIP3    H128221   2.414   4.929  18.357  1.2253  1.2685  1.2955
 1342TIP3    H228222   2.426   4.778  18.345 -0.9957  1.1661 -0.2287
 1343TIP3   OH228223   6.282   5.239  18.640  0.4823  0.0987  0.6860
 1343TIP3    H128224   6.240   5.158  18.611  0.7433  0.1188  0.2386
 1343TIP3    H228225   6.216   5.283  18.692  0.4395 -0.5482  1.1935
 1344TIP3   OH228226   1.888   3.548  17.741 -0.1355 -0.4454 -0.3073
 1344TIP3    H128227   1.974   3.510  17.758  0.2147  0.9121  1.1744
 1344TIP3    H228228   1.892   3.580  17.651  1.0984  0.0818 -0.0722
 1345TIP3   OH228229   7.404   3.086  17.115 -0.1753 -0.0513  1.0702
 1345TIP3    H128230   7.364   3.004  17.085  1.8060 -1.4279  1.9500
 1345TIP3    H228231   7.497   3.065  17.125  0.4508  2.4193  1.0302
 1346TIP3   OH228232   6.830   1.667  17.696 -0.2766  0.0298 -0.5667
 1346TIP3    H128233   6.894   1.737  17.685 -0.0991 -0.1385 -0.6266
 1346TIP3    H228234   6.881   1.594  17.731 -0.3070 -0.3280 -1.2611
 1347TIP3   OH228235   1.242   7.113  16.897  0.9620 -0.3507  0.2286
 1347TIP3    H128236   1.171   7.083  16.953  1.2154 -0.5259  0.4541
 1347TIP3    H228237   1.210   7.195  16.859  0.5504 -0.5447  0.1566
 1348TIP3   OH228238   1.582   3.072  18.059  0.2010  0.0078  0.1214
 1348TIP3    H128239   1.673   3.093  18.038 -0.2947  1.4355 -0.7787
 1348TIP3    H228240   1.531   3.108  17.986 -1.1767  0.3865  1.2143
 1349TIP3   OH228241   2.367   5.436  17.251  0.3618  0.1114 -0.3587
 1349TIP3    H128242   2.382   5.528  17.230 -0.2862  0.6678  1.4478
 1349TIP3    H228243   2.356   5.435  17.346 -0.0198 -1.7836 -0.3986
 1350TIP3   OH228244   2.124   5.811  16.921  1.0676 -0.5055 -0.1229
 1350TIP3    H128245   2.102   5.902  16.897  2.0344 -0.7833 -2.2634
 1350TIP3    H228246   2.046   5.761  16.897  0.2270 -0.2010  1.7777
 1351TIP3   OH228247   3.400   2.216  18.564 -0.1359  0.4612 -0.9557
 1351TIP3    H128248   3.468   2.168  18.611 -0.8179 -0.4226 -0.8478
 1351TIP3    H228249   3.319   2.196  18.612 -0.9938 -1.0690 -2.8850
 1352TIP3   OH228250   7.271   2.396  18.218 -0.2241  0.4482 -0.1368
 1352TIP3    H128251   7.326   2.382  18.141  0.8851  0.2286  0.6724
 1352TIP3    H228252   7.181   2.381  18.187  0.1983  0.4397 -1.3906
 1353TIP3   OH228253   3.905   7.318  17.200 -0.0570 -0.8403  0.0572
 1353TIP3    H128254   3.930   7.329  17.292  0.4647 -0.0796 -0.1640
 1353TIP3    H228255   3.983   7.280  17.159  0.2517  0.2195 -0.3593
 1354TIP3   OH228256   2.153   5.597  17.431 -0.2362  0.0985 -0.7006
 1354TIP3    H128257   2.116   5.512  17.410  0.8774 -0.2916 -1.1576
 1354TIP3    H228258   2.160   5.642  17.347 -2.3633  1.3429 -0.3069
 1355TIP3   OH228259   6.280   2.030  18.421  0.5493  0.6646  0.1667
 1355TIP3    H128260   6.317   2.033  18.332 -1.0194 -0.0893 -0.5519
 1355TIP3    H228261   6.221   1.955  18.419 -0.1809  1.1776  1.5905
 1356TIP3   OH228262   4.838   3.087  18.418 -0.5111  0.0983 -0.2329
 1356TIP3    H128263   4.871   3.175  18.402 -2.2118  0.7748 -0.2144
 1356TIP3    H228264   4.777   3.071  18.346 -0.1724 -1.1056 -0.2802
 1357TIP3   OH228265   5.288   1.826  17.613  0.4981 -0.2493 -0.6910
 1357TIP3    H128266   5.334   1.910  17.608 -1.2574  0.8322  0.3539
 1357TIP3    H228267   5.232   1.834  17.690  1.6521 -3.1246  0.5649
 1358TIP3   OH228268   5.825   1.968  17.981 -0.2166 -0.1618  0.0818
 1358TIP3    H128269   5.847   1.932  17.895 -0.6401  1.9391 -0.9672
 1358TIP3    H228270   5.898   2.025  18.003  0.2907 -1.3056  1.5697
 1359TIP3   OH228271   7.372   0.738  17.553  0.4789  0.5040  0.3716
 1359TIP3    H128272   7.403   0.731  17.463  0.4233  0.3883  0.3605
 1359TIP3    H228273   7.432   0.800  17.595  0.6436  0.3804  0.3170
 1360TIP3   OH228274   6.540   2.386  17.755  0.1666 -0.0131  0.0596
 1360TIP3    H128275   6.573   2.401  17.844  2.6201 -4.4106  0.1481
 1360TIP3    H228276   6.612   2.414  17.698 -0.3694  0.3794 -0.4380
 1361TIP3   OH228277   3.797   2.099  19.558 -0.0673  0.2639 -0.3522
 1361TIP3    H128278   3.887   2.124  19.581  0.8548 -2.9451  0.0380
 1361TIP3    H228279   3.743   2.143  19.624  1.2967  1.3578  0.1038
 1362TIP3   OH228280   2.366   5.427  16.815  0.1671 -0.8926 -0.4462
 1362TIP3    H128281   2.437   5.377  16.856  0.4316 -0.1020  0.0942
 1362TIP3    H228282   2.373   5.514  16.854 -0.3114 -0.4446 -1.3298
 1363TIP3   OH228283   5.861   0.978  18.117  0.3870 -0.6458 -0.3764
 1363TIP3    H128284   5.904   0.917  18.177  3.5564 -1.5251 -3.2081
 1363TIP3    H228285   5.900   1.063  18.137  1.0204 -0.8381 -0.7487
 1364TIP3   OH228286   3.211   1.790  19.550  0.1670  0.2378 -0.3574
 1364TIP3    H128287   3.295   1.835  19.541  0.1120  0.5101  0.4549
 1364TIP3    H228288   3.168   1.803  19.465  1.7820 -1.6817 -1.5436
 1365TIP3   OH228289   6.591   6.469  18.110  0.0541 -0.2632 -0.6179
 1365TIP3    H128290   6.592   6.476  18.015  0.1733  1.8883 -0.5035
 1365TIP3    H228291   6.499   6.453  18.132 -0.2970  1.0822 -1.0240
 1366TIP3   OH228292   2.179   1.487  18.734 -0.1137  0.1003  0.2485
 1366TIP3    H128293   2.142   1.543  18.802 -1.2552 -0.4040  0.0681
 1366TIP3    H228294   2.104   1.437  18.700  0.6874 -0.7533 -0.3320
 1367TIP3   OH228295   0.789   2.177  19.062  0.3975 -0.0284 -0.6764
 1367TIP3    H128296   0.825   2.147  18.978 -0.1773 -1.9715 -0.2642
 1367TIP3    H228297   0.849   2.247  19.089  1.6318 -0.5713 -1.8530
 1368TIP3   OH228298   6.353   6.205  18.278 -0.5309  0.0090 -0.8595
 1368TIP3    H128299   6.379   6.294  18.256 -1.4346  0.7856  1.0161
 1368TIP3    H228300   6.363   6.156  18.196  1.7394  1.3849 -1.4798
 1369TIP3   OH228301   4.814   5.022  17.442  0.1062 -0.2648 -0.2670
 1369TIP3    H128302   4.866   5.095  17.408 -1.3960  0.9193 -0.1449
 1369TIP3    H228303   4.801   4.965  17.367 -1.0752  1.0577 -1.1118
 1370TIP3   OH228304   4.603   6.418  17.858 -0.7171  0.1767 -0.3132
 1370TIP3    H128305   4.636   6.434  17.946 -0.7995  1.1311 -0.4400
 1370TIP3    H228306   4.612   6.324  17.845 -1.4804 -0.0940  1.0172
 1371TIP3   OH228307   1.977   2.763  18.459  0.3008  0.0282  0.1492
 1371TIP3    H128308   2.002   2.733  18.371 -1.6979  2.0390 -1.2324
 1371TIP3    H228309   2.006   2.854  18.463  0.1581  0.0359  1.4989
 1372TIP3   OH228310   5.925   0.451  18.434  0.0995 -0.0334 -0.0215
 1372TIP3    H128311   5.917   0.478  18.342 -1.4564  0.0708  0.1133
 1372TIP3    H228312   5.839   0.415  18.456  1.3285 -2.9753  0.5065
 1373TIP3   OH228313   5.364   3.561  16.939  0.5331  0.1168  0.0298
 1373TIP3    H128314   5.317   3.645  16.938  0.5313  0.1098 -0.4985
 1373TIP3    H228315   5.453   3.585  16.964  0.5548  0.2875 -0.2058
 1374TIP3   OH228316   4.707   3.382  19.459 -0.0880  0.4527  0.1105
 1374TIP3    H128317   4.695   3.347  19.371  0.8579 -2.7428  1.1248
 1374TIP3    H228318   4.777   3.447  19.450  2.4455 -2.2192 -1.0796
 1375TIP3   OH228319   6.600   5.648  16.668 -0.2226  0.1995 -0.2780
 1375TIP3    H128320   6.563   5.734  16.647 -1.1684 -0.4185 -1.2904
 1375TIP3    H228321   6.541   5.586  16.624 -0.1029 -1.0076  1.2114
 1376TIP3   OH228322   2.917   7.035  19.314  1.1541  0.1662 -0.5900
 1376TIP3    H128323   2.922   7.028  19.409 -2.2377 -2.0454 -0.4410
 1376TIP3    H228324   2.879   7.122  19.298 -1.3334 -0.6972  0.3120
 1377TIP3   OH228325   7.523   6.597  17.832  0.0568  0.0883  0.0017
 1377TIP3    H128326   7.599   6.649  17.808 -1.5545  2.1951 -0.8905
 1377TIP3    H228327   7.513   6.611  17.927  0.2850  0.5474 -0.0380
 1378TIP3   OH228328   7.579   4.831  17.865 -0.0154 -0.5036  0.3143
 1378TIP3    H128329   7.511   4.817  17.800  0.6096 -0.1872 -0.4204
 1378TIP3    H228330   7.649   4.770  17.841  0.0362 -0.7206  0.9714
 1379TIP3   OH228331   4.655   4.710  17.050 -0.0070 -0.8075  0.1691
 1379TIP3    H128332   4.653   4.714  16.954  0.1740 -0.6583  0.1725
 1379TIP3    H228333   4.587   4.646  17.072  0.5106 -1.4702 -0.0947
 1380TIP3   OH228334   0.031   6.922  19.059 -0.3642  0.7496  0.2086
 1380TIP3    H128335   0.027   6.988  19.129 -0.2940 -0.5993  1.5311
 1380TIP3    H228336   0.107   6.869  19.080  0.0651  0.7236 -1.3097
 1381TIP3   OH228337   5.655   6.480  17.871 -0.0932  0.3201 -0.6568
 1381TIP3    H128338   5.565   6.500  17.847 -0.0941  0.4786 -0.5238
 1381TIP3    H228339   5.648   6.414  17.940 -0.2376  2.6100  1.6742
 1382TIP3   OH228340   5.254   7.477  16.992  0.4170  0.1673  0.4532
 1382TIP3    H128341   5.183   7.528  17.031  0.2618  0.3561 -0.0761
 1382TIP3    H228342   5.288   7.533  16.922 -1.5801 -1.5476 -2.0495
 1383TIP3   OH228343   3.869   4.066  19.759  0.2912 -0.2430  0.0400
 1383TIP3    H128344   3.897   4.158  19.758 -0.3655 -0.0356 -0.0451
 1383TIP3    H228345   3.823   4.054  19.676  1.7115 -1.1019 -0.6737
 1384TIP3   OH228346   6.851   0.242  17.719  0.2763 -0.0553 -0.0222
 1384TIP3    H128347   6.933   0.281  17.751  0.7594 -1.0537  0.0085
 1384TIP3    H228348   6.844   0.272  17.629 -1.5229  3.4757  1.1379
 1385TIP3   OH228349   0.193   0.956  17.745  0.3997  0.1709 -0.0317
 1385TIP3    H128350   0.240   0.902  17.808  1.2475  1.6396  0.6459
 1385TIP3    H228351   0.103   0.925  17.749  1.0336 -1.8640 -0.4313
 1386TIP3   OH228352   3.635   4.237  17.423 -0.1465 -0.6191  0.0574
 1386TIP3    H128353   3.655   4.326  17.391 -0.3137 -1.0743 -1.3956
 1386TIP3    H228354   3.667   4.237  17.513  1.2362  0.4652 -0.3803
 1387TIP3   OH228355   2.856   6.063  17.229 -0.2899 -0.0229 -0.2820
 1387TIP3    H128356   2.802   6.049  17.152 -1.1139 -1.0677  0.4547
 1387TIP3    H228357   2.795   6.054  17.303  0.4151  1.1868  0.5001
 1388TIP3   OH228358   2.960   1.112  18.021  0.4306 -0.3646  0.3952
 1388TIP3    H128359   3.011   1.151  17.951  1.8601 -0.7579  1.1757
 1388TIP3    H228360   2.900   1.182  18.049  0.9171  0.2913 -0.1750
 1389TIP3   OH228361   3.419   5.790  19.514 -0.6056 -0.4891  0.5984
 1389TIP3    H128362   3.497   5.781  19.569  0.0430 -0.2061 -0.2568
 1389TIP3    H228363   3.445   5.849  19.444 -2.0478  0.8308  1.1042
 1390TIP3   OH228364   0.185   6.725  17.329  0.1764  0.2563 -1.3364
 1390TIP3    H128365   0.136   6.790  17.380 -2.0741 -1.2129 -1.4531
 1390TIP3    H228366   0.217   6.773  17.253 -1.3240  1.2795 -1.3610
 1391TIP3   OH228367   4.143   2.126  18.818 -0.3393 -0.1830  0.2164
 1391TIP3    H128368   4.148   2.201  18.877  2.5352  1.7825 -2.2082
 1391TIP3    H228369   4.216   2.070  18.844 -1.0729 -1.0135  0.5498
 1392TIP3   OH228370   1.836   5.649  18.832  0.5308  0.0479  0.0672
 1392TIP3    H128371   1.910   5.609  18.787  0.8061 -0.9903  1.3863
 1392TIP3    H228372   1.782   5.575  18.862 -0.0456  0.7256  0.7604
 1393TIP3   OH228373   3.095   4.421  17.991 -0.4862  0.0851 -0.2354
 1393TIP3    H128374   3.025   4.482  18.016  0.1083  0.1949  1.2663
 1393TIP3    H228375   3.168   4.476  17.965  0.4549  0.1312  2.2204
 1394TIP3   OH228376   7.144   0.732  18.632  0.1265  0.2634 -0.0430
 1394TIP3    H128377   7.156   0.820  18.596  0.2948  0.2456 -0.0314
 1394TIP3    H228378   7.128   0.747  18.726  0.2450  0.2757 -0.0250
 1395TIP3   OH228379   4.682   2.534  19.422 -0.4394 -0.2223 -0.2948
 1395TIP3    H128380   4.765   2.515  19.378 -0.6707  0.3351 -0.9866
 1395TIP3    H228381   4.644   2.606  19.371 -2.6176 -2.1859 -1.6387
 1396TIP3   OH228382   5.652   5.317  19.269 -0.3269  0.0359 -0.2642
 1396TIP3    H128383   5.572   5.265  19.281 -1.5811  1.6902 -0.9346
 1396TIP3    H228384   5.629   5.378  19.198  1.2059  1.1944  0.1989
 1397TIP3   OH228385   2.871   6.247  18.989  0.3252  0.2003 -0.3931
 1397TIP3    H128386   2.850   6.161  18.953  1.3450 -0.6023  0.8150
 1397TIP3    H228387   2.789   6.278  19.028  0.2621 -0.8683  0.3747
 1398TIP3   OH228388   7.287   1.766  16.811 -0.6043 -0.0387  0.4897
 1398TIP3    H128389   7.368   1.761  16.761  0.3179 -0.8614  2.0065
 1398TIP3    H228390   7.225   1.713  16.761 -0.1937  0.5058 -0.6259
 1399TIP3   OH228391   0.279   1.312  18.306 -0.5728  0.5050  0.4749
 1399TIP3    H128392   0.355   1.277  18.258 -0.3132  1.3006  0.2930
 1399TIP3    H228393   0.309   1.396  18.340 -1.7063  1.3275 -0.4853
 1400TIP3   OH228394   1.486   4.723  17.085  0.3947 -0.2725 -0.3886
 1400TIP3    H128395   1.404   4.769  17.100 -0.7923 -1.6177 -2.1978
 1400TIP3    H228396   1.533   4.777  17.021 -0.3074 -0.7814 -1.3557
 1401TIP3   OH228397   3.073   5.566  18.022  0.1303 -0.5289  0.4289
 1401TIP3    H128398   3.125   5.488  18.001 -1.9583 -1.6529 -0.9157
 1401TIP3    H228399   3.026   5.585  17.940  0.9364  2.4688  0.5630
 1402TIP3   OH228400   3.280   1.960  18.182  0.1551  0.2388  0.1939
 1402TIP3    H128401   3.355   1.910  18.148 -0.5682 -0.2332 -0.7678
 1402TIP3    H228402   3.255   1.913  18.262 -1.2080 -1.7059 -1.2680
 1403TIP3   OH228403   1.252   6.086  17.941 -0.2462 -0.4716  0.1322
 1403TIP3    H128404   1.281   6.089  17.850  0.6946  1.1734  0.4557
 1403TIP3    H228405   1.168   6.040  17.937  0.7131 -2.2318 -1.2756
 1404TIP3   OH228406   5.553   5.404  16.635 -0.1415  0.0219 -0.5971
 1404TIP3    H128407   5.561   5.411  16.730  0.2396 -1.2263 -0.5209
 1404TIP3    H228408   5.532   5.312  16.619  0.6192  0.0306 -1.7685
 1405TIP3   OH228409   4.890   4.896  18.510 -0.1380 -0.2655  0.2797
 1405TIP3    H128410   4.917   4.985  18.488  0.3780  0.0118  1.8740
 1405TIP3    H228411   4.799   4.905  18.537  0.1815 -0.0410  1.3269
 1406TIP3   OH228412   0.551   6.616  17.596 -0.1321 -0.0964  0.1452
 1406TIP3    H128413   0.489   6.558  17.552 -1.1865  0.5791  0.7046
 1406TIP3    H228414   0.586   6.563  17.667 -0.7801 -0.1895  0.4019
 1407TIP3   OH228415   5.948   1.250  18.091 -0.2677  0.1727  0.2277
 1407TIP3    H128416   5.887   1.261  18.164 -1.6628  0.0840 -0.8817
 1407TIP3    H228417   5.990   1.336  18.082  0.1645  0.0903  1.3288
 1408TIP3   OH228418   0.159   0.146  18.109  0.5859  0.6017 -0.0476
 1408TIP3    H128419   0.099   0.220  18.097 -0.4064 -0.1505  0.1818
 1408TIP3    H228420   0.246   0.187  18.118  0.3079  1.6414 -1.6682
 1409TIP3   OH228421   4.867   6.993  18.858 -0.1814 -0.2029 -0.3321
 1409TIP3    H128422   4.960   7.006  18.875 -0.1471 -0.1702 -0.5548
 1409TIP3    H228423   4.858   6.898  18.853 -0.1021 -0.1928 -0.6545
 1410TIP3   OH228424   7.148   4.774  17.307 -0.1075 -0.0197  0.0016
 1410TIP3    H128425   7.109   4.688  17.290 -0.7738  0.3795 -0.5347
 1410TIP3    H228426   7.219   4.756  17.369 -0.0749 -0.9864 -0.2951
 1411TIP3   OH228427   2.626   2.501  18.610 -0.0899 -0.1859 -0.1872
 1411TIP3    H128428   2.708   2.541  18.583 -0.4963  0.6177 -0.2693
 1411TIP3    H228429   2.649   2.447  18.686  0.3263  0.9223  0.5027
 1412TIP3   OH228430   7.024   6.654  19.062  0.1862 -0.1216  0.1264
 1412TIP3    H128431   7.044   6.605  18.982 -2.0016 -1.4823  0.3144
 1412TIP3    H228432   6.967   6.595  19.112 -1.9866  2.3162  0.7413
 1413TIP3   OH228433   1.587   4.267  19.204  0.7209  0.2575  0.4276
 1413TIP3    H128434   1.583   4.357  19.235 -1.3473  0.4914 -0.3455
 1413TIP3    H228435   1.662   4.229  19.249  0.8372  1.9767  1.7749
 1414TIP3   OH228436   4.704   6.671  19.010 -0.4523 -0.1461 -0.3864
 1414TIP3    H128437   4.775   6.678  19.074 -0.0777  0.6496 -0.8834
 1414TIP3    H228438   4.746   6.640  18.930 -0.7554 -0.1630 -0.5401
 1415TIP3   OH228439   1.782   0.407  18.758 -0.2814  0.0673  0.1544
 1415TIP3    H128440   1.697   0.397  18.715 -1.2435  0.3951  1.8945
 1415TIP3    H228441   1.838   0.445  18.691 -1.2309 -1.0173 -1.3289
 1416TIP3   OH228442   3.627   4.703  19.583 -0.4983  0.9017 -0.0755
 1416TIP3    H128443   3.548   4.715  19.530 -0.2287  1.0322 -0.4544
 1416TIP3    H228444   3.647   4.791  19.616 -0.4817  0.8782 -0.0218
 1417TIP3   OH228445   4.367   2.530  19.739 -0.2919 -0.2438  0.3283
 1417TIP3    H128446   4.384   2.590  19.812 -0.0066  0.9907 -0.7089
 1417TIP3    H228447   4.436   2.464  19.746 -1.6799 -1.5923  2.5691
 1418TIP3   OH228448   6.449   4.829  18.666  0.3693 -0.3264 -0.1376
 1418TIP3    H128449   6.379   4.818  18.602  0.8364 -2.8448 -0.3254
 1418TIP3    H228450   6.529   4.815  18.617  0.8542 -0.2328  0.6110
 1419TIP3   OH228451   0.611   1.876  17.991  0.1624  0.6851 -0.2573
 1419TIP3    H128452   0.640   1.810  17.928 -2.3200 -1.2189  0.4418
 1419TIP3    H228453   0.519   1.891  17.970 -0.0533  1.9019  1.3504
 1420TIP3   OH228454   5.637   6.704  17.505 -0.3703 -0.2361  0.7128
 1420TIP3    H128455   5.625   6.794  17.475  0.2185 -0.6659 -0.8881
 1420TIP3    H228456   5.575   6.653  17.454  0.6931 -0.9984  0.1480
 1421TIP3   OH228457   5.292   2.616  18.362 -0.2622 -0.3809 -0.2735
 1421TIP3    H128458   5.313   2.661  18.444 -0.2914 -0.2381 -0.3459
 1421TIP3    H228459   5.220   2.666  18.325  0.1035 -0.1335 -0.6527
 1422TIP3   OH228460   1.977   6.940  17.670  0.3442  0.2630 -0.5543
 1422TIP3    H128461   1.929   6.886  17.733  0.1688  1.9975  0.8779
 1422TIP3    H228462   1.938   7.027  17.678  1.3713  0.8922 -1.9579
 1423TIP3   OH228463   3.510   7.195  16.890 -0.8134 -0.1072  0.4082
 1423TIP3    H128464   3.520   7.101  16.877  2.6100  0.3543 -1.7074
 1423TIP3    H228465   3.583   7.219  16.947 -0.8296  1.4158 -0.1656
 1424TIP3   OH228466   6.248   7.455  18.844 -0.7454  0.5734 -0.5343
 1424TIP3    H128467   6.311   7.510  18.890 -1.0721  1.6473 -1.3052
 1424TIP3    H228468   6.300   7.386  18.803 -0.2465  0.6628 -0.0564
 1425TIP3   OH228469   3.018   0.363  18.984 -0.3645 -0.1361  0.1934
 1425TIP3    H128470   3.068   0.298  19.034  1.6507  0.0698 -1.4078
 1425TIP3    H228471   2.932   0.363  19.025  0.3548 -1.9043  1.9120
 1426TIP3   OH228472   5.448   5.597  18.559  0.1434  1.0632 -0.2651
 1426TIP3    H128473   5.473   5.508  18.583  1.2301  0.5393 -2.9378
 1426TIP3    H228474   5.352   5.594  18.553 -0.1188  1.0007  2.6668
 1427TIP3   OH228475   0.538   4.839  19.204 -0.2163 -0.0807  0.3637
 1427TIP3    H128476   0.579   4.761  19.168 -2.4951 -1.3017  0.2501
 1427TIP3    H228477   0.449   4.838  19.169 -0.1367  3.0145 -0.2739
 1428TIP3   OH228478   3.468   0.503  17.142  0.3620 -0.0356 -0.5407
 1428TIP3    H128479   3.490   0.477  17.052  1.1051  0.3817 -0.4890
 1428TIP3    H228480   3.545   0.551  17.172  0.0595 -0.0522  0.2752
 1429TIP3   OH228481   0.048   0.567  19.568  0.4295  0.2994  0.5387
 1429TIP3    H128482   0.092   0.497  19.520 -0.5672 -0.0015  0.0347
 1429TIP3    H228483  -0.015   0.523  19.624 -0.8616  0.8087 -0.4600
 1430TIP3   OH228484   4.182   4.904  17.292 -0.0707  0.1132  0.1107
 1430TIP3    H128485   4.122   4.973  17.267  0.6761  0.8553  0.3339
 1430TIP3    H228486   4.243   4.897  17.218 -0.2903 -0.4900 -0.0257
 1431TIP3   OH228487   7.389   6.649  18.766  0.1768  0.3078  0.2459
 1431TIP3    H128488   7.456   6.595  18.724 -0.7335 -0.0984 -0.7339
 1431TIP3    H228489   7.326   6.587  18.802 -0.1203  0.6869  0.3908
 1432TIP3   OH228490   0.702   0.343  19.172  0.1986  0.2863  0.8298
 1432TIP3    H128491   0.692   0.327  19.078 -0.2396 -1.6842  1.1590
 1432TIP3    H228492   0.681   0.436  19.183 -4.6543 -0.3480 -0.4556
 1433TIP3   OH228493   0.921   3.139  17.909 -0.0586  0.2663 -0.1440
 1433TIP3    H128494   0.911   3.122  18.002  1.3426 -0.8410 -0.1623
 1433TIP3    H228495   0.909   3.233  17.900 -1.9552  0.1722  0.8791
 1434TIP3   OH228496   6.432   4.267  18.461 -0.4924  0.7039 -0.5679
 1434TIP3    H128497   6.504   4.257  18.398 -0.4444  1.1175 -0.5780
 1434TIP3    H228498   6.468   4.236  18.544 -0.3147  0.8623 -0.5835
 1435TIP3   OH228499   2.828   7.287  19.224  0.1941  0.1206 -0.3524
 1435TIP3    H128500   2.889   7.266  19.153  0.4432 -0.9780  0.1666
 1435TIP3    H228501   2.763   7.344  19.183  2.2830  2.4906 -0.5974
 1436TIP3   OH228502   5.159   2.897  18.674  0.1322  0.4793 -0.7088
 1436TIP3    H128503   5.153   2.802  18.677  0.8687  0.4477  1.5478
 1436TIP3    H228504   5.071   2.926  18.653 -0.0432 -0.6933 -1.6949
 1437TIP3   OH228505   1.215   2.418  17.134 -0.4121 -0.0445 -0.0981
 1437TIP3    H128506   1.173   2.488  17.184 -1.6393 -1.2454  0.6273
 1437TIP3    H228507   1.211   2.448  17.043 -3.0360 -0.1242 -0.1062
 1438TIP3   OH228508   2.251   2.973  17.515  0.2123  0.0875  0.1749
 1438TIP3    H128509   2.205   3.057  17.524  0.3861  0.2616 -0.4792
 1438TIP3    H228510   2.291   2.977  17.428  0.1781 -0.6952  0.1143
 1439TIP3   OH228511   5.346   1.638  17.997  0.1103 -0.4543 -0.7278
 1439TIP3    H128512   5.331   1.679  18.082 -0.0365  1.0762 -1.4510
 1439TIP3    H228513   5.441   1.628  17.991  0.0256 -2.3200  0.3585
 1440TIP3   OH228514   1.561   3.542  18.747  0.1387 -0.2131  0.4497
 1440TIP3    H128515   1.498   3.611  18.728  0.4339  0.2790  1.2365
 1440TIP3    H228516   1.598   3.519  18.661  1.2572  1.7834  0.3363
 1441TIP3   OH228517   4.470   2.792  18.842  0.8512 -0.6340  0.2962
 1441TIP3    H128518   4.531   2.809  18.913  1.3040 -2.0050  0.2625
 1441TIP3    H228519   4.391   2.840  18.866  1.3140 -0.3281  1.2519
 1442TIP3   OH228520   4.162   4.634  16.741 -0.6957 -0.3256 -0.0946
 1442TIP3    H128521   4.211   4.551  16.746  0.1613  0.2312  1.8287
 1442TIP3    H228522   4.122   4.633  16.654  0.2201 -2.2349 -0.5554
 1443TIP3   OH228523   5.735   1.250  19.082  0.0438 -1.3620  0.5411
 1443TIP3    H128524   5.650   1.211  19.065 -0.0115 -1.6428  1.4387
 1443TIP3    H228525   5.716   1.342  19.100  0.1075 -1.0454 -0.8889
 1444TIP3   OH228526   0.343   5.806  16.930 -0.9077  0.3108  0.2989
 1444TIP3    H128527   0.323   5.900  16.936 -2.0278  0.1325 -0.2701
 1444TIP3    H228528   0.412   5.800  16.864 -1.1611  0.7011 -0.0054
 1445TIP3   OH228529   4.276   3.429  18.343  0.2966 -0.2533  0.0093
 1445TIP3    H128530   4.221   3.350  18.346  0.4756 -0.3382  1.7369
 1445TIP3    H228531   4.214   3.501  18.340  0.1274 -0.4297 -1.0478
 1446TIP3   OH228532   5.335   2.352  18.096 -0.0353 -0.5199  0.1665
 1446TIP3    H128533   5.245   2.353  18.128  0.0296 -0.9231  0.3648
 1446TIP3    H228534   5.328   2.325  18.004 -0.0752 -1.0379  0.3194
 1447TIP3   OH228535   3.932   4.028  18.098  0.1883 -0.0712 -0.5676
 1447TIP3    H128536   3.849   4.070  18.119  1.2667  1.5438  0.7668
 1447TIP3    H228537   3.955   4.062  18.012  0.3617  1.0169 -0.1122
 1448TIP3   OH228538   7.303   1.171  18.300 -0.3687 -0.3787 -0.4807
 1448TIP3    H128539   7.309   1.248  18.357  1.9017 -1.5116  0.9300
 1448TIP3    H228540   7.360   1.192  18.226  0.2024 -0.6674 -0.1255
 1449TIP3   OH228541   5.363   4.156  18.105 -0.4355  0.3365  0.1987
 1449TIP3    H128542   5.374   4.144  18.011 -0.2333 -0.7412  0.3517
 1449TIP3    H228543   5.429   4.223  18.128  1.0750 -0.9942 -0.0785
 1450TIP3   OH228544   3.361   2.937  18.192 -1.0781 -0.0482  0.5920
 1450TIP3    H128545   3.298   2.866  18.196 -2.1370  0.7912 -0.4647
 1450TIP3    H228546   3.444   2.895  18.169 -2.2506 -0.7202 -3.0113
 1451TIP3   OH228547   4.786   6.249  18.280 -0.1905  0.4305 -0.6144
 1451TIP3    H128548   4.879   6.229  18.266 -0.0682  1.1263 -0.8159
 1451TIP3    H228549   4.769   6.218  18.369  0.0380 -0.3876 -0.8411
 1452TIP3   OH228550   7.478   1.448  18.211  0.0036  0.2388 -0.4072
 1452TIP3    H128551   7.429   1.490  18.141  1.4539  2.8532  0.0085
 1452TIP3    H228552   7.569   1.447  18.180  0.2456 -1.3477  0.2332
 1453TIP3   OH228553   6.611   6.093  18.393  0.3235 -0.3614  0.1661
 1453TIP3    H128554   6.609   6.037  18.315  1.3971  2.6681 -2.2355
 1453TIP3    H228555   6.552   6.165  18.372  3.6407  2.6556  0.2559
 1454TIP3   OH228556   5.733   4.353  16.884  0.1065 -0.1488 -0.2617
 1454TIP3    H128557   5.741   4.427  16.825  0.4533 -1.7215 -2.2793
 1454TIP3    H228558   5.789   4.375  16.958 -0.6259  2.0247 -0.2881
 1455TIP3   OH228559   7.362   6.296  18.973 -0.2047 -0.1259  0.4536
 1455TIP3    H128560   7.382   6.372  19.026 -0.6389 -0.8047  1.6314
 1455TIP3    H228561   7.409   6.224  19.015 -0.9092 -0.7535  0.1912
 1456TIP3   OH228562   3.499   6.209  17.886 -0.1506  0.0014 -0.3432
 1456TIP3    H128563   3.505   6.288  17.832 -1.7078  0.0586 -0.4921
 1456TIP3    H228564   3.539   6.140  17.834 -1.6237  0.0563 -1.6190
 1457TIP3   OH228565   4.015   4.628  17.887 -0.6153 -0.0505  0.6339
 1457TIP3    H128566   4.081   4.698  17.892  0.0871 -0.5287 -1.1678
 1457TIP3    H228567   3.956   4.656  17.818 -0.5780 -1.0232  0.1924
 1458TIP3   OH228568   2.197   3.726  19.018 -0.9576  0.5713  0.6859
 1458TIP3    H128569   2.108   3.759  19.003 -1.0021  0.6775  1.1580
 1458TIP3    H228570   2.196   3.695  19.109  0.0134  2.3381  1.3599
 1459TIP3   OH228571   0.695   6.775  19.328  0.0020 -0.3177 -0.3650
 1459TIP3    H128572   0.657   6.837  19.266 -0.8858 -0.6407 -0.1587
 1459TIP3    H228573   0.626   6.759  19.392  1.1981  0.7334  1.2807
 1460TIP3   OH228574   0.538   5.262  18.394 -0.1980  1.0301  0.4220
 1460TIP3    H128575   0.582   5.275  18.310  2.2511  1.6431  1.6892
 1460TIP3    H228576   0.466   5.324  18.394 -0.0912  1.1982 -1.1005
 1461TIP3   OH228577   5.453   4.054  18.725  0.3283  0.1525 -0.1426
 1461TIP3    H128578   5.408   4.113  18.665  0.4584  0.2064 -0.1876
 1461TIP3    H228579   5.496   4.113  18.788 -1.8638  0.0888  1.5414
 1462TIP3   OH228580   7.575   5.580  16.806 -1.0259 -0.1508 -0.7114
 1462TIP3    H128581   7.510   5.624  16.752  0.0844  3.2785  0.5177
 1462TIP3    H228582   7.531   5.568  16.890  0.1683  3.6306  0.6500
 1463TIP3   OH228583   4.806   5.553  18.697 -0.0520 -0.4841 -0.3674
 1463TIP3    H128584   4.892   5.514  18.712  1.2092  2.6161  1.3708
 1463TIP3    H228585   4.778   5.583  18.783 -1.1997  1.7211 -1.4201
 1464TIP3   OH228586   5.054   0.666  18.502  0.1472 -0.0491  0.1883
 1464TIP3    H128587   5.001   0.590  18.479 -1.8236  0.9954  1.0174
 1464TIP3    H228588   5.005   0.709  18.573  1.7339  1.4149  0.4684
 1465TIP3   OH228589   4.539   6.819  18.764  0.0189  0.4397  0.0257
 1465TIP3    H128590   4.611   6.800  18.824  1.0492 -2.3964 -1.8707
 1465TIP3    H228591   4.581   6.822  18.677 -2.1651 -2.2697 -1.2685
 1466TIP3   OH228592   4.308   6.563  18.089 -0.4962 -0.0740 -0.0596
 1466TIP3    H128593   4.367   6.637  18.100  0.5939 -0.9948  0.6174
 1466TIP3    H228594   4.249   6.567  18.164  0.9228 -1.0390  1.1850
 1467TIP3   OH228595   0.079   4.433  17.941 -0.2625  1.0524 -0.2580
 1467TIP3    H128596   0.073   4.477  17.857 -1.0000  1.9681  0.2619
 1467TIP3    H228597   0.173   4.416  17.953 -0.2472 -0.0524 -1.7290
 1468TIP3   OH228598   2.357   5.239  17.508 -0.1906  0.9613 -0.0125
 1468TIP3    H128599   2.365   5.186  17.588 -0.0788 -0.0920 -0.6991
 1468TIP3    H228600   2.264   5.236  17.487 -0.2151  1.2126  0.0590
 1469TIP3   OH228601   5.578   4.119  16.925 -0.4713 -0.3135  0.0101
 1469TIP3    H128602   5.630   4.195  16.900 -2.4895  0.7363 -1.2990
 1469TIP3    H228603   5.621   4.045  16.882  1.4646  0.0610  1.2289
 1470TIP3   OH228604   5.109   4.367  17.846  0.6476 -0.3558 -0.7538
 1470TIP3    H128605   5.140   4.279  17.823  0.8097 -1.2583  2.4612
 1470TIP3    H228606   5.026   4.353  17.891 -0.0371  1.3038 -1.4005
 1471TIP3   OH228607   3.893   6.512  19.350 -0.1580 -0.7110 -0.3359
 1471TIP3    H128608   3.808   6.528  19.390 -0.6617 -0.4515 -1.4677
 1471TIP3    H228609   3.938   6.453  19.411 -0.1689  1.0502  1.4944
 1472TIP3   OH228610   7.162   1.208  17.621 -0.1595  0.1540  0.5805
 1472TIP3    H128611   7.195   1.298  17.611  2.4187 -0.6929  0.6530
 1472TIP3    H228612   7.116   1.191  17.539 -1.9732  1.9839  1.1332
 1473TIP3   OH228613   2.237   7.573  18.686  0.3662 -0.2068  0.2896
 1473TIP3    H128614   2.146   7.590  18.659 -0.0207  0.1062  1.7077
 1473TIP3    H228615   2.243   7.609  18.774  2.0610  0.3184 -0.0041
 1474TIP3   OH228616   4.310   0.601  17.502 -0.1443  0.0116 -0.9133
 1474TIP3    H128617   4.248   0.565  17.566  0.1158 -0.6302 -1.0168
 1474TIP3    H228618   4.266   0.679  17.469 -0.9070 -0.4295 -0.9889
 1475TIP3   OH228619   1.705   4.097  18.433  0.0072 -0.0655 -0.0477
 1475TIP3    H128620   1.795   4.126  18.417 -0.4947  0.6196 -1.8673
 1475TIP3    H228621   1.651   4.153  18.377 -1.8187  1.1636  2.7196
 1476TIP3   OH228622   7.613   3.327  17.343 -0.3393  0.3034  0.2375
 1476TIP3    H128623   7.582   3.312  17.253 -1.2788 -1.1345  0.7693
 1476TIP3    H228624   7.592   3.418  17.361 -1.4598  0.2059 -0.4934
 1477TIP3   OH228625   6.786   0.008  17.874  0.4323 -0.5580 -0.1293
 1477TIP3    H128626   6.818   0.070  17.809  1.0758 -0.1984  0.5133
 1477TIP3    H228627   6.824   0.038  17.957 -1.5639 -0.1143  0.6959
 1478TIP3   OH228628   3.950   0.651  18.964  0.0420  0.0445  0.3693
 1478TIP3    H128629   4.044   0.638  18.948 -0.1749 -1.9441  0.4490
 1478TIP3    H228630   3.921   0.707  18.891  0.9171 -0.9854 -0.8238
 1479TIP3   OH228631   0.071   6.164  19.571 -0.1283 -0.3633  0.1139
 1479TIP3    H128632   0.127   6.137  19.498 -0.7591 -2.0355  0.1852
 1479TIP3    H228633   0.042   6.081  19.610 -1.6569  0.4691  0.8277
 1480TIP3   OH228634   5.190   1.292  17.556 -0.0303 -0.4170 -0.3429
 1480TIP3    H128635   5.264   1.281  17.496  0.0178 -1.3084 -0.1387
 1480TIP3    H228636   5.229   1.290  17.643 -0.3375 -1.4520 -0.2148
 1481TIP3   OH228637   1.063   0.144  18.545 -0.0790 -0.0372  0.4125
 1481TIP3    H128638   1.091   0.197  18.620 -0.0282  1.5214 -0.6671
 1481TIP3    H228639   1.131   0.077  18.537  0.0277 -0.1055  1.6061
 1482TIP3   OH228640   5.180   5.592  18.485 -0.6067  0.1996 -0.3299
 1482TIP3    H128641   5.151   5.528  18.420  0.3198 -1.1838  0.5550
 1482TIP3    H228642   5.136   5.566  18.566  0.7566 -0.1342  0.3392
 1483TIP3   OH228643   0.628   1.482  18.436  0.2321  0.3465 -0.4703
 1483TIP3    H128644   0.616   1.547  18.366 -3.0951 -1.8707 -2.2670
 1483TIP3    H228645   0.540   1.467  18.470  1.2602 -1.3137  1.7099
 1484TIP3   OH228646   4.030   4.189  17.859  0.4242 -0.0112 -0.0148
 1484TIP3    H128647   4.106   4.245  17.845  0.5153  0.0216  0.5758
 1484TIP3    H228648   4.035   4.123  17.789  0.9980 -0.0145  0.0254
 1485TIP3   OH228649   5.544   2.884  18.464 -0.2347  0.4435 -0.2001
 1485TIP3    H128650   5.513   2.871  18.553 -1.8404  2.3685 -0.3948
 1485TIP3    H228651   5.614   2.820  18.453 -0.3826 -0.2352  2.2216
 1486TIP3   OH228652   4.353   7.120  16.966 -0.0410 -0.0959  0.2016
 1486TIP3    H128653   4.269   7.131  17.010  0.7428  2.9074  1.1706
 1486TIP3    H228654   4.334   7.062  16.892 -3.0563  0.8015  0.1630
 1487TIP3   OH228655   7.212   5.320  19.361 -0.0376  0.2123  0.3816
 1487TIP3    H128656   7.242   5.242  19.314  1.0300  0.2872  0.9130
 1487TIP3    H228657   7.165   5.284  19.437  1.4226  0.0508  1.2413
 1488TIP3   OH228658   1.586   0.696  18.414  0.6156 -0.2476  0.2028
 1488TIP3    H128659   1.569   0.667  18.325  2.6079 -0.7128 -0.0526
 1488TIP3    H228660   1.676   0.727  18.413  0.4129  0.5208  1.8754
 1489TIP3   OH228661   2.067   7.477  17.419 -0.4445 -0.2825 -0.3186
 1489TIP3    H128662   2.066   7.486  17.514 -0.8188  0.7734 -0.4058
 1489TIP3    H228663   2.107   7.558  17.388  0.2452 -0.8810 -1.0437
 1490TIP3   OH228664   4.427   0.089  17.431 -0.1126  0.2531  0.5825
 1490TIP3    H128665   4.440  -0.003  17.456  1.2049 -0.1145 -1.2961
 1490TIP3    H228666   4.480   0.101  17.353 -2.1477  1.9775 -0.6481
 1491TIP3   OH228667   6.272   3.129  19.038 -0.5310  0.2380 -0.1966
 1491TIP3    H128668   6.329   3.166  18.970  0.3383 -1.2241 -0.2992
 1491TIP3    H228669   6.215   3.068  18.990 -0.8771  0.2575  0.1891
 1492TIP3   OH228670   2.670   2.321  18.814 -0.3185 -0.2250 -0.2120
 1492TIP3    H128671   2.589   2.340  18.862  0.1386 -0.1111  0.5326
 1492TIP3    H228672   2.740   2.347  18.874  0.2777 -0.6256 -0.7231
 1493TIP3   OH228673   7.035   5.712  16.817 -0.1939 -0.4354  0.1492
 1493TIP3    H128674   6.978   5.725  16.741  0.6656  2.4185 -0.1471
 1493TIP3    H228675   6.975   5.699  16.890 -1.3905  2.7477 -0.1056
 1494TIP3   OH228676   4.970   1.184  18.485 -0.1893 -0.5703 -0.5889
 1494TIP3    H128677   5.039   1.120  18.504  1.0296  0.3733 -1.6155
 1494TIP3    H228678   4.959   1.180  18.391  0.8220  1.5382 -0.8694
 1495TIP3   OH228679   4.880   0.730  18.713 -0.1075 -0.4018 -0.1515
 1495TIP3    H128680   4.836   0.647  18.695 -1.0361 -0.0652  0.4872
 1495TIP3    H228681   4.817   0.797  18.688  0.7516  0.1319 -0.9513
 1496TIP3   OH228682   2.516   3.934  19.182  0.4197  0.6584  0.5772
 1496TIP3    H128683   2.497   3.854  19.133 -2.1145  1.4229  0.1667
 1496TIP3    H228684   2.574   3.984  19.124  0.5371 -0.0790  0.0377
 1497TIP3   OH228685   2.765   6.189  18.365 -0.4526  0.3497  0.1845
 1497TIP3    H128686   2.787   6.247  18.293 -2.3380 -1.3646 -1.9202
 1497TIP3    H228687   2.847   6.180  18.414  0.3104  3.3654 -0.3403
 1498TIP3   OH228688   4.521   6.230  19.476  0.2750  0.0539 -0.0115
 1498TIP3    H128689   4.616   6.223  19.464  0.2423 -1.1075  0.2643
 1498TIP3    H228690   4.504   6.324  19.477  1.2825  0.2679 -1.0985
 1499TIP3   OH228691   7.377   6.924  18.742 -0.2615 -0.6557 -0.4846
 1499TIP3    H128692   7.305   6.936  18.803 -0.2635 -1.4859 -0.3093
 1499TIP3    H228693   7.396   6.830  18.746  0.6860 -0.4843 -0.6819
 1500TIP3   OH228694   7.166   0.744  18.947 -0.2699 -0.0735 -0.0990
 1500TIP3    H128695   7.253   0.712  18.923 -0.7631 -1.2755 -0.3445
 1500TIP3    H228696   7.167   0.750  19.042  0.6606  1.6652 -0.1894
 1501TIP3   OH228697   3.279   7.357  16.654 -0.4972 -0.0767  0.2026
 1501TIP3    H128698   3.194   7.340  16.693  0.6353 -0.6807  2.5532
 1501TIP3    H228699   3.269   7.332  16.562 -3.6563  2.6548 -0.3558
 1502TIP3   OH228700   3.054   4.409  19.251  0.5055  0.2605 -0.0603
 1502TIP3    H128701   2.978   4.448  19.293 -0.2200 -0.8791 -0.2581
 1502TIP3    H228702   3.088   4.478  19.194  1.7929  2.0098  2.6133
 1503TIP3   OH228703   6.735   1.701  19.203  0.0461 -0.0944  0.2387
 1503TIP3    H128704   6.766   1.689  19.293 -0.6104 -0.4760  0.4151
 1503TIP3    H228705   6.642   1.680  19.207 -0.1564  0.6577 -0.3743
 1504TIP3   OH228706   7.366   5.857  17.764  0.0214  0.2807  0.0894
 1504TIP3    H128707   7.380   5.809  17.682  1.1762  0.0293  0.4062
 1504TIP3    H228708   7.426   5.931  17.759 -0.6587  0.8478  0.2586
 1505TIP3   OH228709   3.712   3.076  17.573 -0.4714 -0.0745  0.3105
 1505TIP3    H128710   3.717   3.069  17.477  0.8387  0.5509  0.3093
 1505TIP3    H228711   3.777   3.142  17.595 -1.0770  0.1173  1.6109
 1506TIP3   OH228712   7.536   5.946  16.777 -0.0678 -0.2986  0.6613
 1506TIP3    H128713   7.451   5.924  16.738 -0.1388 -0.2154  0.7708
 1506TIP3    H228714   7.515   6.005  16.849  0.0377 -0.7126  1.0348
 1507TIP3   OH228715   0.695   5.363  18.167  0.0874 -0.6195 -0.1172
 1507TIP3    H128716   0.700   5.284  18.112 -1.3429 -1.0928  0.3799
 1507TIP3    H228717   0.786   5.383  18.189  0.5630 -1.4131 -1.2571
 1508TIP3   OH228718   4.017   5.700  19.824  0.3153 -0.3209 -0.0443
 1508TIP3    H128719   4.054   5.636  19.763  0.6050 -0.6718  0.4987
 1508TIP3    H228720   4.068   5.690  19.904 -0.9635 -0.8355  0.7371
 1509TIP3   OH228721   4.037   4.260  18.548 -0.0080  0.4405  0.2818
 1509TIP3    H128722   4.014   4.340  18.500  1.4875  0.5250 -0.3738
 1509TIP3    H228723   4.053   4.195  18.480  2.4956  0.6534  0.5424
 1510TIP3   OH228724   4.957   3.298  17.353 -0.0834 -0.2714 -0.2534
 1510TIP3    H128725   4.882   3.240  17.358 -0.2701 -0.0497 -0.5008
 1510TIP3    H228726   4.965   3.320  17.260  0.8629 -1.0507 -0.3774
 1511TIP3   OH228727   5.505   3.625  19.266  0.2768 -0.0098 -0.0189
 1511TIP3    H128728   5.560   3.703  19.271 -0.2172  0.2818  1.8444
 1511TIP3    H228729   5.426   3.654  19.221  0.3030  0.4494  0.2234
 1512TIP3   OH228730   2.849   7.409  18.875 -0.2112  0.1024 -0.2231
 1512TIP3    H128731   2.879   7.331  18.922 -2.2226 -0.3315  0.4804
 1512TIP3    H228732   2.896   7.408  18.792  0.3786 -1.4319  0.1099
 1513TIP3   OH228733   3.584   4.030  17.236  0.3123  0.8437  1.0372
 1513TIP3    H128734   3.597   4.093  17.307  2.2119 -0.0592  1.5772
 1513TIP3    H228735   3.651   4.053  17.172 -0.1012  0.4363  0.4546
 1514TIP3   OH228736   3.764   6.463  18.513  0.0429  0.4530  0.7103
 1514TIP3    H128737   3.763   6.448  18.419  1.1299  0.6607  0.6633
 1514TIP3    H228738   3.680   6.506  18.531 -0.6140 -0.4870  0.0016
 1515TIP3   OH228739   1.940   2.407  18.181 -0.1235  0.1625 -0.1578
 1515TIP3    H128740   2.006   2.471  18.206 -1.4295  2.3264 -1.8635
 1515TIP3    H228741   1.983   2.322  18.191  2.1469  1.3620  0.8659
 1516TIP3   OH228742   5.296   5.628  18.866  0.3453 -0.0893 -0.1825
 1516TIP3    H128743   5.243   5.549  18.857 -2.6964  1.9180 -1.4695
 1516TIP3    H228744   5.233   5.697  18.886  3.0482  1.8396  2.6126
 1517TIP3   OH228745   7.317   1.539  18.000  0.4031  0.2743  0.3587
 1517TIP3    H128746   7.261   1.507  17.929  0.3560 -0.1767  0.5928
 1517TIP3    H228747   7.389   1.584  17.956  0.2443  0.2106  0.0350
 1518TIP3   OH228748   6.803   7.057  17.586  0.3319 -0.1394 -0.2160
 1518TIP3    H128749   6.896   7.053  17.606  0.3101 -0.1805 -0.1214
 1518TIP3    H228750   6.764   7.099  17.663  0.1528 -0.9348  0.1338
 1519TIP3   OH228751   0.311   2.546  19.009  0.2074 -0.2360  0.3620
 1519TIP3    H128752   0.404   2.525  19.021  0.5041 -0.1414 -1.5000
 1519TIP3    H228753   0.290   2.514  18.921 -0.7537  2.2684 -0.4252
 1520TIP3   OH228754   0.868   2.006  17.799  0.7441  0.1163 -0.2545
 1520TIP3    H128755   0.862   1.911  17.787 -2.9508  0.3216 -1.0322
 1520TIP3    H228756   0.907   2.037  17.717  0.5089 -0.6199 -0.6650
 1521TIP3   OH228757   3.571   3.865  18.270 -0.3805  0.7794  1.1264
 1521TIP3    H128758   3.596   3.788  18.320  0.9514  0.5061  0.1173
 1521TIP3    H228759   3.553   3.832  18.182 -0.0588  1.5717  0.7500
 1522TIP3   OH228760   2.340   4.947  17.145 -0.3285 -0.4310 -0.5582
 1522TIP3    H128761   2.249   4.933  17.170 -0.4052  1.5798  0.4323
 1522TIP3    H228762   2.376   5.001  17.214  0.9740  0.7451 -2.0827
 1523TIP3   OH228763   1.140   4.316  18.522 -0.1782 -0.3519  0.2450
 1523TIP3    H128764   1.090   4.350  18.448 -1.1181 -0.0584  1.0008
 1523TIP3    H228765   1.109   4.366  18.597 -1.1087 -2.3612  1.2714
 1524TIP3   OH228766   4.036   3.678  19.649 -0.2591 -0.6965  0.1938
 1524TIP3    H128767   4.004   3.705  19.735  0.3971 -0.8845  0.5029
 1524TIP3    H228768   4.049   3.583  19.656  3.4722 -0.2672  1.1729
 1525TIP3   OH228769   5.164   5.140  17.518  0.3817  0.6985 -0.3588
 1525TIP3    H128770   5.077   5.158  17.481 -0.8513 -0.3557  1.7747
 1525TIP3    H228771   5.195   5.225  17.548 -0.4401  0.9437 -0.1647
 1526TIP3   OH228772   1.322   4.069  17.770 -0.1673 -0.5209  0.2469
 1526TIP3    H128773   1.361   4.005  17.710 -2.1091 -2.2614  0.6967
 1526TIP3    H228774   1.348   4.154  17.735  0.4404 -1.5076 -1.8881
 1527TIP3   OH228775   2.452   7.125  19.050 -0.1037  0.1002 -0.3496
 1527TIP3    H128776   2.358   7.134  19.064 -0.1761 -1.6069  0.4488
 1527TIP3    H228777   2.460   7.102  18.958 -0.2675  2.4067 -1.0074
 1528TIP3   OH228778   4.351   4.359  19.457  0.2936 -0.2821  0.8158
 1528TIP3    H128779   4.305   4.375  19.539 -2.1056  0.5027 -0.5945
 1528TIP3    H228780   4.322   4.273  19.428 -3.2375  1.5272 -1.7404
 1529TIP3   OH228781   5.850   3.625  19.236 -0.2941 -1.0238 -0.3347
 1529TIP3    H128782   5.847   3.530  19.229 -1.2844 -0.9979 -0.4578
 1529TIP3    H228783   5.893   3.642  19.320 -0.5233 -1.5886 -0.1023
 1530TIP3   OH228784   7.204   4.618  19.066 -0.3891 -0.6656  0.0783
 1530TIP3    H128785   7.238   4.594  18.980 -1.6861 -0.5048 -0.5117
 1530TIP3    H228786   7.266   4.580  19.128  0.3466 -1.1437 -0.9177
 1531TIP3   OH228787   7.193   6.847  19.160 -0.0396 -0.0738 -0.0972
 1531TIP3    H128788   7.137   6.776  19.128  0.1957 -0.0228 -0.6258
 1531TIP3    H228789   7.280   6.827  19.125  0.4519 -0.5464  1.2931
 1532TIP3   OH228790   0.615   3.446  18.401  0.2247 -0.3477  0.6406
 1532TIP3    H128791   0.551   3.511  18.431  0.8954  0.2345  0.8441
 1532TIP3    H228792   0.696   3.495  18.394  0.5711 -0.9994  0.0343
 1533TIP3   OH228793   3.154   3.656  17.681 -0.4122 -0.1532  0.6369
 1533TIP3    H128794   3.136   3.708  17.603 -0.8280 -0.0171  0.8238
 1533TIP3    H228795   3.223   3.705  17.726 -1.4742  0.7788  1.3148
 1534TIP3   OH228796   0.679   2.048  18.201  0.2290  0.3205  0.0879
 1534TIP3    H128797   0.665   2.017  18.111 -1.6036  4.5335 -1.3106
 1534TIP3    H228798   0.736   2.124  18.192  0.1329  0.7754  2.5486
 1535TIP3   OH228799   2.482   4.995  18.071 -0.2503 -0.0156 -0.0709
 1535TIP3    H128800   2.508   5.059  18.138 -0.2820 -1.8260  1.7463
 1535TIP3    H228801   2.401   5.031  18.035 -0.0646  1.1645  0.6094
 1536TIP3   OH228802   6.930   0.398  18.256  0.6203  0.1575  0.0486
 1536TIP3    H128803   6.951   0.457  18.327  1.8556  0.2248 -0.3551
 1536TIP3    H228804   6.995   0.328  18.261 -0.1219 -0.5811 -0.1707
 1537TIP3   OH228805   6.903   5.341  17.488 -1.0031 -0.6873  0.0824
 1537TIP3    H128806   6.890   5.342  17.394  0.4687 -0.0463 -0.1261
 1537TIP3    H228807   6.909   5.248  17.511 -2.9355 -0.9326 -0.1825
 1538TIP3   OH228808   4.751   3.279  18.240 -0.2684  0.2399 -0.0175
 1538TIP3    H128809   4.752   3.228  18.160  0.6738  1.0091 -0.5236
 1538TIP3    H228810   4.815   3.349  18.225  1.2273 -0.5581  2.0145
 1539TIP3   OH228811   4.695   3.617  17.432 -0.4151  0.0315  0.0309
 1539TIP3    H128812   4.679   3.691  17.373  0.6049 -0.2254 -0.5931
 1539TIP3    H228813   4.609   3.577  17.443 -0.5767 -0.1551 -1.6259
 1540TIP3   OH228814   1.932   1.695  17.737 -0.0387  0.0476 -0.4484
 1540TIP3    H128815   1.862   1.691  17.672 -0.6164  0.2450  0.1513
 1540TIP3    H228816   1.894   1.743  17.810 -0.1878 -2.2017  1.0227
 1541TIP3   OH228817   3.054   6.920  17.278  0.3935 -0.5703  0.3845
 1541TIP3    H128818   3.125   6.978  17.249  1.9637 -2.6738 -0.2665
 1541TIP3    H228819   3.004   6.902  17.199  0.5465 -0.9185  0.3660
 1542TIP3   OH228820   1.452   6.628  19.453 -0.1998  0.6537 -0.0246
 1542TIP3    H128821   1.452   6.553  19.513 -1.2055  1.3635  0.8981
 1542TIP3    H228822   1.536   6.621  19.406 -0.7283 -1.6641 -0.7743
 1543TIP3   OH228823   2.896   1.525  19.312  0.1873  0.1476  0.7147
 1543TIP3    H128824   2.903   1.578  19.233  0.3338 -0.8461  0.0464
 1543TIP3    H228825   2.806   1.493  19.312  0.4664 -0.6648  0.4025
 1544TIP3   OH228826   4.997   0.090  17.702 -0.9751 -0.2503 -0.2020
 1544TIP3    H128827   4.920   0.108  17.648 -0.7318  1.3178 -0.0707
 1544TIP3    H228828   5.042   0.018  17.657 -0.7061  1.0835 -2.1782
 1545TIP3   OH228829   2.037   2.459  16.815 -0.1492  0.2582  0.1491
 1545TIP3    H128830   2.016   2.544  16.777 -0.4322 -0.5913 -1.7459
 1545TIP3    H228831   2.128   2.443  16.788 -0.8145 -0.9939 -1.5491
 1546TIP3   OH228832   4.345   4.857  17.080 -0.1851  0.0060  0.0635
 1546TIP3    H128833   4.289   4.875  17.004 -1.4307 -0.2880  0.8834
 1546TIP3    H228834   4.371   4.766  17.070  1.9384  0.6835 -1.4156
 1547TIP3   OH228835   0.548   0.651  18.708 -0.3148 -0.1891 -0.4679
 1547TIP3    H128836   0.546   0.592  18.632 -0.5835 -0.1407 -0.4981
 1547TIP3    H228837   0.530   0.737  18.671 -5.0337 -0.6430  0.1503
 1548TIP3   OH228838   3.619   7.646  19.101 -0.3086  0.0031  0.0090
 1548TIP3    H128839   3.637   7.701  19.024 -1.5686  1.5832  0.7818
 1548TIP3    H228840   3.705   7.629  19.139  0.1680  0.9275 -0.6188
 1549TIP3   OH228841   3.840   5.405  17.040  0.1683 -0.4382  0.3479
 1549TIP3    H128842   3.802   5.471  16.982  0.3818  0.6049  1.3521
 1549TIP3    H228843   3.924   5.383  16.999 -0.0674 -0.3734 -0.1866
 1550TIP3   OH228844   6.288   0.298  16.697 -0.2012 -0.0579 -0.2266
 1550TIP3    H128845   6.220   0.345  16.746  0.2605  1.6904 -1.1664
 1550TIP3    H228846   6.239   0.235  16.643 -0.8897 -0.2890  0.6353
 1551TIP3   OH228847   6.203   4.151  19.260 -0.6678  0.5994 -0.0399
 1551TIP3    H128848   6.295   4.148  19.287 -0.8584 -2.0895  0.5099
 1551TIP3    H228849   6.164   4.219  19.315  1.0460  2.1539 -0.6320
 1552TIP3   OH228850   3.364   6.703  18.417 -0.0491  0.9827 -0.2930
 1552TIP3    H128851   3.289   6.734  18.467  0.3159  1.3954 -0.0016
 1552TIP3    H228852   3.401   6.633  18.472 -0.0824  0.9350 -0.3313
 1553TIP3   OH228853   2.103   5.882  18.139 -0.1632  0.3030  0.2181
 1553TIP3    H128854   2.194   5.855  18.151 -0.7981 -1.7024  0.8270
 1553TIP3    H228855   2.110   5.973  18.111  2.0567  0.0042 -0.4612
 1554TIP3   OH228856   5.326   0.198  17.974  0.8423 -0.6103 -0.0575
 1554TIP3    H128857   5.305   0.189  18.067  3.4600  0.2976  0.7072
 1554TIP3    H228858   5.244   0.223  17.933  0.3575  3.2511  2.7252
 1555TIP3   OH228859   4.507   7.505  17.368  0.5742  0.4917 -0.1445
 1555TIP3    H128860   4.418   7.515  17.333  0.1830  1.8960  1.1597
 1555TIP3    H228861   4.563   7.552  17.306 -0.1236  3.0767  1.0711
 1556TIP3   OH228862   6.915   3.688  16.828 -0.1913  0.7427  0.9784
 1556TIP3    H128863   6.985   3.749  16.853  0.1624  1.6982 -1.9472
 1556TIP3    H228864   6.850   3.743  16.785  0.9359 -0.9409 -3.4193
 1557TIP3   OH228865   4.001   0.138  18.821 -0.0576 -0.0363 -0.5321
 1557TIP3    H128866   4.027   0.046  18.819  1.1602  0.2794 -0.4372
 1557TIP3    H228867   4.084   0.185  18.832 -0.9211  0.9394  2.6683
 1558TIP3   OH228868   2.327   0.726  17.295  0.4766 -0.7523 -0.1013
 1558TIP3    H128869   2.234   0.730  17.270  0.1895  0.8971  1.0827
 1558TIP3    H228870   2.374   0.739  17.213 -0.3196 -1.7755 -0.7479
 1559TIP3   OH228871   1.909   1.510  17.444 -0.2685  0.3482 -0.1216
 1559TIP3    H128872   1.941   1.479  17.529 -1.6481 -1.7012 -0.2973
 1559TIP3    H228873   1.848   1.442  17.415 -1.1531  1.8565 -1.9605
 1560TIP3   OH228874   2.164   5.866  17.560 -0.5878 -0.2730  0.2884
 1560TIP3    H128875   2.237   5.920  17.529 -0.6136  0.9633  2.2108
 1560TIP3    H228876   2.185   5.777  17.531  0.7694  0.3445 -0.7195
 1561TIP3   OH228877   4.345   0.999  19.082 -0.3921  0.1421  0.0020
 1561TIP3    H128878   4.430   0.992  19.124  0.1714  0.6566 -1.0093
 1561TIP3    H228879   4.291   1.046  19.146 -0.3451 -1.3696  1.2130
 1562TIP3   OH228880   4.673   4.284  18.211  0.1986  0.7916  0.3423
 1562TIP3    H128881   4.747   4.344  18.222  1.3409 -0.4772 -0.0690
 1562TIP3    H228882   4.632   4.312  18.129  1.0986  0.6276 -0.1731
 1563TIP3   OH228883   2.966   4.862  17.631  0.4758  0.4768 -0.2180
 1563TIP3    H128884   2.999   4.917  17.560  0.3026  1.2417  0.2871
 1563TIP3    H228885   3.019   4.886  17.707  1.0909 -0.7935 -0.2190
 1564TIP3   OH228886   0.411   6.088  16.403 -0.5051 -0.2441  0.0445
 1564TIP3    H128887   0.493   6.039  16.409  0.4429  1.3873  1.0010
 1564TIP3    H228888   0.382   6.098  16.494 -1.0287  0.4097 -0.1853
 1565TIP3   OH228889   3.709   5.383  19.140 -0.3522  0.0209  0.1135
 1565TIP3    H128890   3.631   5.339  19.174 -0.4689 -0.9141 -1.2523
 1565TIP3    H228891   3.689   5.399  19.048  0.6236  0.8105  0.0240
 1566TIP3   OH228892   5.255   6.996  17.182  0.7338  0.0305  0.6890
 1566TIP3    H128893   5.347   6.988  17.155  0.7904 -0.2449  0.9545
 1566TIP3    H228894   5.220   7.067  17.128  0.8856 -0.4048  0.0117
 1567TIP3   OH228895   4.183   5.596  19.620  0.4402 -0.6346 -0.3892
 1567TIP3    H128896   4.107   5.539  19.606  0.9364 -1.0910 -1.2955
 1567TIP3    H228897   4.214   5.618  19.532  0.4302  0.8345 -0.0612
 1568TIP3   OH228898   3.205   3.731  17.401 -0.5449  0.6995 -0.4814
 1568TIP3    H128899   3.153   3.781  17.338 -1.2266  0.5067 -0.0900
 1568TIP3    H228900   3.289   3.775  17.404 -0.7503  1.1347 -0.9945
 1569TIP3   OH228901   6.364   6.830  18.684  0.3319 -0.3713  0.2873
 1569TIP3    H128902   6.326   6.886  18.751 -0.7682 -0.6703 -0.0715
 1569TIP3    H228903   6.342   6.874  18.601 -0.5822 -1.3311 -0.0038
 1570TIP3   OH228904   6.363   3.423  17.868 -0.0609  0.1316 -0.0541
 1570TIP3    H128905   6.450   3.464  17.870 -1.2544  2.9295 -0.9014
 1570TIP3    H228906   6.310   3.478  17.925 -1.4782 -1.1502 -0.0858
 1571TIP3   OH228907   2.123   7.645  19.067 -0.2297 -0.2901  0.4072
 1571TIP3    H128908   2.200   7.692  19.098  0.0466 -0.2099 -0.3838
 1571TIP3    H228909   2.157   7.562  19.034 -0.4586 -0.1899 -0.0913
 1572TIP3   OH228910   5.712   5.881  18.477  0.5263 -0.1709 -0.0188
 1572TIP3    H128911   5.744   5.820  18.544  0.4218  0.6587  0.8019
 1572TIP3    H228912   5.684   5.958  18.526  1.9943  1.1329 -1.1549
 1573TIP3   OH228913   1.969   4.999  17.662  0.3604 -0.2904 -0.2800
 1573TIP3    H128914   1.883   4.966  17.691 -0.7284  2.1187 -0.5247
 1573TIP3    H228915   2.032   4.944  17.708 -1.3173 -1.4351  0.7829
 1574TIP3   OH228916   3.724   3.805  19.641 -0.1024  0.3234 -0.2654
 1574TIP3    H128917   3.787   3.803  19.714 -1.0457  0.7839  0.5916
 1574TIP3    H228918   3.766   3.859  19.574  0.6245  0.2155  0.0953
 1575TIP3   OH228919   5.849   2.360  18.949 -0.4094  0.4629 -0.6446
 1575TIP3    H128920   5.825   2.287  18.891 -1.0683 -0.8122  1.1457
 1575TIP3    H228921   5.940   2.379  18.926 -0.6328 -0.0040 -2.0593
 1576TIP3   OH228922   0.521   7.398  17.358  0.5837 -0.6739  0.0764
 1576TIP3    H128923   0.470   7.476  17.379 -1.6067 -1.8108 -0.6309
 1576TIP3    H228924   0.601   7.431  17.317  0.1661  1.1986  0.6750
 1577TIP3   OH228925   1.747   0.685  18.971 -0.1021  0.2906  0.1440
 1577TIP3    H128926   1.825   0.722  19.012  1.6418 -1.6901 -1.1296
 1577TIP3    H228927   1.679   0.689  19.039  1.6409  0.3500  1.9773
 1578TIP3   OH228928   0.694   5.174  19.478  0.0607 -0.5296 -0.3038
 1578TIP3    H128929   0.713   5.123  19.557 -1.5531 -2.1759 -0.9334
 1578TIP3    H228930   0.633   5.121  19.428  0.6260  0.7035 -2.4553
 1579TIP3   OH228931   0.924   2.133  18.585 -0.1473  0.2738  0.3886
 1579TIP3    H128932   0.886   2.049  18.559 -0.5827  0.7650 -0.5983
 1579TIP3    H228933   0.983   2.156  18.513 -1.5877  1.7977 -0.3695
 1580TIP3   OH228934   3.430   5.790  17.593  0.6885  0.2472 -0.4895
 1580TIP3    H128935   3.488   5.728  17.550  1.4158  0.4547  0.1751
 1580TIP3    H228936   3.406   5.852  17.525  1.8254  0.5727 -0.6169
 1581TIP3   OH228937   6.923   3.370  18.972 -0.0237 -0.4403 -0.1944
 1581TIP3    H128938   7.002   3.330  19.008  1.0609  0.3338 -1.6201
 1581TIP3    H228939   6.940   3.375  18.878 -2.0151 -0.7728 -0.6149
 1582TIP3   OH228940   6.941   2.290  17.193 -0.4361 -0.5033  0.0225
 1582TIP3    H128941   7.020   2.310  17.143 -0.2425  0.7902  0.8054
 1582TIP3    H228942   6.872   2.342  17.151 -0.0986  1.2745  1.5757
 1583TIP3   OH228943   6.960   6.481  19.326 -0.1098  0.1928 -0.1913
 1583TIP3    H128944   7.004   6.402  19.293  0.9922  1.3326 -1.5676
 1583TIP3    H228945   7.025   6.521  19.384  0.4043  1.4583 -1.5923
 1584TIP3   OH228946   6.484   0.279  17.122 -0.1042 -0.5272  0.4236
 1584TIP3    H128947   6.576   0.265  17.145 -0.4254 -3.2434  0.4251
 1584TIP3    H228948   6.484   0.358  17.068  2.2437 -0.5482  0.2852
 1585TIP3   OH228949   1.130   3.216  16.610 -0.1074 -0.3368  0.1467
 1585TIP3    H128950   1.202   3.261  16.564  0.2481 -1.3296 -0.2963
 1585TIP3    H228951   1.172   3.143  16.654 -0.7949 -0.7041  0.1992
 1586TIP3   OH228952   4.861   3.879  19.673  0.3790 -0.8316  0.2026
 1586TIP3    H128953   4.928   3.814  19.695  0.8797 -0.0455  1.0765
 1586TIP3    H228954   4.885   3.957  19.723 -1.1820 -0.5113  0.5181
 1587TIP3   OH228955   2.733   6.398  18.729 -0.2765  0.2622 -0.1573
 1587TIP3    H128956   2.656   6.429  18.681 -0.7562  0.1179  0.4995
 1587TIP3    H228957   2.698   6.334  18.792  0.5364 -0.7414 -0.6904
 1588TIP3   OH228958   4.688   7.195  19.415 -0.1410 -0.3590  0.3170
 1588TIP3    H128959   4.600   7.214  19.447 -0.2158 -0.8789  0.4202
 1588TIP3    H228960   4.702   7.103  19.435  0.1560 -0.4616 -0.3290
 1589TIP3   OH228961   2.345   5.742  18.125  0.0405 -0.2014 -0.2046
 1589TIP3    H128962   2.423   5.780  18.165  0.4290 -0.5651 -0.6121
 1589TIP3    H228963   2.368   5.730  18.033 -0.0697 -1.4135 -0.0894
 1590TIP3   OH228964   2.031   2.167  17.498 -0.4449 -0.1549  0.2649
 1590TIP3    H128965   2.087   2.089  17.504 -1.2003 -0.6197  2.0329
 1590TIP3    H228966   1.980   2.154  17.419  2.8811  1.0165 -2.3258
 1591TIP3   OH228967   5.026   0.701  19.167 -0.0139  0.1120 -0.3682
 1591TIP3    H128968   5.085   0.768  19.132 -0.3060  0.3796 -0.3521
 1591TIP3    H228969   5.066   0.674  19.250  0.2613  0.0501 -0.5217
 1592TIP3   OH228970   2.957   0.276  17.587 -0.6493  0.1020  0.0875
 1592TIP3    H128971   2.896   0.213  17.622  0.2743 -0.3927  0.8443
 1592TIP3    H228972   2.966   0.343  17.655  1.7830 -1.2855  1.2850
 1593TIP3   OH228973   3.151   7.019  19.039 -0.1598 -0.1030 -0.2246
 1593TIP3    H128974   3.229   6.995  18.988 -0.2619 -0.4297 -0.2275
 1593TIP3    H228975   3.092   6.944  19.030 -0.3842  0.0502 -0.0388
 1594TIP3   OH228976   0.671   4.497  18.176 -0.3823 -0.1596 -0.8236
 1594TIP3    H128977   0.744   4.558  18.171 -2.1991  2.1129 -0.8553
 1594TIP3    H228978   0.655   4.485  18.269 -0.1828 -0.4201 -0.8211
 1595TIP3   OH228979   6.260   2.575  17.648 -0.2851 -0.1107 -0.3123
 1595TIP3    H128980   6.199   2.601  17.579 -0.2685 -1.9742 -1.0958
 1595TIP3    H228981   6.206   2.528  17.711 -0.0280  0.1827  0.1302
 1596TIP3   OH228982   5.384   3.435  19.628 -0.1694  0.5789 -0.2514
 1596TIP3    H128983   5.330   3.472  19.698 -0.7031 -1.4663  0.4742
 1596TIP3    H228984   5.330   3.366  19.590  1.3461 -0.5090 -0.5089
 1597TIP3   OH228985   1.569   5.223  18.776 -0.6486  0.0666  0.0281
 1597TIP3    H128986   1.485   5.263  18.800  0.1466  1.6091  0.4304
 1597TIP3    H228987   1.614   5.291  18.725 -0.2093 -1.2724 -1.4333
 1598TIP3   OH228988   4.776   7.460  19.333 -0.2698 -0.1533 -0.4482
 1598TIP3    H128989   4.693   7.475  19.288 -0.6620 -1.1299 -0.0670
 1598TIP3    H228990   4.766   7.375  19.375 -0.0403  0.8344  1.7303
 1599TIP3   OH228991   2.201   3.351  19.340 -0.4833  0.0651 -0.4348
 1599TIP3    H128992   2.124   3.344  19.397 -1.6663  2.6232 -1.5447
 1599TIP3    H228993   2.228   3.443  19.348  0.6584 -0.0614 -2.2858
 1600TIP3   OH228994   7.041   6.107  18.218  0.1045 -0.2153  0.2533
 1600TIP3    H128995   6.988   6.177  18.255  0.1585  0.8369 -1.5825
 1600TIP3    H228996   6.982   6.061  18.158  0.4211 -0.9645  0.5021
 1601TIP3   OH228997   4.890   0.768  16.711  0.6294  0.3550 -0.3891
 1601TIP3    H128998   4.854   0.698  16.657 -0.1508  1.3970 -1.2752
 1601TIP3    H228999   4.983   0.747  16.719  0.7936  0.1930 -2.2070
 1602TIP3   OH229000   5.077   0.888  16.893 -0.0599  0.8353 -0.0643
 1602TIP3    H129001   5.167   0.913  16.872  0.7354 -1.4738  0.3493
 1602TIP3    H229002   5.076   0.793  16.886 -2.6857  0.8318 -0.7961
 1603TIP3   OH229003   7.339   1.268  17.175 -0.0528  0.4030  0.0306
 1603TIP3    H129004   7.319   1.360  17.193 -1.5678  0.1382 -0.1653
 1603TIP3    H229005   7.258   1.221  17.195  0.5032 -0.8208 -0.4525
 1604TIP3   OH229006   2.761   4.671  17.935  0.3758 -0.1976 -0.5033
 1604TIP3    H129007   2.817   4.645  18.007 -0.0198  2.3979  0.8377
 1604TIP3    H229008   2.672   4.650  17.965  0.2232  0.7461 -0.2727
 1605TIP3   OH229009   1.041   2.554  18.439 -0.2730 -0.6046 -0.0020
 1605TIP3    H129010   1.072   2.641  18.414 -0.1777 -0.5881  0.1719
 1605TIP3    H229011   1.081   2.495  18.375  0.4046 -0.6239  0.4227
 1606TIP3   OH229012   3.645   5.444  18.875  0.3966  0.3653  0.5456
 1606TIP3    H129013   3.654   5.370  18.815  0.0625  0.0568  0.8719
 1606TIP3    H229014   3.558   5.479  18.856  0.3345  0.3338  0.7722
 1607TIP3   OH229015   2.181   6.383  17.876  0.2340  0.2461  0.0945
 1607TIP3    H129016   2.257   6.375  17.934  0.8354 -0.7680 -0.8101
 1607TIP3    H229017   2.184   6.474  17.846  0.2517  0.6159  1.1678
 1608TIP3   OH229018   6.827   4.126  18.485 -0.3690 -0.3137  0.2942
 1608TIP3    H129019   6.846   4.199  18.545 -1.5912 -0.8500  1.4011
 1608TIP3    H229020   6.739   4.145  18.453  0.4039  0.1544 -1.6963
 1609TIP3   OH229021   7.594   7.587  18.810 -0.5321  0.1825 -0.2417
 1609TIP3    H129022   7.561   7.507  18.769  3.1584 -1.8910  0.2920
 1609TIP3    H229023   7.604   7.563  18.903  2.1727  0.5231 -0.3502
 1610TIP3   OH229024   7.671   4.131  17.677 -0.6222  0.2040 -0.0076
 1610TIP3    H129025   7.630   4.063  17.730  0.7149 -0.6374 -0.0292
 1610TIP3    H229026   7.686   4.090  17.592  0.2947  0.4838  0.0108
 1611TIP3   OH229027   6.692   1.000  17.455 -0.3853  0.6211 -0.3720
 1611TIP3    H129028   6.749   1.026  17.528  1.0274 -0.6390 -0.9693
 1611TIP3    H229029   6.716   1.059  17.384 -1.7212  1.8104  0.1274
 1612TIP3   OH229030   4.758   2.321  18.160 -0.3149 -0.8817  0.1678
 1612TIP3    H129031   4.803   2.400  18.192  0.6329 -1.7357  1.0377
 1612TIP3    H229032   4.725   2.279  18.239 -2.7663 -0.2561 -0.4567
 1613TIP3   OH229033   2.120   5.139  17.370 -0.0018 -0.1241 -0.0580
 1613TIP3    H129034   2.146   5.049  17.350 -1.2800  0.1257 -3.3498
 1613TIP3    H229035   2.028   5.133  17.393 -0.1158  0.3502 -0.3799
 1614TIP3   OH229036   2.715   0.807  17.708  0.2023  0.4915  0.3124
 1614TIP3    H129037   2.724   0.806  17.613  1.1123 -0.5264  0.3875
 1614TIP3    H229038   2.679   0.894  17.728  1.3964  1.2935 -0.8432
 1615TIP3   OH229039   5.871   0.958  17.836 -0.4373  0.1805 -0.1495
 1615TIP3    H129040   5.965   0.979  17.832 -0.1590 -0.8711  0.3503
 1615TIP3    H229041   5.843   0.991  17.921 -0.1696 -0.7714  0.3237
 1616TIP3   OH229042   1.256   0.430  17.952 -0.5749  0.3351  0.2207
 1616TIP3    H129043   1.241   0.522  17.927 -2.0928  0.2449  0.6703
 1616TIP3    H229044   1.223   0.424  18.041  0.1992 -0.4944  0.4602
 1617TIP3   OH229045   1.383   2.477  17.821  0.0902 -0.0941  0.0662
 1617TIP3    H129046   1.399   2.544  17.887 -0.6192 -0.3358  0.4840
 1617TIP3    H229047   1.423   2.512  17.741  1.0020  0.1737  0.6233
 1618TIP3   OH229048   6.234   2.902  19.453 -0.1750  0.0736 -0.2965
 1618TIP3    H129049   6.169   2.972  19.446 -0.9896 -0.7147 -0.6930
 1618TIP3    H229050   6.193   2.836  19.507  1.3297  0.6915  1.7515
 1619TIP3   OH229051   7.286   1.545  17.155  0.1991 -0.1515 -0.1644
 1619TIP3    H129052   7.228   1.620  17.144  1.5728  1.0264  0.2971
 1619TIP3    H229053   7.328   1.534  17.069 -1.3361 -1.6185 -0.7938
 1620TIP3   OH229054   4.394   3.893  18.919 -0.1527 -0.3922  0.3694
 1620TIP3    H129055   4.475   3.851  18.945 -0.3874 -0.6130  0.7450
 1620TIP3    H229056   4.349   3.912  19.001 -0.3076  0.0772  0.1804
 1621TIP3   OH229057   1.963   2.163  18.042 -0.0343 -0.2378 -0.1700
 1621TIP3    H129058   2.030   2.116  18.092  0.3559  1.2529  0.7687
 1621TIP3    H229059   1.882   2.148  18.091  0.4338  1.6476  1.3073
 1622TIP3   OH229060   3.108   5.428  19.316  0.2900 -0.9861  0.2151
 1622TIP3    H129061   3.053   5.477  19.255  0.4711 -0.5493  0.3957
 1622TIP3    H229062   3.137   5.494  19.380  2.2456 -0.8675 -0.7160
 1623TIP3   OH229063   2.694   4.327  19.315  0.5582 -0.0813 -0.0477
 1623TIP3    H129064   2.744   4.249  19.339  1.4518  0.1595 -1.0372
 1623TIP3    H229065   2.747   4.400  19.348  0.9560  0.1835 -1.2132
 1624TIP3   OH229066   4.483   1.599  18.233  0.4286  0.8305 -0.2794
 1624TIP3    H129067   4.544   1.531  18.205 -3.2779 -2.1314 -1.9317
 1624TIP3    H229068   4.497   1.671  18.171  0.6357 -0.7592 -2.1513
 1625TIP3   OH229069   3.369   6.486  16.574 -0.0017  0.1465 -0.2591
 1625TIP3    H129070   3.344   6.578  16.562 -0.1206  0.1517  0.0239
 1625TIP3    H229071   3.295   6.437  16.541  0.3168  0.1444 -0.9823
 1626TIP3   OH229072   4.105   6.666  18.631  0.3211 -0.3925  0.0123
 1626TIP3    H129073   4.153   6.584  18.620  1.5423  0.0796  1.5570
 1626TIP3    H229074   4.163   6.722  18.682 -0.5141  1.4403 -0.9479
 1627TIP3   OH229075   5.556   6.923  19.055 -0.3018  0.1370 -0.0884
 1627TIP3    H129076   5.650   6.911  19.041 -0.4986 -0.0341 -1.4052
 1627TIP3    H229077   5.549   6.962  19.142  0.9368 -0.5709  0.3487
 1628TIP3   OH229078   6.696   6.382  17.104 -0.4731 -0.0258  0.1948
 1628TIP3    H129079   6.692   6.372  17.009 -1.5945 -1.3965  0.3584
 1628TIP3    H229080   6.624   6.442  17.125  0.3056  0.9603  0.1202
 1629TIP3   OH229081   7.564   3.862  19.531  0.4426  0.4545 -0.0876
 1629TIP3    H129082   7.489   3.802  19.541  0.4348  0.4078 -0.4050
 1629TIP3    H229083   7.639   3.810  19.559  0.4536  0.2440 -0.4846
 1630TIP3   OH229084   5.490   0.399  17.920 -0.2225 -0.0557 -0.1757
 1630TIP3    H129085   5.542   0.366  17.847  1.9618  0.0549  1.2170
 1630TIP3    H229086   5.435   0.325  17.945  1.6355 -1.3623  0.3046
 1631TIP3   OH229087   3.967   4.547  19.381 -0.2221 -0.4499 -0.3447
 1631TIP3    H129088   4.015   4.474  19.420 -0.0947 -0.1104  0.1457
 1631TIP3    H229089   3.878   4.515  19.373 -1.1709  0.6496  3.6702
 1632TIP3   OH229090   0.571   0.605  17.481  0.2773  0.6232 -0.0153
 1632TIP3    H129091   0.583   0.693  17.444 -0.3499  0.1714 -1.3542
 1632TIP3    H229092   0.487   0.610  17.528  1.1816  1.2605  1.6251
 1633TIP3   OH229093   5.698   4.735  19.182  1.0465  0.0596 -0.1213
 1633TIP3    H129094   5.688   4.711  19.274 -2.0022  0.6128 -0.2165
 1633TIP3    H229095   5.667   4.659  19.133  0.8639  0.4519 -0.6282
 1634TIP3   OH229096   0.223   7.300  17.326 -0.3947 -0.0459  0.9536
 1634TIP3    H129097   0.317   7.284  17.316 -0.4496 -1.3666  2.1800
 1634TIP3    H229098   0.188   7.293  17.238  0.5162 -0.6596  0.6227
 1635TIP3   OH229099   3.316   4.295  18.677  0.8811 -0.6171 -0.3793
 1635TIP3    H129100   3.229   4.290  18.717  0.7970 -0.9026 -0.5908
 1635TIP3    H229101   3.312   4.232  18.605  0.9495  0.0731 -0.9955
 1636TIP3   OH229102   4.132   3.464  16.893  0.0561 -0.0884  0.0912
 1636TIP3    H129103   4.155   3.539  16.949  3.3811  0.3046 -1.5293
 1636TIP3    H229104   4.079   3.502  16.823  0.7495  0.5785 -0.0905
 1637TIP3   OH229105   4.155   6.688  16.328 -0.1848 -0.2024  0.0152
 1637TIP3    H129106   4.074   6.739  16.328 -0.3331 -0.2147 -3.1834
 1637TIP3    H229107   4.213   6.734  16.388 -1.3752  1.8974 -0.3484
 1638TIP3   OH229108   2.353   7.461  19.212 -0.2177 -0.1318  0.4144
 1638TIP3    H129109   2.388   7.457  19.301 -0.1830  1.4897  0.5151
 1638TIP3    H229110   2.347   7.555  19.194 -1.5348 -0.4107 -0.7790
 1639TIP3   OH229111   0.920   3.858  18.828  0.6528  0.0165  0.0266
 1639TIP3    H129112   0.960   3.786  18.879 -1.2171 -1.0686  0.0549
 1639TIP3    H229113   0.870   3.908  18.892 -0.4860 -0.4592 -0.4615
 1640TIP3   OH229114   4.888   7.509  18.720 -0.0607 -0.0410 -0.0686
 1640TIP3    H129115   4.908   7.560  18.641 -0.5354 -0.4467 -0.4577
 1640TIP3    H229116   4.937   7.428  18.708 -0.4888 -0.2851 -0.1535
 1641TIP3   OH229117   1.087   6.346  18.521 -0.2931  0.7470  0.2894
 1641TIP3    H129118   1.038   6.369  18.443  1.6049 -0.0768 -1.2380
 1641TIP3    H229119   1.171   6.390  18.510  1.3826 -2.2603 -0.0502
 1642TIP3   OH229120   0.644   4.903  18.869  0.2428 -0.7068  0.1712
 1642TIP3    H129121   0.639   4.997  18.889  0.7134 -0.4832 -0.6742
 1642TIP3    H229122   0.728   4.876  18.904  0.8086 -0.4445 -0.9299
 1643TIP3   OH229123   6.770   2.892  17.590  0.3445 -0.1988  0.1925
 1643TIP3    H129124   6.702   2.856  17.648  0.1599  1.2890  0.9535
 1643TIP3    H229125   6.742   2.866  17.502 -1.8675  1.2731  0.3668
 1644TIP3   OH229126   4.380   3.063  18.692  0.8160  0.2980 -0.3479
 1644TIP3    H129127   4.308   3.006  18.663 -0.0537  0.9908  0.3764
 1644TIP3    H229128   4.423   3.090  18.611  0.3940 -0.3003 -0.7816
 1645TIP3   OH229129   5.564   2.224  17.748 -0.1426  0.2517  0.3247
 1645TIP3    H129130   5.574   2.194  17.839  2.2286 -0.0773  0.0114
 1645TIP3    H229131   5.546   2.318  17.756 -0.0755  0.2078  1.1318
 1646TIP3   OH229132   2.846   3.225  18.477 -0.5086 -0.4136 -0.5664
 1646TIP3    H129133   2.815   3.167  18.547 -1.8552  0.2824 -0.5565
 1646TIP3    H229134   2.861   3.166  18.403  1.0942 -1.1850  0.3143
 1647TIP3   OH229135   5.451   1.511  19.117  0.1568  0.2025  0.7309
 1647TIP3    H129136   5.395   1.438  19.140 -1.2238  1.5209  1.7419
 1647TIP3    H229137   5.393   1.573  19.073  1.1671  0.9247  0.3811
 1648TIP3   OH229138   1.651   6.259  19.163 -0.4261  0.5978  0.0382
 1648TIP3    H129139   1.732   6.307  19.184  0.1335  0.1182 -0.9504
 1648TIP3    H229140   1.620   6.299  19.082  0.3788 -1.0360 -1.1504
 1649TIP3   OH229141   1.240   6.155  17.664  0.0641 -0.4603 -0.7758
 1649TIP3    H129142   1.248   6.195  17.578  1.4113 -3.3871 -2.1609
 1649TIP3    H229143   1.164   6.098  17.657  2.3967 -3.7906 -1.5942
 1650TIP3   OH229144   7.201   2.829  16.795  0.0115  0.2150  0.0592
 1650TIP3    H129145   7.219   2.904  16.738 -0.1038  0.0006 -0.2634
 1650TIP3    H229146   7.164   2.763  16.736  0.1712 -0.1183  0.3287
 1651TIP3   OH229147   5.137   4.984  19.178 -0.3371  0.0010 -0.1988
 1651TIP3    H129148   5.082   4.945  19.109  0.8284 -1.5167 -0.3161
 1651TIP3    H229149   5.106   4.944  19.259  0.5711 -0.8717 -0.2672
 1652TIP3   OH229150   5.449   0.796  17.070 -0.0180  0.8317 -0.2000
 1652TIP3    H129151   5.421   0.773  17.158  0.3638  1.3900  0.0662
 1652TIP3    H229152   5.539   0.763  17.063  0.1197  1.2020 -0.2170
 1653TIP3   OH229153   1.060   6.805  18.346  0.0728  0.0105 -0.1745
 1653TIP3    H129154   1.076   6.760  18.264  0.5045  2.2736 -1.4275
 1653TIP3    H229155   0.965   6.806  18.355  0.0400 -3.0242  1.1084
 1654TIP3   OH229156   7.357   3.663  19.417 -0.2344  0.2003 -0.2437
 1654TIP3    H129157   7.407   3.583  19.436 -0.6229 -0.1451 -0.6601
 1654TIP3    H229158   7.292   3.636  19.352 -1.5158  0.4558  0.9023
 1655TIP3   OH229159   3.518   0.599  18.378  0.3545  0.1514  0.1738
 1655TIP3    H129160   3.507   0.588  18.284 -0.3830  0.5131  0.2057
 1655TIP3    H229161   3.599   0.648  18.388  0.4347  0.1105 -0.2735
 1656TIP3   OH229162   4.833   4.509  17.326 -0.2886 -0.5130 -0.4572
 1656TIP3    H129163   4.903   4.574  17.322 -1.1340  0.4581  0.0761
 1656TIP3    H229164   4.871   4.435  17.372  0.9469 -0.7373 -1.7787
 1657TIP3   OH229165   2.149   0.616  19.210  0.1516 -0.3377  0.4190
 1657TIP3    H129166   2.190   0.649  19.290 -1.9275 -1.9785  2.2584
 1657TIP3    H229167   2.207   0.545  19.182  1.5305  0.9954 -0.3035
 1658TIP3   OH229168   6.921   2.358  18.462  0.0124 -0.2385 -0.7604
 1658TIP3    H129169   7.001   2.406  18.483  0.1702 -0.8706  0.1786
 1658TIP3    H229170   6.851   2.414  18.495  0.0643  0.3065 -1.5620
 1659TIP3   OH229171   2.336   2.961  17.257 -0.1013 -0.5310  0.2908
 1659TIP3    H129172   2.266   2.918  17.207 -0.9368 -0.6988  1.5541
 1659TIP3    H229173   2.415   2.913  17.232 -0.6157 -1.1239 -0.2554
 1660TIP3   OH229174   0.177   4.873  18.048 -0.2106  0.1370  0.1922
 1660TIP3    H129175   0.147   4.804  18.107 -0.5374 -0.4926 -0.6810
 1660TIP3    H229176   0.136   4.953  18.081 -0.9704 -0.3250  0.4031
 1661TIP3   OH229177   5.784   0.176  18.729  0.2376 -0.2128  0.1266
 1661TIP3    H129178   5.817   0.256  18.770 -0.6285 -0.2693  0.9603
 1661TIP3    H229179   5.723   0.207  18.662  1.0161 -0.1495 -0.5816
 1662TIP3   OH229180   0.787   6.692  18.205  0.0696  0.1636  0.6519
 1662TIP3    H129181   0.850   6.680  18.133  1.4112 -1.0457  1.9614
 1662TIP3    H229182   0.702   6.701  18.161  1.0611  1.3265 -1.1526
 1663TIP3   OH229183   5.945   7.189  19.197  0.1139 -0.3025 -0.4443
 1663TIP3    H129184   6.031   7.164  19.165 -0.2445  0.0140 -1.7214
 1663TIP3    H229185   5.885   7.160  19.128 -0.7147  0.2236  0.0392
 1664TIP3   OH229186   6.227   0.488  19.061  0.0292  0.1181 -0.1523
 1664TIP3    H129187   6.211   0.408  19.111 -0.4178  0.5093  0.3471
 1664TIP3    H229188   6.313   0.518  19.090  1.3645 -1.5046 -2.1851
 1665TIP3   OH229189   5.689   6.020  17.535  0.1947  0.2781  0.0536
 1665TIP3    H129190   5.606   6.060  17.560  0.8221  0.4614  1.9737
 1665TIP3    H229191   5.738   6.091  17.494  0.8219  1.2386  2.3288
 1666TIP3   OH229192   3.370   0.497  18.949  0.4854  0.2879  0.0843
 1666TIP3    H129193   3.446   0.447  18.980  0.2553 -0.2510 -0.1983
 1666TIP3    H229194   3.323   0.435  18.893  0.8540  1.1893 -1.2906
 1667TIP3   OH229195   1.240   1.216  18.600 -0.5300  0.1037 -0.3922
 1667TIP3    H129196   1.169   1.164  18.637 -0.4716  0.0221 -0.3941
 1667TIP3    H229197   1.233   1.202  18.505  0.2192 -0.8601 -0.3192
 1668TIP3   OH229198   7.315   6.792  17.693 -0.3428 -0.2280 -0.3102
 1668TIP3    H129199   7.378   6.738  17.741 -0.7112  1.0350  1.7219
 1668TIP3    H229200   7.239   6.735  17.681 -0.3201 -0.5239  0.8304
 1669TIP3   OH229201   4.729   5.223  19.010 -0.4503 -0.5028 -0.2162
 1669TIP3    H129202   4.660   5.255  19.068 -0.6022  0.7323 -1.0262
 1669TIP3    H229203   4.693   5.235  18.922 -0.2945 -2.5096 -0.5847
 1670TIP3   OH229204   0.422   6.414  17.478 -0.1584  0.1123 -0.4447
 1670TIP3    H129205   0.369   6.410  17.398 -3.7393 -1.1226  1.7314
 1670TIP3    H229206   0.446   6.323  17.496 -1.2223  0.0647  0.9075
 1671TIP3   OH229207   0.011   4.311  18.400  0.1191 -0.3700 -0.0057
 1671TIP3    H129208  -0.041   4.315  18.480 -0.2170 -0.1124 -0.2379
 1671TIP3    H229209  -0.053   4.304  18.329  0.2798  2.1198 -0.4735
 1672TIP3   OH229210   5.408   0.748  17.331  0.3629 -0.3199  0.2680
 1672TIP3    H129211   5.475   0.679  17.331  0.4354 -0.2932  1.7703
 1672TIP3    H229212   5.383   0.757  17.423 -2.7645 -1.3072 -0.3581
 1673TIP3   OH229213   3.449   5.587  17.966 -0.1395  0.1980  0.4901
 1673TIP3    H129214   3.438   5.674  17.928  0.0886  0.4993  1.1013
 1673TIP3    H229215   3.492   5.603  18.050  0.4387 -0.5500  0.3478
 1674TIP3   OH229216   5.070   0.610  18.191 -0.7881 -0.0231  0.5284
 1674TIP3    H129217   5.045   0.597  18.100 -0.8364  0.2852  0.4959
 1674TIP3    H229218   5.080   0.522  18.227  0.4295 -0.1576 -0.0999
 1675TIP3   OH229219   4.206   0.318  17.464 -0.4132  0.1071 -0.1911
 1675TIP3    H129220   4.227   0.224  17.464  0.9173  0.3717  0.5358
 1675TIP3    H229221   4.161   0.332  17.548 -1.2157  0.0071 -0.5983
 1676TIP3   OH229222   3.643   1.292  18.680 -0.4503 -0.2284 -0.0587
 1676TIP3    H129223   3.691   1.229  18.735 -1.5933 -1.8342 -0.8250
 1676TIP3    H229224   3.552   1.283  18.708 -1.0368 -0.9697 -2.0613
 1677TIP3   OH229225   6.975   7.237  17.859  0.2889  0.4180  0.0968
 1677TIP3    H129226   6.990   7.169  17.794  0.1420  0.5016 -0.0224
 1677TIP3    H229227   6.898   7.207  17.908 -0.8411  1.3151 -1.0456
 1678TIP3   OH229228   1.257   0.038  17.621  0.0567  0.4775  0.1003
 1678TIP3    H129229   1.253  -0.056  17.638  0.1535  0.7044  1.4502
 1678TIP3    H229230   1.351   0.058  17.616  0.0387  0.3804 -1.0501
 1679TIP3   OH229231   1.200   3.189  18.455 -0.1612 -0.4446 -0.1915
 1679TIP3    H129232   1.274   3.206  18.397 -0.6757  0.3719 -0.6344
 1679TIP3    H229233   1.224   3.233  18.537 -0.3300  0.1881 -0.4720
 1680TIP3   OH229234   0.027   4.010  18.670  0.1095 -0.1357 -0.0892
 1680TIP3    H129235   0.096   4.002  18.605  2.1685  1.5528  1.7187
 1680TIP3    H229236  -0.024   4.086  18.642 -0.2687 -0.6280 -0.7626
 1681TIP3   OH229237   6.576   0.153  17.524 -0.0145 -0.0238 -0.1067
 1681TIP3    H129238   6.666   0.181  17.509  0.3208 -0.1531  1.4617
 1681TIP3    H229239   6.559   0.177  17.615 -1.7668  0.5043 -0.5366
 1682TIP3   OH229240   5.538   4.618  19.428  0.1339  0.2979 -0.2185
 1682TIP3    H129241   5.495   4.615  19.343  0.2762  2.3265 -0.4335
 1682TIP3    H229242   5.487   4.682  19.478  0.9334  0.2485  0.6863
 1683TIP3   OH229243   3.571   4.067  18.459 -0.8611 -0.3594  0.2877
 1683TIP3    H129244   3.660   4.091  18.481 -1.4649  0.9789  1.4066
 1683TIP3    H229245   3.580   3.995  18.396  0.9900  0.3024 -0.2600
 1684TIP3   OH229246   7.436   2.715  17.296  0.2204 -0.2829  0.3332
 1684TIP3    H129247   7.391   2.759  17.224 -1.4974 -4.4148 -1.4605
 1684TIP3    H229248   7.386   2.739  17.374 -1.3045  0.0907 -0.7084
 1685TIP3   OH229249   5.329   0.616  18.312  0.8650 -0.3903  0.3881
 1685TIP3    H129250   5.361   0.646  18.227  1.1381 -0.8747  0.3176
 1685TIP3    H229251   5.235   0.603  18.298  1.0785 -1.4795 -0.1461
 1686TIP3   OH229252   4.963   4.532  19.096  0.0687 -0.0281  0.2466
 1686TIP3    H129253   4.901   4.566  19.032  0.8197 -1.0226 -1.0483
 1686TIP3    H229254   5.037   4.592  19.091 -0.2536  0.4369  0.8894
 1687TIP3   OH229255   3.849   6.563  18.756 -0.5652  0.0068  0.2237
 1687TIP3    H129256   3.941   6.578  18.734 -0.5838  0.7643  0.6112
 1687TIP3    H229257   3.807   6.545  18.672 -0.0247 -0.5700  0.0718
 1688TIP3   OH229258   3.879   6.411  17.876  0.0288 -0.3692  0.0742
 1688TIP3    H129259   3.937   6.486  17.865 -0.5660  0.5285  2.4502
 1688TIP3    H229260   3.795   6.449  17.901 -0.7045 -1.7788 -0.1415
 1689TIP3   OH229261   4.969   7.183  16.642 -0.5179  0.2685 -0.0010
 1689TIP3    H129262   4.916   7.109  16.614 -0.3630  1.0706 -2.6874
 1689TIP3    H229263   5.052   7.172  16.595  1.0520  0.0956  2.6031
 1690TIP3   OH229264   0.536   4.985  16.918  0.0588  0.2821 -0.4968
 1690TIP3    H129265   0.460   4.933  16.945 -0.0373  0.8141  0.2929
 1690TIP3    H229266   0.498   5.061  16.874  0.2081 -0.4445 -1.9361
 1691TIP3   OH229267   4.322   5.472  18.273 -0.6560 -0.5885  0.1200
 1691TIP3    H129268   4.348   5.564  18.273 -0.0988 -0.7428  0.1340
 1691TIP3    H229269   4.235   5.472  18.314 -0.1201 -0.2152  1.2911
 1692TIP3   OH229270   3.705   5.013  17.978 -0.2794 -0.4075 -0.2675
 1692TIP3    H129271   3.704   4.924  18.013  1.7082 -0.4241 -0.1539
 1692TIP3    H229272   3.795   5.026  17.948 -0.7446  1.2772 -1.0411
 1693TIP3   OH229273   6.846   5.085  19.313  0.5022  0.2123  0.4348
 1693TIP3    H129274   6.801   5.032  19.247  3.7584 -0.5298 -1.4055
 1693TIP3    H229275   6.911   5.134  19.263  2.2997  0.5767  2.9688
 1694TIP3   OH229276   2.512   2.754  18.717  0.1970  0.8782  0.3930
 1694TIP3    H129277   2.531   2.771  18.809 -1.2099 -2.2880  1.4078
 1694TIP3    H229278   2.560   2.674  18.697 -1.5873  0.0224 -0.7622
 1695TIP3   OH229279   0.176   5.300  19.453 -0.4065 -0.4112 -0.3664
 1695TIP3    H129280   0.266   5.319  19.426 -0.3438  1.1549  0.8090
 1695TIP3    H229281   0.178   5.302  19.548 -1.3661 -2.1091 -0.2725
 1696TIP3   OH229282   6.443   7.314  18.736 -0.2619 -0.6219  0.2907
 1696TIP3    H129283   6.453   7.336  18.644 -0.3371 -4.2896 -0.7444
 1696TIP3    H229284   6.532   7.309  18.770 -0.0917 -1.3906 -0.2307
 1697TIP3   OH229285   2.919   7.225  19.630 -1.2101 -0.2518 -0.3680
 1697TIP3    H129286   2.863   7.224  19.707 -0.0016  2.2501  0.6623
 1697TIP3    H229287   2.895   7.305  19.583  1.1017  0.6694 -0.1288
 1698TIP3   OH229288   4.758   0.254  18.403  0.4851 -0.2350  0.3678
 1698TIP3    H129289   4.794   0.239  18.316 -0.5352  1.0819 -0.3172
 1698TIP3    H229290   4.672   0.212  18.402 -0.3598  1.4027  0.0390
 1699TIP3   OH229291   7.068   2.397  18.024 -0.1618 -0.4538  0.4429
 1699TIP3    H129292   7.024   2.455  18.086 -1.0132 -0.6728  0.0539
 1699TIP3    H229293   7.126   2.455  17.975 -1.1578  0.1132 -0.0846
 1700TIP3   OH229294   7.258   5.590  18.109 -0.1338 -0.2658  0.4240
 1700TIP3    H129295   7.200   5.597  18.185 -0.2284  0.8070  0.2703
 1700TIP3    H229296   7.275   5.681  18.083  2.0148 -0.4991  0.7724
 1701TIP3   OH229297   5.295   6.958  17.450 -0.2045  0.1954  0.3633
 1701TIP3    H129298   5.274   7.045  17.484  1.1272  0.3695  0.7849
 1701TIP3    H229299   5.278   6.964  17.356 -1.7258  0.3917  0.6253
 1702TIP3   OH229300   3.585   3.717  19.353 -0.1505  0.2489 -0.2058
 1702TIP3    H129301   3.589   3.671  19.437 -0.0451  0.3522 -0.1554
 1702TIP3    H229302   3.633   3.799  19.368 -0.5568  0.4898 -0.2253
 1703TIP3   OH229303   1.343   5.116  19.405 -0.0694  0.1008  0.1879
 1703TIP3    H129304   1.286   5.158  19.341 -2.9739 -2.7017  0.6603
 1703TIP3    H229305   1.303   5.135  19.490 -0.2028 -1.6588  0.5686
 1704TIP3   OH229306   5.406   4.004  17.844  0.0511  0.4189  0.2868
 1704TIP3    H129307   5.445   4.090  17.853  1.6063 -0.1737 -0.4223
 1704TIP3    H229308   5.316   4.021  17.814  0.5993  1.7707 -0.6775
 1705TIP3   OH229309   6.545   0.595  19.438 -0.2554  0.1619  0.3616
 1705TIP3    H129310   6.588   0.663  19.489  0.8738 -0.9341  0.9256
 1705TIP3    H229311   6.460   0.633  19.414 -0.2008  1.2603  1.7858
 1706TIP3   OH229312   6.333   2.766  19.043  0.0933  0.3890  0.3168
 1706TIP3    H129313   6.369   2.826  19.107  2.5560 -0.4131 -0.2190
 1706TIP3    H229314   6.367   2.797  18.959  0.8608 -1.3023 -0.0418
 1707TIP3   OH229315   2.332   2.103  18.411 -0.1019 -0.0293 -0.3521
 1707TIP3    H129316   2.379   2.165  18.466 -0.5210 -0.6372  0.7310
 1707TIP3    H229317   2.397   2.071  18.349  0.6574 -0.0834  0.4441
 1708TIP3   OH229318   6.405   3.942  17.726 -0.2985  0.2911  0.4729
 1708TIP3    H129319   6.411   3.944  17.631 -1.2197  2.6548  0.4018
 1708TIP3    H229320   6.312   3.936  17.745 -0.4479  3.1266  1.1171
 1709TIP3   OH229321   1.211   7.370  17.418 -0.7281 -0.0234 -0.6098
 1709TIP3    H129322   1.175   7.382  17.505  0.2453  2.2014 -0.4457
 1709TIP3    H229323   1.209   7.276  17.404 -0.4229 -0.4997  2.0343
 1710TIP3   OH229324   3.787   2.867  17.073 -0.6480 -0.4375 -0.0036
 1710TIP3    H129325   3.863   2.810  17.087 -1.0993 -0.7095  1.5781
 1710TIP3    H229326   3.732   2.818  17.012 -0.2830 -0.9624  0.0724
 1711TIP3   OH229327   3.458   5.714  16.540  0.7708  0.0120  0.0420
 1711TIP3    H129328   3.382   5.682  16.589  1.1154 -1.0359 -0.0968
 1711TIP3    H229329   3.420   5.756  16.462  0.2487  1.1896  0.8963
 1712TIP3   OH229330   6.530   6.686  18.983  0.6453 -0.5201 -0.0201
 1712TIP3    H129331   6.551   6.699  19.075  0.6351 -0.4062 -0.0346
 1712TIP3    H229332   6.613   6.699  18.937  0.3603  0.9860 -0.1734
 1713TIP3   OH229333   6.558   2.822  17.836 -0.4415 -0.0876  0.2551
 1713TIP3    H129334   6.598   2.738  17.817  0.4334  0.4990 -0.5645
 1713TIP3    H229335   6.616   2.863  17.901 -0.5717  0.1077  0.2499
 1714TIP3   OH229336   4.910   5.769  19.227 -0.0362  0.3027  0.3649
 1714TIP3    H129337   4.932   5.741  19.138 -0.3685  0.4058  0.2483
 1714TIP3    H229338   4.897   5.688  19.276 -1.3893  0.2402 -0.0706
 1715TIP3   OH229339   1.199   5.843  18.520  0.0954 -0.2109 -0.4223
 1715TIP3    H129340   1.264   5.785  18.480  0.1448 -0.5889  0.1910
 1715TIP3    H229341   1.136   5.783  18.561  0.6401  0.1464  1.0105
 1716TIP3   OH229342   5.073   0.902  18.775 -0.2194  0.5036 -0.7294
 1716TIP3    H129343   5.012   0.829  18.765  0.9982 -0.8135  0.9428
 1716TIP3    H229344   5.018   0.974  18.805 -1.1100 -0.3845 -0.1525
 1717TIP3   OH229345   4.643   4.239  17.425  0.2619 -0.1160  0.0160
 1717TIP3    H129346   4.557   4.219  17.461 -0.2266  0.8924 -0.5710
 1717TIP3    H229347   4.692   4.276  17.499  0.7607 -2.1309  0.7799
 1718TIP3   OH229348   6.222   3.213  18.769 -0.2575 -0.1561 -0.3388
 1718TIP3    H129349   6.137   3.172  18.783  0.2919 -1.6627 -1.1931
 1718TIP3    H229350   6.264   3.161  18.701  0.7392  1.5003 -1.0723
 1719TIP3   OH229351   3.778   5.627  18.025  0.0915 -0.3428 -0.1092
 1719TIP3    H129352   3.868   5.596  18.032  0.3411  0.4011  0.1138
 1719TIP3    H229353   3.754   5.652  18.114  0.2085  0.8914 -0.4008
 1720TIP3   OH229354   4.546   5.063  17.881  0.3036 -0.4271 -0.0915
 1720TIP3    H129355   4.460   5.082  17.844  0.5416  1.5669  0.2888
 1720TIP3    H229356   4.551   4.967  17.883 -2.0623 -0.5850  0.2619
 1721TIP3   OH229357   2.422   6.378  18.029 -0.1239  0.3295  0.4657
 1721TIP3    H129358   2.452   6.299  17.984 -2.3355  0.4749 -1.4803
 1721TIP3    H229359   2.425   6.355  18.122 -0.7115 -2.0672 -0.0336
 1722TIP3   OH229360   3.492   1.548  18.685  0.4399 -0.0463  0.2290
 1722TIP3    H129361   3.398   1.536  18.699  0.3488  0.9980  0.5586
 1722TIP3    H229362   3.514   1.483  18.619 -0.9072  1.0039 -1.3355
 1723TIP3   OH229363   3.905   3.002  18.469 -0.2346  0.2407  0.1293
 1723TIP3    H129364   3.871   3.091  18.463 -0.0748  0.3434  0.6852
 1723TIP3    H229365   3.827   2.946  18.466 -0.3815  0.4297  0.3739
 1724TIP3   OH229366   1.510   2.168  17.838 -0.5511 -0.1194 -0.6751
 1724TIP3    H129367   1.564   2.215  17.775  1.2831 -0.6345  0.4275
 1724TIP3    H229368   1.546   2.079  17.840 -0.2202 -0.0010  1.3845
 1725TIP3   OH229369   2.308   0.910  18.154  0.1427 -0.4422  0.3716
 1725TIP3    H129370   2.295   1.003  18.175 -2.1219 -0.6955  0.2842
 1725TIP3    H229371   2.400   0.905  18.127 -0.0779  2.0808 -1.1873
 1726TIP3   OH229372   5.184   1.542  18.411 -0.3375  0.1722  0.0371
 1726TIP3    H129373   5.215   1.622  18.369 -1.0189 -0.5648 -1.9682
 1726TIP3    H229374   5.092   1.536  18.388 -0.6083 -0.5475  1.2273
 1727TIP3   OH229375   0.075   3.180  17.747 -0.3976  0.1569  0.1781
 1727TIP3    H129376   0.034   3.251  17.698 -0.6461  0.6511  1.0767
 1727TIP3    H229377   0.132   3.225  17.810  0.0872 -0.4719  0.1987
 1728TIP3   OH229378   1.697   7.334  18.866 -0.2055  0.2200  0.1271
 1728TIP3    H129379   1.792   7.320  18.868 -0.1972  0.1758 -0.5433
 1728TIP3    H229380   1.660   7.246  18.855 -0.3507  0.1836  0.8138
 1729TIP3   OH229381   5.482   2.711  17.300 -0.1049  0.0782  0.4066
 1729TIP3    H129382   5.447   2.764  17.371  0.8225 -1.1005  1.8008
 1729TIP3    H229383   5.472   2.766  17.222 -0.2227  1.8292  1.5952
 1730TIP3   OH229384   5.239   1.796  18.243  0.3330  0.0626 -0.0674
 1730TIP3    H129385   5.184   1.838  18.176 -1.8592  0.3185  1.7576
 1730TIP3    H229386   5.314   1.854  18.252 -0.9901  1.8504  0.0377
 1731TIP3   OH229387   1.869   0.695  17.496 -0.0439 -0.0236 -0.3845
 1731TIP3    H129388   1.874   0.745  17.414 -0.8506  1.8342  0.6345
 1731TIP3    H229389   1.957   0.703  17.533  0.0126  0.1045 -0.5427
 1732TIP3   OH229390   0.645   3.999  17.007  0.0471 -0.4429 -0.1123
 1732TIP3    H129391   0.709   3.970  16.942 -0.5030 -1.2407 -0.3090
 1732TIP3    H229392   0.624   4.089  16.982 -0.5266 -0.9071 -1.3421
 1733TIP3   OH229393   6.330   4.612  16.938 -0.0870 -0.5254 -0.4872
 1733TIP3    H129394   6.242   4.636  16.910  0.3456  1.6920 -0.0957
 1733TIP3    H229395   6.357   4.543  16.877 -0.9147  0.9440 -2.6286
 1734TIP3   OH229396   2.707   3.268  17.904  0.0715 -0.2472  0.1644
 1734TIP3    H129397   2.660   3.188  17.879 -0.4082  0.1272 -0.1448
 1734TIP3    H229398   2.668   3.337  17.850 -0.0046  0.3280  0.9296
 1735TIP3   OH229399   3.616   0.851  18.260  0.0413  0.4989 -0.0976
 1735TIP3    H129400   3.594   0.944  18.249 -3.2086 -0.2583 -1.3464
 1735TIP3    H229401   3.670   0.830  18.185 -0.2977  1.1221 -0.5337
 1736TIP3   OH229402   1.818   5.223  17.398 -0.2347  0.5202 -0.2343
 1736TIP3    H129403   1.751   5.191  17.458 -0.9623  0.0321 -1.2775
 1736TIP3    H229404   1.822   5.317  17.415  0.7848  0.1628  1.7449
 1737TIP3   OH229405   1.845   1.719  18.639  0.4072  0.3723 -0.5116
 1737TIP3    H129406   1.940   1.724  18.638  0.6495 -2.4518  0.4206
 1737TIP3    H229407   1.820   1.743  18.728  0.5115 -1.2644 -0.0037
 1738TIP3   OH229408   3.304   4.868  16.954 -0.2875  0.1465 -0.1131
 1738TIP3    H129409   3.241   4.805  16.919 -0.5053  0.5349 -0.4364
 1738TIP3    H229410   3.275   4.952  16.919 -0.2630  0.4909  0.6769
 1739TIP3   OH229411   2.624   3.428  18.536  0.2978  0.0641  0.0138
 1739TIP3    H129412   2.710   3.384  18.540  1.0016  1.3761 -0.2554
 1739TIP3    H229413   2.638   3.511  18.582 -0.0676  1.4936 -2.3066
 1740TIP3   OH229414   5.271   6.491  16.530 -0.1276  0.1412 -0.4189
 1740TIP3    H129415   5.201   6.524  16.587 -0.0078 -0.1276 -0.1107
 1740TIP3    H229416   5.309   6.569  16.491  0.9177  0.4991  1.1923
 1741TIP3   OH229417   5.491   1.133  19.031  0.3192  0.4382 -0.3561
 1741TIP3    H129418   5.487   1.040  19.053  0.1435  0.6655  0.6097
 1741TIP3    H229419   5.453   1.138  18.943  1.4855 -0.5585 -0.9454
 1742TIP3   OH229420   0.776   4.838  18.596  0.0504 -0.1952  0.3713
 1742TIP3    H129421   0.772   4.757  18.648 -0.4935  0.1380  0.8644
 1742TIP3    H229422   0.763   4.908  18.660  0.2454  0.2743 -0.0914
 1743TIP3   OH229423   3.596   7.045  17.652 -0.3652 -0.1432 -0.6793
 1743TIP3    H129424   3.598   6.949  17.655 -0.8126 -0.2212  3.1838
 1743TIP3    H229425   3.503   7.067  17.652 -0.4422  0.0625  2.2895
 1744TIP3   OH229426   4.254   6.828  18.812  0.3265 -0.3101 -0.2945
 1744TIP3    H129427   4.349   6.822  18.795 -0.2457 -0.7595 -4.5229
 1744TIP3    H229428   4.224   6.897  18.753 -1.7365  2.0699  3.1677
 1745TIP3   OH229429   1.759   7.189  16.489 -0.1574 -0.4536  0.3894
 1745TIP3    H129430   1.830   7.126  16.475 -0.1533 -0.1511 -1.1262
 1745TIP3    H229431   1.708   7.152  16.561  1.1294 -1.0264  1.0466
 1746TIP3   OH229432   7.585   4.103  18.918 -0.0968 -0.0256  0.0496
 1746TIP3    H129433   7.659   4.067  18.870 -0.4832  0.5713 -1.0399
 1746TIP3    H229434   7.522   4.031  18.923  0.9614 -0.8981  1.9924
 1747TIP3   OH229435   2.134   5.898  18.440 -0.3454  0.2224 -0.8095
 1747TIP3    H129436   2.180   5.981  18.454 -0.9066  0.5011 -0.5927
 1747TIP3    H229437   2.114   5.897  18.346  0.7234 -0.2330 -1.0455
 1748TIP3   OH229438   1.605   0.314  17.327  0.2077 -0.4682  0.5934
 1748TIP3    H129439   1.539   0.351  17.268  0.7817  0.4476  0.5181
 1748TIP3    H229440   1.662   0.263  17.270  1.5638  1.5003  0.0920
 1749TIP3   OH229441   6.254   7.001  18.418  0.1646  0.5728  0.3535
 1749TIP3    H129442   6.195   6.936  18.380 -0.4256  1.4194 -0.2193
 1749TIP3    H229443   6.196   7.070  18.449  0.8250  1.1546  0.3044
 1750TIP3   OH229444   3.599   0.522  17.738 -0.2419  0.2462  0.2554
 1750TIP3    H129445   3.607   0.486  17.650  2.5065  0.8283  0.1796
 1750TIP3    H229446   3.512   0.562  17.740 -0.4479  0.0464 -2.1156
 1751TIP3   OH229447   6.446   1.091  17.171 -0.4479  0.0374  0.0965
 1751TIP3    H129448   6.455   1.182  17.144 -1.2596  0.0706 -0.0906
 1751TIP3    H229449   6.474   1.041  17.095  0.6923  0.1173  0.4455
 1752TIP3   OH229450   6.088   6.327  18.023 -0.2709 -0.2486 -0.5292
 1752TIP3    H129451   6.033   6.350  17.949 -1.4471 -1.0627  0.0638
 1752TIP3    H229452   6.079   6.232  18.032  0.5027 -0.2764  0.1477
 1753TIP3   OH229453   1.924   4.746  18.158  1.0277 -0.0452 -0.7250
 1753TIP3    H129454   1.886   4.690  18.226  1.8017 -1.0010 -1.0562
 1753TIP3    H229455   1.925   4.691  18.080  1.5634  0.5253 -1.1254
 1754TIP3   OH229456   6.733   5.168  18.987 -0.3182  0.0226 -0.0692
 1754TIP3    H129457   6.753   5.246  19.040  0.7895 -0.1006 -0.2777
 1754TIP3    H229458   6.729   5.097  19.051  1.9132 -0.2848 -0.1702
 1755TIP3   OH229459   2.007   1.845  18.156 -0.4030 -0.4450  0.8714
 1755TIP3    H129460   1.927   1.840  18.103 -0.6479 -1.5946  1.3159
 1755TIP3    H229461   1.980   1.813  18.242  0.5764 -0.9963  0.9795
 1756TIP3   OH229462   7.662   7.199  17.510 -0.7335 -0.3140  0.1018
 1756TIP3    H129463   7.742   7.251  17.499 -0.7605 -0.1061  0.8332
 1756TIP3    H229464   7.595   7.249  17.465 -0.5884 -0.1346  0.0824
 1757TIP3   OH229465   4.337   6.771  17.288 -0.1290  0.3820 -0.1801
 1757TIP3    H129466   4.412   6.736  17.334 -0.3189 -1.3467 -1.1124
 1757TIP3    H229467   4.264   6.759  17.348 -0.0127  0.0866 -0.0959
 1758TIP3   OH229468   1.448   7.038  17.445  0.4212  0.2135  0.4212
 1758TIP3    H129469   1.358   7.007  17.449  0.4346  0.2298  0.8962
 1758TIP3    H229470   1.462   7.082  17.529  1.1936 -0.6808  0.7740
 1759TIP3   OH229471   1.709   3.940  17.902 -0.0991  0.2875 -0.7175
 1759TIP3    H129472   1.718   3.946  17.807 -1.5537  1.4459 -0.8181
 1759TIP3    H229473   1.623   3.977  17.921 -0.6126 -1.5628  0.8996
 1760TIP3   OH229474   6.301   5.234  17.669 -0.2998  0.7098 -0.4220
 1760TIP3    H129475   6.238   5.262  17.735 -0.1003 -0.7114  0.4160
 1760TIP3    H229476   6.344   5.315  17.639 -0.9263  1.4436  0.6364
 1761TIP3   OH229477   7.318   5.346  16.770  0.2463 -0.2031 -0.4666
 1761TIP3    H129478   7.353   5.352  16.859 -0.4437  0.0130 -0.1992
 1761TIP3    H229479   7.346   5.259  16.740  0.0553 -0.4919  0.1551
 1762TIP3   OH229480   3.185   2.434  18.328 -0.4300 -0.4811  0.1540
 1762TIP3    H129481   3.215   2.350  18.294 -0.3692 -0.6183  0.5561
 1762TIP3    H229482   3.129   2.413  18.402  3.1013 -0.1087  3.2161
 1763TIP3   OH229483   6.359   4.505  17.731  0.4081  0.1650 -0.5251
 1763TIP3    H129484   6.284   4.496  17.672 -1.2282 -0.6591  1.5565
 1763TIP3    H229485   6.346   4.589  17.775  2.2211  1.3104 -2.0417
 1764TIP3   OH229486   6.578   2.115  19.649 -0.0460 -0.0589  0.6393
 1764TIP3    H129487   6.631   2.157  19.581  0.2890  0.1272  1.0144
 1764TIP3    H229488   6.587   2.172  19.725  0.4056 -0.7933  1.1510
 1765TIP3   OH229489   0.625   5.576  18.878  0.5819  0.0668  0.2404
 1765TIP3    H129490   0.652   5.666  18.862  1.4207 -0.0139  1.0712
 1765TIP3    H229491   0.646   5.529  18.797  0.8087  0.4794  0.0601
 1766TIP3   OH229492   4.546   7.300  16.942 -0.1665  0.2371 -0.7879
 1766TIP3    H129493   4.576   7.276  16.854 -0.9242  0.5361 -1.1383
 1766TIP3    H229494   4.474   7.240  16.960  2.1611 -2.2416  1.1106
 1767TIP3   OH229495   0.521   0.664  19.318 -0.0730 -0.6894  0.0727
 1767TIP3    H129496   0.601   0.662  19.265 -0.2426  2.1640 -0.4504
 1767TIP3    H229497   0.550   0.645  19.407  1.1084 -0.1922 -0.1938
 1768TIP3   OH229498   5.274   3.759  18.343  0.5095 -0.1240 -0.4022
 1768TIP3    H129499   5.201   3.802  18.299 -0.4705 -1.0180  0.2965
 1768TIP3    H229500   5.294   3.683  18.288 -0.6254 -1.1644  0.5742
 1769TIP3   OH229501   1.963   0.861  17.316  0.0313  0.2371  0.0803
 1769TIP3    H129502   2.009   0.882  17.398  1.7337 -0.0423 -0.7680
 1769TIP3    H229503   1.947   0.946  17.275  1.7354  0.2525 -0.6180
 1770TIP3   OH229504   4.140   1.903  18.271  0.1375  0.4947 -0.0915
 1770TIP3    H129505   4.069   1.853  18.230 -1.4908  3.3055 -1.0614
 1770TIP3    H229506   4.175   1.846  18.338  1.0746 -3.3701 -3.4808
 1771TIP3   OH229507   5.689   0.006  18.969 -0.9467 -0.5774  0.1088
 1771TIP3    H129508   5.625  -0.019  18.904 -1.2504 -0.8243  0.5026
 1771TIP3    H229509   5.719   0.093  18.941 -0.8577 -0.8110 -0.5159
 1772TIP3   OH229510   4.177   6.044  18.426 -0.0318 -0.4376  0.3634
 1772TIP3    H129511   4.114   6.048  18.354  1.1862 -0.1362 -0.7221
 1772TIP3    H229512   4.262   6.034  18.383  0.6877 -0.7303  1.7861
 1773TIP3   OH229513   6.250   2.033  19.227  0.2342  0.3788  0.1064
 1773TIP3    H129514   6.215   2.109  19.180  0.1006  0.3559  0.1694
 1773TIP3    H229515   6.193   2.023  19.303 -0.1781 -0.2102 -0.2673
 1774TIP3   OH229516   2.943   2.140  18.934 -0.2805  0.0624  0.2640
 1774TIP3    H129517   2.936   2.099  18.848  0.1736  1.8623 -0.6602
 1774TIP3    H229518   3.036   2.136  18.956 -0.3911 -0.3735  0.6901
 1775TIP3   OH229519   6.927   0.093  18.577  0.0566 -0.5245 -0.0189
 1775TIP3    H129520   7.009   0.045  18.590  0.6583  0.7960  1.3626
 1775TIP3    H229521   6.862   0.024  18.562  1.2563 -1.6504 -0.2950
 1776TIP3   OH229522   5.438   2.401  19.535 -0.2674  0.2757 -0.1008
 1776TIP3    H129523   5.434   2.494  19.514 -0.3684  0.1007 -0.8668
 1776TIP3    H229524   5.531   2.383  19.549 -0.3686  0.7887  1.4678
 1777TIP3   OH229525   6.366   2.236  18.933  0.2669  0.0732 -0.3393
 1777TIP3    H129526   6.441   2.199  18.885 -0.8880 -1.8436 -0.7752
 1777TIP3    H229527   6.378   2.331  18.926  1.5725 -0.1661 -2.1393
 1778TIP3   OH229528   3.854   1.590  18.673 -0.2208  0.2534  0.0510
 1778TIP3    H129529   3.865   1.671  18.623 -0.8288  0.8831  0.9033
 1778TIP3    H229530   3.828   1.525  18.607 -1.4543  1.1688 -0.4050
 1779TIP3   OH229531   4.401   6.800  16.876 -0.0375 -0.0152  0.5846
 1779TIP3    H129532   4.353   6.731  16.832  1.5338 -0.2759 -0.8388
 1779TIP3    H229533   4.378   6.880  16.827 -0.0275  0.0733  0.7250
 1780TIP3   OH229534   0.971   7.196  17.201  0.1717 -0.3862 -0.0691
 1780TIP3    H129535   0.937   7.203  17.290  2.7403 -0.8493  1.0565
 1780TIP3    H229536   0.971   7.285  17.168  2.1262  0.3397  1.6651
 1781TIP3   OH229537   7.654   1.929  18.826 -0.4243  0.7039  0.5290
 1781TIP3    H129538   7.562   1.953  18.835  0.0592  2.8273  0.3234
 1781TIP3    H229539   7.673   1.941  18.733 -0.1241 -0.5434  0.4111
 1782TIP3   OH229540   3.264   2.866  17.594 -0.5437 -0.2064  0.5506
 1782TIP3    H129541   3.188   2.920  17.572 -0.1132  0.4120  0.5666
 1782TIP3    H229542   3.333   2.896  17.535 -0.8205 -2.0595 -0.7823
 1783TIP3   OH229543   1.702   6.432  18.617 -0.1169 -0.2235  0.2634
 1783TIP3    H129544   1.671   6.480  18.541  0.4297 -0.3363 -0.0376
 1783TIP3    H229545   1.758   6.363  18.581 -1.2190 -1.3536  0.6665
 1784TIP3   OH229546   5.386   5.925  18.893  0.4861 -0.5864  0.2218
 1784TIP3    H129547   5.358   5.901  18.981 -1.4183 -1.7616 -0.6373
 1784TIP3    H229548   5.435   5.849  18.861  0.8775 -0.3011  0.1288
 1785TIP3   OH229549   0.724   4.981  19.665  0.2720 -0.0587  0.2541
 1785TIP3    H129550   0.651   4.922  19.682  1.0906 -1.4045 -0.7508
 1785TIP3    H229551   0.769   4.989  19.749  0.2320 -0.9818  0.3672
 1786TIP3   OH229552   0.937   6.263  17.147  0.1513  0.3467  0.2609
 1786TIP3    H129553   0.860   6.228  17.190  1.1798 -1.5199  0.6863
 1786TIP3    H229554   1.005   6.263  17.215  0.9988  0.1845 -0.5623
 1787TIP3   OH229555   0.060   3.321  19.149 -0.1979  0.5756  0.1473
 1787TIP3    H129556  -0.029   3.348  19.171 -0.0844  0.0585  1.3087
 1787TIP3    H229557   0.048   3.245  19.091 -0.5013  0.8126 -0.1063
 1788TIP3   OH229558   5.445   6.393  18.121 -0.2835  0.0204  0.0572
 1788TIP3    H129559   5.399   6.309  18.126 -1.6863  0.7723  0.2462
 1788TIP3    H229560   5.430   6.423  18.031  0.6114 -0.1457 -0.1511
 1789TIP3   OH229561   6.134   0.766  18.638  0.2110  0.1078 -0.6991
 1789TIP3    H129562   6.133   0.671  18.649  2.0162  0.1393  0.1527
 1789TIP3    H229563   6.217   0.784  18.594  0.6599  1.3723  0.5709
 1790TIP3   OH229564   2.913   6.221  17.674  0.0261  0.8004  0.6639
 1790TIP3    H129565   2.819   6.240  17.677 -0.3395 -0.8550  0.4030
 1790TIP3    H229566   2.954   6.306  17.687 -1.4994  1.3623  2.2369
 1791TIP3   OH229567   6.338   4.739  17.889  0.0849 -0.0331 -0.1043
 1791TIP3    H129568   6.299   4.816  17.929 -0.5568  0.7629 -2.1459
 1791TIP3    H229569   6.416   4.721  17.942 -0.8984  0.7085  1.6747
 1792TIP3   OH229570   1.049   3.765  17.149 -0.6374 -0.1147  0.4265
 1792TIP3    H129571   1.002   3.795  17.071 -0.6064  0.3129  0.5672
 1792TIP3    H229572   1.038   3.837  17.212  0.2670  0.0233  0.4362
 1793TIP3   OH229573   7.378   1.120  16.952 -0.0850  0.9054  0.4158
 1793TIP3    H129574   7.470   1.145  16.941  0.0476 -0.1945 -1.4553
 1793TIP3    H229575   7.356   1.148  17.041  2.4708  0.0029  1.4404
 1794TIP3   OH229576   4.081   0.932  18.989  0.1498 -0.4081 -0.0758
 1794TIP3    H129577   4.097   0.844  18.954 -0.9847 -0.6139 -0.1293
 1794TIP3    H229578   4.168   0.967  19.006  0.6162 -1.9101  0.8844
 1795TIP3   OH229579   6.035   0.510  18.676 -0.3082  0.1341  0.2087
 1795TIP3    H129580   5.999   0.479  18.759 -0.8607  1.2032  0.3839
 1795TIP3    H229581   5.986   0.460  18.609 -0.4706 -0.1030  0.4992
 1796TIP3   OH229582   1.670   3.956  18.988  0.8096  0.0266  0.7962
 1796TIP3    H129583   1.656   4.048  18.964  0.5493 -0.4303 -0.9303
 1796TIP3    H229584   1.583   3.924  19.010  0.5727 -0.2981 -0.5323
 1797TIP3   OH229585   0.616   3.109  17.399 -0.1833  0.4990 -0.3096
 1797TIP3    H129586   0.549   3.092  17.333 -0.6667  1.6571 -0.1502
 1797TIP3    H229587   0.592   3.194  17.435  0.9033  0.5420  0.3470
 1798TIP3   OH229588   4.614   7.211  17.771  0.8021 -0.3604  0.6162
 1798TIP3    H129589   4.619   7.150  17.698 -0.2116 -0.3618  0.5430
 1798TIP3    H229590   4.645   7.161  17.847  0.7870 -0.7009  0.3977
 1799TIP3   OH229591   1.498   1.835  18.581 -0.4953 -0.2598  0.1069
 1799TIP3    H129592   1.522   1.813  18.671 -2.1885  0.9332  0.9085
 1799TIP3    H229593   1.567   1.894  18.551  1.0830 -2.1173 -0.0965
 1800TIP3   OH229594   4.879   3.187  19.163 -0.2722  0.0045  0.2957
 1800TIP3    H129595   4.864   3.125  19.092  0.7707 -0.0178  0.0708
 1800TIP3    H229596   4.806   3.249  19.157 -0.4065 -0.2238 -0.5593
 1801TIP3   OH229597   0.198   4.679  17.354 -0.3004 -0.0435 -0.3254
 1801TIP3    H129598   0.151   4.750  17.398 -0.0356 -0.6204  0.9631
 1801TIP3    H229599   0.229   4.623  17.426 -0.8188 -1.6622 -1.3034
 1802TIP3   OH229600   0.759   3.665  16.943  0.5574  0.2306  0.0803
 1802TIP3    H129601   0.797   3.746  16.908  0.6140 -0.3607 -1.2479
 1802TIP3    H229602   0.764   3.602  16.871 -3.8039  0.3784 -0.6205
 1803TIP3   OH229603   4.660   2.787  18.610 -0.5259 -0.0271  0.0075
 1803TIP3    H129604   4.713   2.708  18.617  1.6654  1.3207 -0.4448
 1803TIP3    H229605   4.617   2.794  18.696  1.9943  0.1019  1.3636
 1804TIP3   OH229606   0.793   2.909  17.485  0.3528 -0.8103 -0.4202
 1804TIP3    H129607   0.747   2.989  17.461 -1.0501 -1.9092 -1.5545
 1804TIP3    H229608   0.859   2.897  17.417  0.9565 -0.3544  0.0635
 1805TIP3   OH229609   1.010   7.463  18.950 -0.0862 -0.2969 -0.0210
 1805TIP3    H129610   1.025   7.387  18.895  1.3299  0.1929 -0.3533
 1805TIP3    H229611   0.978   7.530  18.890  0.7252  0.0058 -0.1268
 1806TIP3   OH229612   1.687   2.779  16.662  0.2358  0.6512 -1.0374
 1806TIP3    H129613   1.758   2.830  16.623 -0.5603  3.6372  1.0722
 1806TIP3    H229614   1.616   2.841  16.672 -0.3564 -0.4272  3.0575
 1807TIP3   OH229615   2.272   1.444  17.817 -0.2744 -0.4481 -0.1954
 1807TIP3    H129616   2.337   1.460  17.749  0.0322  0.7887  0.3581
 1807TIP3    H229617   2.191   1.426  17.769  0.6062 -2.8519 -0.9010
 1808TIP3   OH229618   1.136   7.064  19.379 -0.4396  0.0715 -0.4024
 1808TIP3    H129619   1.187   6.989  19.408  0.6187  1.0005  0.2273
 1808TIP3    H229620   1.052   7.056  19.425  0.1387 -0.0529  0.6465
 1809TIP3   OH229621   0.632   5.901  17.559  0.6182  0.3975  0.0932
 1809TIP3    H129622   0.596   5.891  17.647  2.1262  2.1708  0.9985
 1809TIP3    H229623   0.631   5.996  17.544 -0.2015  0.0904 -2.0951
 1810TIP3   OH229624   5.077   1.384  18.115  0.2769 -0.5913  0.1558
 1810TIP3    H129625   5.018   1.317  18.149  1.5690 -0.9096  1.8528
 1810TIP3    H229626   5.150   1.387  18.177 -0.3351  3.3386  0.9751
 1811TIP3   OH229627   5.896   4.639  18.677 -0.0144  0.0965  0.3846
 1811TIP3    H129628   5.816   4.685  18.651  0.4300  0.5907 -0.1493
 1811TIP3    H229629   5.956   4.709  18.702 -0.3690 -0.3445  2.6893
 1812TIP3   OH229630   0.367   7.471  18.462  0.2341  0.1351  0.5729
 1812TIP3    H129631   0.302   7.509  18.403  0.1386 -0.4818  0.2620
 1812TIP3    H229632   0.448   7.471  18.412 -0.4231 -3.0835 -0.7863
 1813TIP3   OH229633   7.118   6.013  17.790  0.0985  0.2465 -0.6276
 1813TIP3    H129634   7.197   5.979  17.747  0.1929 -1.3160  0.6919
 1813TIP3    H229635   7.049   5.952  17.763  0.0914 -0.5627  1.0634
 1814TIP3   OH229636   4.809   4.491  18.699  0.0021 -0.0228 -0.2374
 1814TIP3    H129637   4.862   4.540  18.762 -1.3776 -1.8363  2.5097
 1814TIP3    H229638   4.721   4.491  18.735 -0.9985 -0.7287 -2.4714
 1815TIP3   OH229639   0.036   7.486  17.657 -0.7330  0.1820 -0.5015
 1815TIP3    H129640   0.021   7.406  17.707 -0.5428  0.8466  0.6506
 1815TIP3    H229641   0.117   7.522  17.694 -1.8787  1.9522  0.4266
 1816TIP3   OH229642   4.224   1.260  17.445 -0.2202 -0.7991  0.8390
 1816TIP3    H129643   4.309   1.218  17.428  1.2395  1.1928  2.6845
 1816TIP3    H229644   4.214   1.324  17.374  1.4731  1.2114  2.3057
 1817TIP3   OH229645   1.760   4.571  18.340 -0.6727 -0.4796  0.1603
 1817TIP3    H129646   1.789   4.481  18.321 -2.1429 -1.2043  1.0844
 1817TIP3    H229647   1.687   4.585  18.279 -0.0761  0.3234 -0.3787
 1818TIP3   OH229648   6.991   3.512  17.366 -0.2038  1.1869  0.3810
 1818TIP3    H129649   7.002   3.529  17.273  0.1799  3.9832  0.8253
 1818TIP3    H229650   6.923   3.574  17.394 -1.6070 -0.8173  1.6813
 1819TIP3   OH229651   6.071   1.965  18.736 -0.0592 -0.6006 -0.5374
 1819TIP3    H129652   6.111   2.016  18.807 -2.5036  0.9583 -0.1383
 1819TIP3    H229653   6.133   1.894  18.719  2.9119  1.6876 -0.1581
 1820TIP3   OH229654   7.443   5.977  18.787  0.0141 -0.2906  0.1595
 1820TIP3    H129655   7.525   5.999  18.743  0.2345 -1.4419 -0.0529
 1820TIP3    H229656   7.408   5.904  18.737 -0.4391 -0.7138  1.0659
 1821TIP3   OH229657   2.770   2.487  17.256 -0.0895 -0.0083  0.4169
 1821TIP3    H129658   2.674   2.490  17.251 -0.1484  1.2211  1.5792
 1821TIP3    H229659   2.799   2.556  17.196  0.1504 -1.3091 -1.0074
 1822TIP3   OH229660   4.369   5.011  17.633  0.0314 -0.8497  0.0698
 1822TIP3    H129661   4.402   4.928  17.602 -1.6573 -0.5650 -2.8448
 1822TIP3    H229662   4.285   4.990  17.674 -0.1063 -0.6533 -0.1087
 1823TIP3   OH229663   2.641   4.816  19.458 -0.4367  0.8954  0.3839
 1823TIP3    H129664   2.552   4.849  19.471 -0.3649  0.7141  1.4090
 1823TIP3    H229665   2.662   4.839  19.367 -1.2186  1.6668  0.3842
 1824TIP3   OH229666   4.971   1.030  17.572  0.2633 -0.3454  0.1402
 1824TIP3    H129667   5.033   1.031  17.645  1.4991 -0.5601 -0.8698
 1824TIP3    H229668   4.955   1.122  17.552 -0.8564 -0.2619  1.2802
 1825TIP3   OH229669   0.429   5.176  17.547 -0.4865 -0.1608  0.1053
 1825TIP3    H129670   0.372   5.230  17.602  0.0729  0.4411  0.1040
 1825TIP3    H229671   0.472   5.238  17.488 -0.2860 -0.6803 -0.3093
 1826TIP3   OH229672   7.280   3.001  18.114  0.0514  0.6927  0.2595
 1826TIP3    H129673   7.323   3.081  18.143 -0.0684  0.7810  0.1924
 1826TIP3    H229674   7.211   3.031  18.055 -1.2476  0.6886  1.7109
 1827TIP3   OH229675   6.415   3.738  18.863 -0.1463 -0.4095  0.6640
 1827TIP3    H129676   6.461   3.655  18.851  1.3397  0.3858  0.6684
 1827TIP3    H229677   6.429   3.759  18.955  0.9503  0.6655  0.2720
 1828TIP3   OH229678   3.423   4.996  17.930 -0.6523 -0.3612 -0.1171
 1828TIP3    H129679   3.362   5.062  17.897  0.5481  0.6558 -0.3877
 1828TIP3    H229680   3.508   5.040  17.930 -0.1594 -1.2217  1.7621
 1829TIP3   OH229681   4.821   0.875  19.111  0.6934 -0.0054  0.4783
 1829TIP3    H129682   4.906   0.907  19.079  1.2303 -0.4511  1.4174
 1829TIP3    H229683   4.839   0.786  19.140 -0.5426 -0.8320 -1.1088
 1830TIP3   OH229684   2.641   0.001  19.199 -0.2674  0.0180  0.1713
 1830TIP3    H129685   2.636  -0.090  19.170 -0.5759 -0.0073  0.2928
 1830TIP3    H229686   2.628   0.053  19.119 -0.2494 -0.0466  0.1269
 1831TIP3   OH229687   4.208   7.064  17.698 -0.8338 -0.1086 -0.0362
 1831TIP3    H129688   4.120   7.099  17.688 -1.1737 -1.0150 -0.2873
 1831TIP3    H229689   4.197   6.986  17.753 -0.2681 -0.5311 -0.5026
 1832TIP3   OH229690   0.407   2.934  19.463 -0.6793 -0.6429 -0.0458
 1832TIP3    H129691   0.483   2.906  19.514 -0.6101  0.9714  0.8317
 1832TIP3    H229692   0.428   2.911  19.373  0.6800 -0.5996  0.2339
 1833TIP3   OH229693   7.522   6.170  18.335 -0.3018  0.0995  0.3157
 1833TIP3    H129694   7.477   6.242  18.290  0.6081  1.0736  0.8954
 1833TIP3    H229695   7.572   6.126  18.266  1.0932  1.5891  0.3118
 1834TIP3   OH229696   2.994   0.709  19.105  0.1786 -0.1163  0.6295
 1834TIP3    H129697   3.016   0.706  19.012 -3.1213  1.8156 -0.3974
 1834TIP3    H229698   3.029   0.793  19.136 -1.5800  0.8450  0.1551
 1835TIP3   OH229699   7.534   4.012  18.183 -0.2882  0.1409  0.1984
 1835TIP3    H129700   7.599   4.064  18.135 -0.0418 -1.5731 -1.4340
 1835TIP3    H229701   7.584   3.939  18.219 -0.6705  0.8434  2.2949
 1836TIP3   OH229702   2.762   0.359  19.097 -0.2214  0.0637  0.1003
 1836TIP3    H129703   2.677   0.329  19.064 -1.2120  0.5959  2.0304
 1836TIP3    H229704   2.780   0.302  19.172  1.8266 -0.9278 -1.0598
 1837TIP3   OH229705   0.705   6.899  18.990 -0.3738  0.3320 -0.3183
 1837TIP3    H129706   0.697   6.978  18.937  1.5688 -0.8963 -2.6333
 1837TIP3    H229707   0.631   6.844  18.965  0.4268 -0.1607 -1.7356
 1838TIP3   OH229708   6.947   6.948  18.239 -0.3286 -0.5020 -0.3677
 1838TIP3    H129709   6.916   6.943  18.329  0.1673 -0.6118 -0.1956
 1838TIP3    H229710   6.955   7.042  18.222 -0.9348 -0.4696 -0.4826
 1839TIP3   OH229711   0.063   2.734  17.288  0.3452  0.0239 -0.6061
 1839TIP3    H129712  -0.017   2.775  17.255 -0.3805  0.7914  1.9073
 1839TIP3    H229713   0.120   2.808  17.309  0.9331 -0.4461 -0.5470
 1840TIP3   OH229714   1.478   7.421  18.033  0.4694 -0.1909  0.1325
 1840TIP3    H129715   1.524   7.493  18.077  0.6335  0.1979 -0.6635
 1840TIP3    H229716   1.501   7.430  17.941 -0.3734 -0.6247 -0.1301
 1841TIP3   OH229717   1.679   5.965  18.079 -0.0313  0.4987 -0.0309
 1841TIP3    H129718   1.676   6.050  18.035  2.4543  0.6669  0.0103
 1841TIP3    H229719   1.664   5.901  18.010 -3.3023  0.9119  0.1457
 1842TIP3   OH229720   6.606   2.484  17.255 -0.0547  0.3960 -0.1384
 1842TIP3    H129721   6.574   2.557  17.203 -0.1552  0.4678  0.0222
 1842TIP3    H229722   6.649   2.426  17.192  0.0235  0.5913 -0.2657
 1843TIP3   OH229723   6.229   3.717  19.465  0.1397 -0.0979  0.0089
 1843TIP3    H129724   6.212   3.811  19.460  1.4357  0.1450 -0.2219
 1843TIP3    H229725   6.291   3.700  19.394  1.6172 -0.7187  1.4101
 1844TIP3   OH229726   5.379   5.322  18.260 -0.4203  0.0913  0.0511
 1844TIP3    H129727   5.429   5.241  18.246 -1.0048 -0.3778  0.5878
 1844TIP3    H229728   5.315   5.299  18.327 -1.8301  0.4451 -1.1098
 1845TIP3   OH229729   7.501   6.142  16.960 -0.4673 -0.0813 -0.6510
 1845TIP3    H129730   7.527   6.151  17.052 -1.2002  0.6971 -0.5100
 1845TIP3    H229731   7.485   6.231  16.931  0.8141 -0.2117 -1.8718
 1846TIP3   OH229732   1.818   3.803  18.665 -0.0242  0.2716  0.5082
 1846TIP3    H129733   1.821   3.897  18.648  0.2130  0.5701  2.0651
 1846TIP3    H229734   1.908   3.780  18.689  0.3436 -0.7396 -1.6066
 1847TIP3   OH229735   2.656   6.911  19.115  0.0185  1.0864  0.2687
 1847TIP3    H129736   2.606   6.986  19.084 -2.5767 -0.6811 -0.1469
 1847TIP3    H229737   2.738   6.914  19.066 -0.7361  2.6863 -0.9709
 1848TIP3   OH229738   2.812   3.274  19.360  0.0817  0.0234 -0.1475
 1848TIP3    H129739   2.758   3.291  19.437 -0.9248  2.2210 -1.2747
 1848TIP3    H229740   2.866   3.352  19.351  1.2073 -0.8068 -0.9093
 1849TIP3   OH229741   3.208   7.222  19.346  0.4231  0.1977  0.0902
 1849TIP3    H129742   3.183   7.172  19.423 -0.4476  0.3778 -0.0656
 1849TIP3    H229743   3.192   7.163  19.272  1.5081 -0.0716  0.0557
 1850TIP3   OH229744   6.091   1.101  18.598  0.3371 -0.4145 -0.1439
 1850TIP3    H129745   6.151   1.091  18.525  1.9188 -2.0687  1.2785
 1850TIP3    H229746   6.083   1.012  18.635 -1.2469  0.1651  1.0569
 1851TIP3   OH229747   7.370   5.336  17.866 -0.1760 -0.1735 -0.1216
 1851TIP3    H129748   7.414   5.340  17.781 -0.1172 -0.3928 -0.1011
 1851TIP3    H229749   7.439   5.314  17.928 -0.4549 -1.3844 -0.2133
 1852TIP3   OH229750   3.483   6.206  18.321 -0.2980  0.3236 -0.0277
 1852TIP3    H129751   3.520   6.202  18.233 -1.5264  1.5732 -0.6330
 1852TIP3    H229752   3.547   6.159  18.375  1.8753  1.8402 -1.0995
 1853TIP3   OH229753   3.951   6.792  18.025 -0.4261  0.3794 -0.0321
 1853TIP3    H129754   3.939   6.811  18.118  2.2531  2.0280  0.0930
 1853TIP3    H229755   3.876   6.833  17.982 -1.7500 -0.4956  1.3688
 1854TIP3   OH229756   6.912   0.775  17.946  0.3014  0.1684  0.1881
 1854TIP3    H129757   6.991   0.817  17.980  0.7216  0.3007 -0.9125
 1854TIP3    H229758   6.909   0.690  17.991 -0.0335  0.9669  1.7133
 1855TIP3   OH229759   3.735   7.266  17.524 -0.2252 -0.3456  0.3548
 1855TIP3    H129760   3.735   7.246  17.430  1.8282 -1.0958  0.4690
 1855TIP3    H229761   3.673   7.204  17.562 -0.1654 -0.8452 -0.3526
 1856TIP3   OH229762   0.082   0.772  19.352 -0.0706 -1.2662 -0.6394
 1856TIP3    H129763   0.174   0.797  19.340 -0.3926 -0.4402 -1.4653
 1856TIP3    H229764   0.084   0.712  19.427  1.0457 -0.6733 -0.1574
 1857TIP3   OH229765   1.344   6.230  18.130 -0.0616  0.0364 -0.1718
 1857TIP3    H129766   1.345   6.178  18.210 -0.4025 -0.1135 -0.2608
 1857TIP3    H229767   1.327   6.166  18.060 -0.0802  0.2082 -0.3241
 1858TIP3   OH229768   0.101   4.593  18.993 -0.2985 -0.4227  0.3079
 1858TIP3    H129769   0.049   4.666  19.029  0.3455 -0.2507  0.9027
 1858TIP3    H229770   0.106   4.612  18.900 -2.3406 -1.0880 -0.0014
 1859TIP3   OH229771   5.167   2.151  17.635  0.2802  0.0289  0.2551
 1859TIP3    H129772   5.116   2.177  17.558 -0.4431  0.5789  0.9124
 1859TIP3    H229773   5.250   2.122  17.599  0.4319  1.4914 -0.6542
 1860TIP3   OH229774   1.979   0.282  17.979 -0.1180 -0.1046 -0.2330
 1860TIP3    H129775   2.003   0.374  17.987  0.3037 -0.1098 -1.2629
 1860TIP3    H229776   2.059   0.234  18.000 -0.1894 -0.2177 -0.2173
 1861TIP3   OH229777   7.393   5.456  18.658  0.1062  0.6258 -0.3147
 1861TIP3    H129778   7.422   5.495  18.740  1.5466  0.9983 -0.9840
 1861TIP3    H229779   7.413   5.522  18.591  0.3271 -0.2638 -1.1524
 1862TIP3   OH229780   5.236   2.593  18.908 -0.4416 -0.4518  0.1874
 1862TIP3    H129781   5.266   2.506  18.935  1.1797 -0.2515 -0.8223
 1862TIP3    H229782   5.237   2.645  18.989  0.5061 -0.8756  0.4683
 1863TIP3   OH229783   0.499   1.168  17.394 -0.1755  0.3677  0.1255
 1863TIP3    H129784   0.412   1.199  17.370 -0.7881 -1.8362 -0.6825
 1863TIP3    H229785   0.558   1.214  17.333 -1.2450 -1.4506 -2.4380
 1864TIP3   OH229786   5.208   4.592  17.701  0.4264 -0.0048 -0.0890
 1864TIP3    H129787   5.155   4.619  17.626  0.3480 -0.0882 -0.0635
 1864TIP3    H229788   5.163   4.515  17.735  0.0827  0.4260  0.4490
 1865TIP3   OH229789   1.803   5.216  18.432 -0.2250 -0.1427  0.0749
 1865TIP3    H129790   1.769   5.146  18.377  1.1691 -1.2527  0.5468
 1865TIP3    H229791   1.808   5.292  18.375 -2.0420 -0.3079 -0.3753
 1866TIP3   OH229792   0.660   1.027  16.983 -0.3531 -0.2678  0.0930
 1866TIP3    H129793   0.658   0.967  17.057  0.4861  0.9837  1.1684
 1866TIP3    H229794   0.724   0.989  16.923 -1.2022 -1.4062 -0.1231
 1867TIP3   OH229795   4.682   7.204  18.044 -0.4811  0.0138 -0.2137
 1867TIP3    H129796   4.699   7.250  18.126 -0.7619 -0.3280  0.0402
 1867TIP3    H229797   4.599   7.240  18.013  1.2631  2.7491 -2.2037
 1868TIP3   OH229798   7.350   5.850  18.039  0.4460  0.2197 -0.2898
 1868TIP3    H129799   7.355   5.845  17.943 -0.6497 -0.2963 -0.3292
 1868TIP3    H229800   7.289   5.922  18.056  0.0552 -0.1801  0.0061
 1869TIP3   OH229801   7.314   1.424  18.423 -0.5358 -0.1889 -0.2040
 1869TIP3    H129802   7.252   1.497  18.431 -1.0932 -0.5829 -0.8302
 1869TIP3    H229803   7.377   1.454  18.357 -1.5165 -0.7733 -1.4373
 1870TIP3   OH229804   7.464   1.225  17.472  0.4072 -0.4610  0.1865
 1870TIP3    H129805   7.480   1.229  17.566  2.6625 -2.0534 -0.0255
 1870TIP3    H229806   7.527   1.287  17.434 -1.9958  1.8655 -0.2429
 1871TIP3   OH229807   7.037   1.268  18.243  0.3786  0.0322  0.4865
 1871TIP3    H129808   7.064   1.360  18.244 -0.0845  0.1672  0.7970
 1871TIP3    H229809   7.120   1.219  18.243  0.6975  0.4242 -2.1208
 1872TIP3   OH229810   6.001   7.385  16.937  0.2994 -0.6888  0.0557
 1872TIP3    H129811   6.089   7.398  16.973  0.1347  0.5257  0.0806
 1872TIP3    H229812   5.948   7.360  17.012  0.0699  1.3139  0.6223
 1873TIP3   OH229813   0.576   0.641  17.968  0.0227  0.3942 -0.4274
 1873TIP3    H129814   0.507   0.704  17.987  1.7220  2.2348  0.0277
 1873TIP3    H229815   0.589   0.648  17.873  0.3856  0.9452 -0.3407
 1874TIP3   OH229816   0.709   0.437  18.914  0.1969 -0.2821 -0.4270
 1874TIP3    H129817   0.801   0.418  18.892  0.7326 -1.1532  2.2074
 1874TIP3    H229818   0.703   0.533  18.909  2.1748  0.1210  2.1781
 1875TIP3   OH229819   4.107   0.162  16.471 -0.2071  0.5598  0.1525
 1875TIP3    H129820   4.141   0.235  16.419  0.6803 -1.3869 -2.1683
 1875TIP3    H229821   4.178   0.099  16.474 -1.5893 -1.0583  0.4285
 1876TIP3   OH229822   6.587   3.707  17.202 -0.3268 -0.0273  0.0922
 1876TIP3    H129823   6.502   3.731  17.165 -1.1474 -1.8544  0.6762
 1876TIP3    H229824   6.627   3.649  17.136  0.4649  0.7754 -0.1551
 1877TIP3   OH229825   2.871   2.572  18.492  0.0499  0.0962  0.1545
 1877TIP3    H129826   2.942   2.634  18.477 -0.2930  0.9467  1.7548
 1877TIP3    H229827   2.913   2.495  18.529  0.1845  0.4471  0.7377
 1878TIP3   OH229828   6.457   2.179  19.346 -0.0765 -0.1749  0.1146
 1878TIP3    H129829   6.546   2.176  19.381  0.9475  0.4596 -2.2402
 1878TIP3    H229830   6.425   2.090  19.354  1.0544 -0.5858  0.2783
 1879TIP3   OH229831   4.678   5.656  17.187  0.7039 -0.3638 -0.3019
 1879TIP3    H129832   4.682   5.569  17.146 -1.3364 -0.9751  0.6555
 1879TIP3    H229833   4.601   5.697  17.148 -0.0393 -0.1444  1.3131
 1880TIP3   OH229834   3.551   3.605  19.596  0.2734 -0.0817  0.3800
 1880TIP3    H129835   3.460   3.631  19.582  0.9483  1.6255 -1.2353
 1880TIP3    H229836   3.594   3.684  19.630  1.0283 -1.0868  1.8709
 1881TIP3   OH229837   2.153   6.620  19.406  0.1340 -0.6270 -0.7289
 1881TIP3    H129838   2.142   6.714  19.424  0.0976 -0.3388 -2.1577
 1881TIP3    H229839   2.247   6.608  19.394  0.2433 -0.9653  0.3597
 1882TIP3   OH229840   2.619   7.518  18.679 -0.0597 -0.2929 -0.6734
 1882TIP3    H129841   2.713   7.499  18.681  0.1642  0.7936 -0.1685
 1882TIP3    H229842   2.612   7.597  18.625 -0.5842  0.0844 -0.0650
 1883TIP3   OH229843   6.135   3.575  18.042  0.4851  0.4888 -0.3496
 1883TIP3    H129844   6.086   3.499  18.073 -0.5214  1.4271  0.3942
 1883TIP3    H229845   6.072   3.647  18.043  1.7587  1.6298  0.2083
 1884TIP3   OH229846   5.615   4.336  18.258 -0.2459  0.3882 -0.0628
 1884TIP3    H129847   5.651   4.367  18.175 -0.1138 -0.6322 -0.4001
 1884TIP3    H229848   5.680   4.363  18.323 -0.2115  0.9397 -0.3211
 1885TIP3   OH229849   3.587   7.677  16.345 -0.5486  0.8713 -0.8312
 1885TIP3    H129850   3.679   7.694  16.325 -1.0532  3.0679 -1.6150
 1885TIP3    H229851   3.581   7.582  16.352  2.1041  0.7122  0.9373
 1886TIP3   OH229852   5.357   0.329  18.978 -0.0121 -0.2945 -0.3708
 1886TIP3    H129853   5.414   0.288  19.044  0.6290  0.2378 -0.5782
 1886TIP3    H229854   5.387   0.293  18.895  0.8475  0.8956 -0.5968
 1887TIP3   OH229855   2.558   5.628  18.820 -0.0745  0.2633  0.3905
 1887TIP3    H129856   2.476   5.676  18.823 -0.8624 -0.9778 -0.1640
 1887TIP3    H229857   2.575   5.605  18.911 -1.2896 -0.9340  0.3581
 1888TIP3   OH229858   4.649   1.500  19.097 -0.1502 -0.1086  0.0300
 1888TIP3    H129859   4.638   1.405  19.103 -0.7460  0.0232  1.4943
 1888TIP3    H229860   4.560   1.533  19.080 -0.5671  0.3616  2.7512
 1889TIP3   OH229861   4.302   2.628  17.843 -0.1417  0.6471 -0.1971
 1889TIP3    H129862   4.280   2.535  17.839 -0.7751  0.7931 -0.0787
 1889TIP3    H229863   4.219   2.674  17.829  0.0032  1.1908  0.6735
 1890TIP3   OH229864   3.887   3.285  18.447 -0.0447  0.1233 -0.3436
 1890TIP3    H129865   3.804   3.318  18.412 -0.9771 -0.9151  0.7870
 1890TIP3    H229866   3.885   3.306  18.540 -0.0084 -1.7074  0.1227
 1891TIP3   OH229867   4.313   6.278  16.957 -0.2889 -0.1117 -0.2075
 1891TIP3    H129868   4.255   6.286  16.881 -0.9179 -2.2132 -0.0357
 1891TIP3    H229869   4.330   6.184  16.964  2.4883  0.3345  0.2846
 1892TIP3   OH229870   6.600   6.579  18.435 -0.3717  0.1755  0.0515
 1892TIP3    H129871   6.555   6.640  18.377  2.1230  0.7249 -1.4349
 1892TIP3    H229872   6.530   6.521  18.467 -1.8880 -0.3048 -3.6752
 1893TIP3   OH229873   6.140   5.473  17.115 -0.1415  0.4860  0.9031
 1893TIP3    H129874   6.147   5.558  17.071  0.2828  0.1765  0.3716
 1893TIP3    H229875   6.108   5.414  17.048 -1.2916  0.4045  1.5067
 1894TIP3   OH229876   5.445   0.166  17.677 -0.3019  0.2469 -0.5437
 1894TIP3    H129877   5.407   0.118  17.750 -0.3722 -0.9780 -1.3477
 1894TIP3    H229878   5.380   0.160  17.607 -0.1865  1.2895 -0.7627
 1895TIP3   OH229879   2.860   1.850  17.622 -0.4031 -0.1650 -0.2751
 1895TIP3    H129880   2.782   1.885  17.664  0.5057  2.3123 -0.5319
 1895TIP3    H229881   2.927   1.917  17.633  1.2486 -1.5077 -1.4793
 1896TIP3   OH229882   0.126   4.361  17.276 -0.6163  0.5319  0.0374
 1896TIP3    H129883   0.061   4.370  17.346 -1.1333 -1.7704 -0.0799
 1896TIP3    H229884   0.075   4.369  17.195 -0.0646  2.8708 -0.1524
 1897TIP3   OH229885   1.558   7.425  17.764 -0.0180 -0.3952 -0.1265
 1897TIP3    H129886   1.496   7.466  17.704  0.7263  0.3336 -0.4043
 1897TIP3    H229887   1.639   7.473  17.751  1.1014 -2.4038 -1.0153
 1898TIP3   OH229888   7.332   1.019  17.645 -0.0550 -0.0185 -0.4849
 1898TIP3    H129889   7.276   1.089  17.612  1.4859  1.3260 -0.3644
 1898TIP3    H229890   7.379   0.988  17.568 -1.0330 -1.2457 -0.6117
 1899TIP3   OH229891   6.180   5.673  18.039  0.0847 -0.2712  0.4069
 1899TIP3    H129892   6.223   5.752  18.072 -0.3326  0.1005  0.0748
 1899TIP3    H229893   6.093   5.674  18.078 -0.7522  0.6632 -1.3824
 1900TIP3   OH229894   0.601   6.416  17.787  0.3890  0.0676  0.1317
 1900TIP3    H129895   0.533   6.429  17.853  0.8547  0.4512  0.5432
 1900TIP3    H229896   0.676   6.466  17.819  1.4166 -1.6438  0.5162
 1901TIP3   OH229897   6.384   0.785  19.360  0.2035 -0.6538  0.1391
 1901TIP3    H129898   6.378   0.880  19.354  0.0063 -0.6845 -0.1234
 1901TIP3    H229899   6.294   0.754  19.351  0.4057 -0.9354 -1.0425
 1902TIP3   OH229900   2.625   2.795  17.370  0.5011 -0.2760 -0.4029
 1902TIP3    H129901   2.551   2.747  17.332 -0.2340  0.7942 -0.3574
 1902TIP3    H229902   2.642   2.752  17.453 -0.3912 -0.2304 -0.1930
 1903TIP3   OH229903   0.781   1.484  17.911 -0.6619  0.4963 -0.1857
 1903TIP3    H129904   0.742   1.435  17.984  0.6289 -1.3251 -0.6640
 1903TIP3    H229905   0.874   1.462  17.914 -0.1149  2.5645 -0.7499
 1904TIP3   OH229906   5.575   2.684  19.041  0.3427  0.2119  0.0259
 1904TIP3    H129907   5.647   2.745  19.027  0.9803 -0.2553  1.1386
 1904TIP3    H229908   5.617   2.599  19.055 -0.4465 -0.1687  0.1438
 1905TIP3   OH229909   7.308   3.607  17.195 -0.0986 -0.2047 -0.0185
 1905TIP3    H129910   7.319   3.512  17.193 -0.3058 -0.2860  1.3745
 1905TIP3    H229911   7.214   3.621  17.186  0.1052  0.0134 -2.4338
 1906TIP3   OH229912   0.252   7.138  19.142 -0.3225  0.1775 -0.4167
 1906TIP3    H129913   0.204   7.192  19.079 -0.1392  1.2741  0.3520
 1906TIP3    H229914   0.248   7.187  19.224 -0.5580 -1.2229  0.4449
 1907TIP3   OH229915   0.210   1.593  16.860  0.2342  0.7959  0.2696
 1907TIP3    H129916   0.187   1.685  16.846  1.4665  1.2395  0.9980
 1907TIP3    H229917   0.136   1.558  16.909 -0.2928  1.3686 -0.0946
 1908TIP3   OH229918   4.987   5.126  18.902  0.1713  0.4967  0.2032
 1908TIP3    H129919   4.972   5.219  18.918  1.2728  0.5565  0.9662
 1908TIP3    H229920   5.073   5.121  18.861 -0.4181 -0.1048 -1.0572
 1909TIP3   OH229921   5.414   6.355  18.629 -0.0815 -0.1676  0.0660
 1909TIP3    H129922   5.467   6.435  18.631  1.1759 -0.9712  1.1586
 1909TIP3    H229923   5.348   6.368  18.697  1.0575 -0.6199  1.2995
 1910TIP3   OH229924   4.526   3.073  19.410  0.4539  0.0735  0.0195
 1910TIP3    H129925   4.531   2.977  19.413  0.0571  0.0671  0.5287
 1910TIP3    H229926   4.534   3.094  19.316  0.3686 -0.4647 -0.1109
 1911TIP3   OH229927   0.336   2.952  18.052 -0.3248 -0.3039  0.1793
 1911TIP3    H129928   0.324   2.956  17.957 -2.1640  2.9792  0.3828
 1911TIP3    H229929   0.431   2.955  18.063 -0.0855  0.2263 -1.5764
 1912TIP3   OH229930   3.160   7.426  17.990  0.3492  0.0530 -0.0367
 1912TIP3    H129931   3.253   7.432  17.965  0.3449  0.3109  0.0111
 1912TIP3    H229932   3.158   7.355  18.055  0.8883  1.5726  1.7225
 1913TIP3   OH229933   4.870   0.496  17.729  0.3931  0.1280 -0.5303
 1913TIP3    H129934   4.803   0.490  17.660 -0.2604 -0.3901  0.1346
 1913TIP3    H229935   4.827   0.544  17.800 -0.0239 -2.0188  0.7398
 1914TIP3   OH229936   5.089   4.256  18.176  0.1327  0.4798 -0.4211
 1914TIP3    H129937   5.026   4.279  18.108  0.7145 -0.0515 -1.1664
 1914TIP3    H229938   5.164   4.221  18.127  1.1444  1.4101  0.4213
 1915TIP3   OH229939   0.230   0.072  18.510  0.1409  0.3314  0.2952
 1915TIP3    H129940   0.238   0.036  18.422  0.7936 -0.0865  0.5159
 1915TIP3    H229941   0.275   0.157  18.506 -2.7241  1.9344 -0.6313
 1916TIP3   OH229942   1.596   1.887  17.778  0.4220  0.0168  0.2476
 1916TIP3    H129943   1.505   1.861  17.760  0.3292 -0.4834  1.3840
 1916TIP3    H229944   1.622   1.935  17.700 -0.5116 -0.6340 -0.4936
 1917TIP3   OH229945   4.272   4.324  17.863  0.1072  0.5685 -0.9161
 1917TIP3    H129946   4.353   4.273  17.854 -0.2926 -0.1695 -0.4610
 1917TIP3    H229947   4.289   4.404  17.813  1.4000  0.7840 -0.1815
 1918TIP3   OH229948   4.954   1.364  19.134  0.3298  0.3250  0.3988
 1918TIP3    H129949   4.884   1.320  19.182 -0.1438  1.0096  0.3451
 1918TIP3    H229950   4.974   1.306  19.061  0.0971 -0.0614  0.6419
 1919TIP3   OH229951   3.196   7.262  17.400  0.3479  0.5118  0.3115
 1919TIP3    H129952   3.221   7.225  17.315 -1.1258  0.3533 -0.0878
 1919TIP3    H229953   3.115   7.309  17.382 -2.0877 -2.5405  2.2460
 1920TIP3   OH229954   1.083   2.941  18.384 -0.1228 -0.2434  0.3396
 1920TIP3    H129955   1.143   2.870  18.406 -0.5338 -0.2660  1.4634
 1920TIP3    H229956   1.126   3.020  18.417  1.0265  0.2952 -2.1981
 1921TIP3   OH229957   4.668   3.340  18.713 -0.0520 -0.0672 -0.0869
 1921TIP3    H129958   4.712   3.424  18.729 -1.5320  0.5320  1.0264
 1921TIP3    H229959   4.657   3.337  18.618  1.0651  0.4323 -0.2543
 1922TIP3   OH229960   0.861   2.242  18.173  0.3901 -0.4465  0.0688
 1922TIP3    H129961   0.913   2.268  18.249  1.8255 -0.1668 -0.9643
 1922TIP3    H229962   0.817   2.322  18.145  1.6639  0.0128 -0.7216
 1923TIP3   OH229963   0.188   5.889  19.416 -0.2907  0.5296  0.0723
 1923TIP3    H129964   0.184   5.813  19.358  1.7028  0.1888  0.2867
 1923TIP3    H229965   0.119   5.874  19.480  0.2958 -1.3559  0.3485
 1924TIP3   OH229966   0.538   7.106  18.148 -0.2553  0.1812 -0.3055
 1924TIP3    H129967   0.490   7.113  18.230 -0.2716 -0.0277 -0.2972
 1924TIP3    H229968   0.630   7.108  18.173 -0.2367  1.8826 -0.4255
 1925TIP3   OH229969   5.245   1.273  17.834  0.0203 -0.1361  0.1580
 1925TIP3    H129970   5.198   1.312  17.909  0.1964  0.7150 -0.1662
 1925TIP3    H229971   5.225   1.180  17.840 -1.3396  0.1313  0.3144
 1926TIP3   OH229972   6.055   1.848  19.635  0.3578  0.1225 -0.2064
 1926TIP3    H129973   5.970   1.848  19.679 -0.4482 -0.9517 -1.6983
 1926TIP3    H229974   6.105   1.780  19.680 -0.6492 -1.3517 -1.2291
 1927TIP3   OH229975   4.880   6.461  18.467 -0.2934  0.6461  0.0692
 1927TIP3    H129976   4.857   6.457  18.560 -2.0699  1.4041 -0.2867
 1927TIP3    H229977   4.825   6.531  18.433 -0.5757 -0.4346 -1.8032
 1928TIP3   OH229978   4.869   4.348  17.609  0.2552  0.1913 -0.4731
 1928TIP3    H129979   4.817   4.410  17.660  1.4867  0.6982  0.1889
 1928TIP3    H229980   4.939   4.320  17.667  0.9451 -0.2036 -1.4591
 1929TIP3   OH229981   6.977   2.170  19.396 -0.1272 -0.2301  0.0052
 1929TIP3    H129982   7.032   2.094  19.380 -2.0595 -1.6571 -0.2577
 1929TIP3    H229983   6.967   2.211  19.310  1.1922  0.5617  0.2066
 1930TIP3   OH229984   2.100   0.938  18.929  0.2684  0.4303 -0.6167
 1930TIP3    H129985   2.056   0.878  18.989 -0.2969  3.7752  2.6851
 1930TIP3    H229986   2.193   0.923  18.943  0.1353  0.1352 -0.0364
 1931TIP3   OH229987   3.904   2.582  17.660  0.2518 -0.5806  0.1817
 1931TIP3    H129988   3.953   2.661  17.680  1.2399 -1.2457  0.4297
 1931TIP3    H229989   3.943   2.514  17.714 -0.1319 -1.3913 -0.5324
 1932TIP3   OH229990   0.241   7.355  19.321  0.1579  0.4370 -0.1815
 1932TIP3    H129991   0.195   7.426  19.275 -0.2748  0.7913  0.7741
 1932TIP3    H229992   0.334   7.373  19.307  0.0668  1.4802  0.4436
 1933TIP3   OH229993   7.625   6.793  17.505  0.1656  0.3668 -0.0763
 1933TIP3    H129994   7.603   6.857  17.571 -1.7851 -0.4965  0.1642
 1933TIP3    H229995   7.683   6.731  17.549  1.8130  1.7380 -0.2305
 1934TIP3   OH229996   1.144   4.111  19.318 -0.2414  0.3647  0.0186
 1934TIP3    H129997   1.076   4.085  19.380  1.0532  0.8706  1.7147
 1934TIP3    H229998   1.121   4.065  19.237 -2.5557  0.4834  0.5423
 1935TIP3   OH229999   1.745   5.791  18.309 -1.0862  0.3148  0.3151
 1935TIP3    H130000   1.785   5.858  18.364 -0.1577  0.1073 -0.0951
 1935TIP3    H230001   1.709   5.839  18.234 -1.6846  0.5096  0.7192
 1936TIP3   OH230002   4.051   4.716  18.749  0.3739 -0.5292  0.4136
 1936TIP3    H130003   4.042   4.806  18.781  1.6834 -0.3570  0.3882
 1936TIP3    H230004   4.101   4.672  18.818  0.5989 -0.9613 -0.0248
 1937TIP3   OH230005   7.396   7.563  17.218 -0.2768 -0.0903 -0.4595
 1937TIP3    H130006   7.328   7.591  17.157 -1.1571 -2.7153 -0.7920
 1937TIP3    H230007   7.467   7.531  17.162 -0.0798 -0.2543 -0.1179
 1938TIP3   OH230008   3.987   2.866  17.455  0.1112 -0.4091  0.5691
 1938TIP3    H130009   3.918   2.910  17.404  0.2154  0.6953  1.3493
 1938TIP3    H230010   4.044   2.937  17.484  1.1955 -1.2367  0.5336
 1939TIP3   OH230011   2.529   7.364  17.416 -0.4069 -0.2915  0.1010
 1939TIP3    H130012   2.605   7.394  17.467  0.4308 -0.7635 -0.8272
 1939TIP3    H230013   2.552   7.385  17.325 -1.1953 -0.8508 -0.2354
 1940TIP3   OH230014   3.306   0.303  17.216  0.3250 -0.5245  0.1026
 1940TIP3    H130015   3.357   0.377  17.185  0.2123 -1.4670 -2.5581
 1940TIP3    H230016   3.229   0.342  17.257  1.1796  0.8289  0.4967
 1941TIP3   OH230017   6.540   1.633  17.910  0.2546  0.0238  0.3027
 1941TIP3    H130018   6.602   1.560  17.914 -0.3665 -0.4913  0.7239
 1941TIP3    H230019   6.457   1.595  17.938 -0.1718  0.7968  0.1050
 1942TIP3   OH230020   4.441   1.420  16.967  0.9008  0.4640  0.4994
 1942TIP3    H130021   4.527   1.437  17.007  0.8779  0.6878  0.4529
 1942TIP3    H230022   4.459   1.359  16.896  0.9462  0.0766  0.8380
 1943TIP3   OH230023   3.030   0.307  19.501  0.5934  0.1261  0.4414
 1943TIP3    H130024   2.972   0.374  19.539  1.0685 -0.0880  1.5895
 1943TIP3    H230025   3.064   0.347  19.421 -0.2388  0.7009  0.3611
 1944TIP3   OH230026   3.873   3.247  19.518 -0.2006  0.4059 -0.0072
 1944TIP3    H130027   3.956   3.231  19.473 -0.4245  0.1483 -0.3404
 1944TIP3    H230028   3.853   3.339  19.500  0.5192  0.7523  0.9349
 1945TIP3   OH230029   0.866   6.794  17.093  0.5455  0.2828  0.0065
 1945TIP3    H130030   0.876   6.747  17.176  2.6365 -0.0072 -0.3587
 1945TIP3    H230031   0.802   6.743  17.044  0.3085 -0.3149  0.9121
 1946TIP3   OH230032   0.691   6.588  16.633 -0.1933  0.7251  0.4205
 1946TIP3    H130033   0.773   6.621  16.669 -0.8245  2.1122  0.6714
 1946TIP3    H230034   0.685   6.628  16.546 -0.0924 -0.2539 -0.0518
 1947TIP3   OH230035   3.389   6.764  16.531  0.1014 -0.4153 -0.4398
 1947TIP3    H130036   3.441   6.839  16.560 -1.1799 -0.1144  1.2444
 1947TIP3    H230037   3.392   6.769  16.436  1.7681  0.5370 -0.3909
 1948TIP3   OH230038   2.931   6.496  17.711  0.2784 -0.1412  0.3960
 1948TIP3    H130039   2.867   6.532  17.650 -0.0957 -0.3085  0.6852
 1948TIP3    H230040   3.016   6.512  17.669  0.1465  1.2490  0.6149
 1949TIP3   OH230041   0.143   1.549  17.923 -0.2827  0.0916  0.2362
 1949TIP3    H130042   0.203   1.598  17.866 -0.0697 -1.1458 -0.6579
 1949TIP3    H230043   0.129   1.467  17.877  0.0263 -1.0433  2.0770
 1950TIP3   OH230044   1.894   5.543  16.792 -0.5295  0.4417  0.0537
 1950TIP3    H130045   1.979   5.506  16.812  0.3931  2.3323 -0.1514
 1950TIP3    H230046   1.843   5.469  16.758  1.4313 -0.4722 -1.0740
 1951TIP3   OH230047   5.553   6.123  18.351 -0.4770 -0.4580  0.3321
 1951TIP3    H130048   5.599   6.145  18.432 -0.2596  1.7546 -0.3329
 1951TIP3    H230049   5.480   6.068  18.379 -2.2265  2.6451  2.5295
 1952TIP3   OH230050   4.492   2.761  19.604 -0.5836 -0.2553 -0.0802
 1952TIP3    H130051   4.583   2.740  19.585 -0.5791  2.0284 -3.4189
 1952TIP3    H230052   4.450   2.675  19.617  1.5619 -1.4976 -0.8149
 1953TIP3   OH230053   0.740   0.819  17.144  0.6091 -0.2352  0.2066
 1953TIP3    H130054   0.833   0.822  17.122  0.5703 -1.2312 -0.1422
 1953TIP3    H230055   0.737   0.801  17.237  0.7568  0.2435  0.3089
 1954TIP3   OH230056   2.371   6.041  18.191 -0.0157  0.4014 -0.5613
 1954TIP3    H130057   2.425   5.975  18.234  0.4262  0.7766 -0.5355
 1954TIP3    H230058   2.337   6.094  18.263 -0.1549  0.3654 -0.5998
 1955TIP3   OH230059   7.318   5.855  18.579  0.3521 -0.4842  0.6871
 1955TIP3    H130060   7.302   5.929  18.521  2.2442  0.8747  1.8000
 1955TIP3    H230061   7.236   5.841  18.624 -0.8177 -0.8136 -1.4001
 1956TIP3   OH230062   5.413   7.247  17.947  0.1025 -0.4904 -0.0722
 1956TIP3    H130063   5.367   7.259  18.030  2.1976  0.0161  1.0928
 1956TIP3    H230064   5.464   7.168  17.959 -0.1155 -0.8119 -1.1704
 1957TIP3   OH230065   5.413   5.724  16.861 -0.3311  0.3439  0.1413
 1957TIP3    H130066   5.454   5.637  16.859 -2.0940 -0.5460  0.0326
 1957TIP3    H230067   5.473   5.780  16.812  1.5397 -0.4573  1.3942
 1958TIP3   OH230068   5.126   5.957  18.168 -0.1578 -0.8554 -0.3082
 1958TIP3    H130069   5.077   5.928  18.245  0.1724 -0.5687  0.0200
 1958TIP3    H230070   5.138   5.879  18.115 -0.8914 -0.9436 -0.3514
 1959TIP3   OH230071   7.514   4.776  18.796  0.3425 -0.0969  0.0648
 1959TIP3    H130072   7.474   4.855  18.761  2.8523  1.1267 -0.2933
 1959TIP3    H230073   7.450   4.707  18.780 -1.0137  1.4589 -1.6485
 1960TIP3   OH230074   0.798   4.909  16.997 -0.1902 -0.0922 -0.2867
 1960TIP3    H130075   0.706   4.933  17.006 -0.0795 -0.0548  0.8499
 1960TIP3    H230076   0.798   4.837  16.933 -0.7673  1.2726 -1.9036
 1961TIP3   OH230077   1.953   4.426  18.821  1.0864  0.6038 -0.0171
 1961TIP3    H130078   1.944   4.407  18.914  0.8141  0.9097  0.0203
 1961TIP3    H230079   1.881   4.486  18.801  0.7841  0.0761 -0.5518
 1962TIP3   OH230080   7.496   1.482  18.897  0.3925  0.0044  0.0479
 1962TIP3    H130081   7.580   1.476  18.851  0.2522 -0.8991 -0.1123
 1962TIP3    H230082   7.494   1.572  18.931  0.9310  0.3879 -0.8796
 1963TIP3   OH230083   5.898   0.873  18.581 -0.5449  0.3845 -0.0844
 1963TIP3    H130084   5.833   0.809  18.552 -0.3872  0.4533 -0.5940
 1963TIP3    H230085   5.977   0.822  18.597 -0.6100  0.3572  0.1469
 1964TIP3   OH230086   4.815   2.087  19.596 -0.1138  0.0052  0.3575
 1964TIP3    H130087   4.825   2.093  19.501  1.4620 -0.9690  0.4144
 1964TIP3    H230088   4.798   1.994  19.613 -1.3197  0.3205  0.9777
 1965TIP3   OH230089   1.436   3.675  18.319 -0.4662 -0.7361 -0.1802
 1965TIP3    H130090   1.478   3.721  18.392 -3.1460 -2.5123  2.7393
 1965TIP3    H230091   1.490   3.597  18.306 -0.0484 -0.4899  0.0529
 1966TIP3   OH230092   3.308   7.118  17.595 -0.1367 -0.0228 -0.2948
 1966TIP3    H130093   3.263   7.162  17.523 -0.9528 -1.9532 -1.0204
 1966TIP3    H230094   3.261   7.145  17.674 -0.2489  0.8463 -0.6545
 1967TIP3   OH230095   2.189   2.161  18.892 -0.6953  0.2458 -0.3635
 1967TIP3    H130096   2.131   2.226  18.852 -0.3295 -0.9586 -3.0635
 1967TIP3    H230097   2.255   2.143  18.826  0.5339 -1.2272  1.1679
 1968TIP3   OH230098   1.584   4.964  18.857 -0.1752 -0.5470  0.4084
 1968TIP3    H130099   1.520   4.983  18.925  0.4682  1.1531  0.5820
 1968TIP3    H230100   1.596   5.048  18.811  0.5231 -1.2905 -0.8298
 1969TIP3   OH230101   0.242   5.332  17.759  0.2360  0.2451  0.5605
 1969TIP3    H130102   0.181   5.404  17.741  0.4319  0.2979  0.0951
 1969TIP3    H230103   0.202   5.255  17.718  0.1971  0.1614  0.7571
 1970TIP3   OH230104   2.114   4.854  17.281  0.5022 -0.3440  0.2241
 1970TIP3    H130105   2.132   4.770  17.324 -1.0169 -0.4396  0.7565
 1970TIP3    H230106   2.026   4.877  17.311  1.3846  2.0936  1.1053
 1971TIP3   OH230107   0.354   1.603  17.719 -0.2715 -0.2047  0.0804
 1971TIP3    H130108   0.325   1.689  17.687  1.4847 -0.4852 -2.5644
 1971TIP3    H230109   0.301   1.540  17.670  3.0003 -0.6677 -3.2462
 1972TIP3   OH230110   6.480   2.052  18.603 -0.2087 -0.1980  0.1836
 1972TIP3    H130111   6.548   2.081  18.542 -0.5908  1.2386  0.4008
 1972TIP3    H230112   6.401   2.045  18.550 -0.1568 -0.7212  0.1685
 1973TIP3   OH230113   7.128   0.971  17.421 -0.7912  0.2392  0.6230
 1973TIP3    H130114   7.106   0.924  17.501  0.7493  0.6540  1.3218
 1973TIP3    H230115   7.221   0.953  17.406 -0.4712  1.9852  0.2081
 1974TIP3   OH230116   3.857   6.514  17.602 -0.7045  0.7109 -0.0090
 1974TIP3    H130117   3.805   6.461  17.663  0.4076 -0.8313 -0.3229
 1974TIP3    H230118   3.918   6.562  17.658  0.5136 -0.9218  0.1642
 1975TIP3   OH230119   2.223   5.234  19.332 -0.2082  1.1355  0.8991
 1975TIP3    H130120   2.188   5.256  19.245 -1.8985  0.4550  1.3642
 1975TIP3    H230121   2.271   5.313  19.359  0.6856  1.2297 -0.7799
 1976TIP3   OH230122   7.198   4.346  19.060 -0.8068  0.0902  0.0670
 1976TIP3    H130123   7.147   4.389  19.129 -2.7158  1.0681 -1.8436
 1976TIP3    H230124   7.214   4.258  19.094 -0.5335  0.9209  2.2716
 1977TIP3   OH230125   1.673   1.500  18.591  0.4595 -0.1138 -0.0800
 1977TIP3    H130126   1.719   1.584  18.600  0.1267  0.2267 -1.4407
 1977TIP3    H230127   1.617   1.496  18.669 -2.8052  3.0419 -1.9370
 1978TIP3   OH230128   5.998   7.569  16.722  0.3827 -0.2933  0.1606
 1978TIP3    H130129   5.937   7.641  16.740  1.8721  1.0569 -0.0206
 1978TIP3    H230130   5.987   7.509  16.797  0.8443  1.3429  1.6079
 1979TIP3   OH230131   3.020   1.977  18.061 -0.2431  0.0171 -0.2846
 1979TIP3    H130132   3.009   1.918  17.987  1.3230  0.4190 -0.8904
 1979TIP3    H230133   3.115   1.980  18.075 -0.4345  0.8386  1.0091
 1980TIP3   OH230134   5.013   2.116  18.201  0.0900  0.2161 -0.2660
 1980TIP3    H130135   5.070   2.144  18.129 -1.3688  1.6054 -0.9479
 1980TIP3    H230136   4.936   2.173  18.194 -0.7037 -0.5559  1.5607
 1981TIP3   OH230137   4.444   4.241  18.360  0.2865 -0.3486  0.6532
 1981TIP3    H130138   4.530   4.255  18.321 -0.1751 -0.9438 -0.6620
 1981TIP3    H230139   4.388   4.219  18.286 -0.9986 -0.0123  1.4875
 1982TIP3   OH230140   4.228   4.080  19.379  0.2749  0.2185  0.1195
 1982TIP3    H130141   4.245   3.998  19.425  1.3250  0.3117 -0.0584
 1982TIP3    H230142   4.225   4.055  19.287 -2.5436 -0.0836  0.2120
 1983TIP3   OH230143   3.053   2.757  18.438  0.4118  0.5987  0.3932
 1983TIP3    H130144   3.095   2.816  18.501  2.2070  1.0405 -1.1460
 1983TIP3    H230145   3.053   2.805  18.356 -2.4382  0.2698  0.1076
 1984TIP3   OH230146   7.199   5.362  17.142 -0.1146  0.2268 -0.6311
 1984TIP3    H130147   7.190   5.293  17.076 -1.7288  0.2117 -0.4424
 1984TIP3    H230148   7.263   5.422  17.106  0.1058 -0.5356 -1.5432
 1985TIP3   OH230149   2.958   1.440  18.472 -0.0719 -0.0936 -0.2630
 1985TIP3    H130150   2.872   1.406  18.447 -0.6789  1.1307  0.0782
 1985TIP3    H230151   2.956   1.443  18.568  0.1761  0.3711 -0.2701
 1986TIP3   OH230152   4.146   3.130  19.308  0.2419  0.1409  0.0427
 1986TIP3    H130153   4.174   3.055  19.360  1.2593  0.2076 -0.3834
 1986TIP3    H230154   4.119   3.092  19.224  1.1657  0.2852 -0.3247
 1987TIP3   OH230155   4.647   6.413  17.514 -0.0606 -0.0574  0.0506
 1987TIP3    H130156   4.694   6.417  17.431  1.1160  2.5134  0.7473
 1987TIP3    H230157   4.715   6.420  17.581 -1.1552  0.1630  1.1817
 1988TIP3   OH230158   6.370   0.426  17.400 -0.0465 -0.3995 -0.0518
 1988TIP3    H130159   6.429   0.422  17.325  0.0889  1.0183 -0.0590
 1988TIP3    H230160   6.427   0.447  17.474 -0.3252 -0.6772  0.2410
 1989TIP3   OH230161   7.327   1.811  17.071 -0.2423  0.3422  0.2188
 1989TIP3    H130162   7.334   1.906  17.075  1.2873  0.2189  1.7526
 1989TIP3    H230163   7.332   1.791  16.977  1.1423  1.7039 -0.0509
 1990TIP3   OH230164   1.875   0.657  18.165 -0.0764  0.1489  0.4669
 1990TIP3    H130165   1.871   0.579  18.221  1.2968 -0.8696 -0.7657
 1990TIP3    H230166   1.802   0.647  18.104 -0.1452  0.0297  0.5688
 1991TIP3   OH230167   5.944   3.346  17.850 -0.3275 -0.1389  0.5501
 1991TIP3    H130168   5.963   3.333  17.943  0.2009 -2.2029  0.2133
 1991TIP3    H230169   5.945   3.441  17.838  1.3403  0.1400  2.3075
 1992TIP3   OH230170   2.596   2.380  17.805  0.9558 -0.2945  0.2751
 1992TIP3    H130171   2.662   2.382  17.736  0.7569  1.4192  0.0955
 1992TIP3    H230172   2.594   2.469  17.840 -1.1461 -0.3135  0.3521
 1993TIP3   OH230173   5.739   1.478  18.621  0.1416  0.6228  0.5135
 1993TIP3    H130174   5.699   1.491  18.707  1.3191  2.8059  0.7799
 1993TIP3    H230175   5.714   1.388  18.597 -1.8473  0.6408  2.2307
 1994TIP3   OH230176   2.167   4.428  18.117  0.1434  0.0220  0.6577
 1994TIP3    H130177   2.077   4.394  18.120  0.1402  0.0044  0.4251
 1994TIP3    H230178   2.208   4.394  18.196 -0.7114  1.9164  1.9894
 1995TIP3   OH230179   0.957   4.060  18.455  0.2763  0.3591  0.6435
 1995TIP3    H130180   1.043   4.048  18.496  0.3342  1.0323  0.7280
 1995TIP3    H230181   0.943   3.979  18.405  0.9060  0.1951  0.7228
 1996TIP3   OH230182   5.561   6.972  18.262 -0.1330 -0.0331 -0.1040
 1996TIP3    H130183   5.606   7.038  18.208 -2.1490  1.0611 -0.5480
 1996TIP3    H230184   5.485   7.018  18.296 -1.8449 -2.2398 -0.7365
 1997TIP3   OH230185   1.229   2.419  18.615 -0.3674  0.3020 -0.2081
 1997TIP3    H130186   1.165   2.487  18.595  0.2385  1.1328  0.6214
 1997TIP3    H230187   1.209   2.349  18.553 -2.4853  0.2608  0.4357
 1998TIP3   OH230188   4.355   5.921  19.681 -0.0530  0.0452  0.3177
 1998TIP3    H130189   4.261   5.922  19.664 -0.0274 -0.1990  0.1512
 1998TIP3    H230190   4.369   5.845  19.737  0.1710 -0.5120 -0.4630
 1999TIP3   OH230191   2.364   2.029  17.693  0.2028 -0.0860  0.2011
 1999TIP3    H130192   2.289   1.972  17.709  0.0192  0.2145  0.4216
 1999TIP3    H230193   2.368   2.036  17.597 -0.8526  0.9365  0.2102
 2000TIP3   OH230194   7.590   2.024  18.104 -0.4074 -0.5753  0.1021
 2000TIP3    H130195   7.597   2.094  18.169 -1.4725 -0.4495  0.1006
 2000TIP3    H230196   7.594   1.943  18.156  1.3908 -0.5425  0.0451
 2001TIP3   OH230197   0.317   0.515  18.853 -0.7263  0.4732 -0.2210
 2001TIP3    H130198   0.396   0.524  18.800  0.6605 -0.1659  1.5953
 2001TIP3    H230199   0.328   0.430  18.897 -2.7803  0.0500 -0.4328
 2002TIP3   OH230200   2.465   3.961  18.144 -0.0043 -0.0524  0.1375
 2002TIP3    H130201   2.385   3.914  18.169 -0.9250  1.1628 -0.4305
 2002TIP3    H230202   2.505   3.906  18.077 -1.6105  0.4357 -1.2695
 2003TIP3   OH230203   1.999   4.107  18.365  0.9086 -0.2824  0.2190
 2003TIP3    H130204   2.011   4.188  18.416 -1.6741 -0.1034  0.6618
 2003TIP3    H230205   2.049   4.041  18.414  1.3146  0.6054  1.0372
 2004TIP3   OH230206   5.568   2.500  17.498  0.0184  0.1863  0.1430
 2004TIP3    H130207   5.531   2.559  17.432 -0.4371  0.6552  0.8058
 2004TIP3    H230208   5.627   2.555  17.548  0.1706 -0.1075  0.2879
 2005TIP3   OH230209   6.374   6.443  18.516 -0.2554 -0.6868 -0.1238
 2005TIP3    H130210   6.354   6.463  18.608 -1.4785  1.0491 -0.7266
 2005TIP3    H230211   6.331   6.512  18.466  1.1443 -1.0721 -1.9794
 2006TIP3   OH230212   5.006   7.620  19.384  0.3818  0.1053 -0.1573
 2006TIP3    H130213   4.958   7.694  19.422  1.0604 -0.3127  1.6191
 2006TIP3    H230214   4.938   7.557  19.360 -0.0475 -0.6926  2.7760
 2007TIP3   OH230215   2.350   6.043  17.384 -0.7245 -0.5204  0.3456
 2007TIP3    H130216   2.292   6.032  17.309 -0.1760 -1.9508  0.1028
 2007TIP3    H230217   2.409   6.115  17.359 -0.1742 -1.3559 -0.8516
 2008TIP3   OH230218   1.945   7.482  18.382 -0.2736 -0.5607 -0.1045
 2008TIP3    H130219   1.980   7.393  18.391 -0.6029 -0.7990 -1.0701
 2008TIP3    H230220   1.950   7.518  18.471 -0.0184 -1.4988  0.2828
 2009TIP3   OH230221   3.793   1.582  17.520  0.4930  0.4123 -0.3159
 2009TIP3    H130222   3.773   1.621  17.605 -1.3785  0.0686 -0.5647
 2009TIP3    H230223   3.872   1.530  17.536  0.2767  0.4856  1.1777
 2010TIP3   OH230224   4.916   6.647  17.042  0.1433  0.4363  0.3549
 2010TIP3    H130225   4.954   6.726  17.004  2.8269 -1.0048 -0.1877
 2010TIP3    H230226   4.828   6.643  17.004 -0.5740  3.6922  1.2909
 2011TIP3   OH230227   4.434   6.309  17.361  0.1520  0.5375 -0.3212
 2011TIP3    H130228   4.455   6.344  17.275  1.7264  0.5840  0.0419
 2011TIP3    H230229   4.509   6.334  17.416  0.2741 -1.4172  0.4954
 2012TIP3   OH230230   3.868   1.488  17.245  0.2084 -0.1132  0.7447
 2012TIP3    H130231   3.830   1.561  17.295 -0.5719  0.0063 -0.0020
 2012TIP3    H230232   3.865   1.517  17.154 -0.1351 -1.0848  0.4341
 2013TIP3   OH230233   7.050   7.058  17.687 -0.1355  0.7849 -0.3301
 2013TIP3    H130234   7.049   6.975  17.733 -0.1772  0.5292 -0.7896
 2013TIP3    H230235   7.142   7.075  17.667 -0.2601  0.0154 -1.7112
 2014TIP3   OH230236   5.722   4.371  17.747 -0.3691  0.0277 -0.7400
 2014TIP3    H130237   5.785   4.440  17.727 -0.3019 -0.3079 -1.7447
 2014TIP3    H230238   5.753   4.296  17.697 -1.0922 -0.3888 -0.5712
 2015TIP3   OH230239   1.267   2.752  18.372 -0.1537 -0.0542  0.4287
 2015TIP3    H130240   1.310   2.670  18.349 -0.7595 -0.0208 -0.9830
 2015TIP3    H230241   1.306   2.817  18.313 -0.3654  0.4812  0.8635
 2016TIP3   OH230242   2.638   5.960  17.733 -0.0294  0.4370 -0.3557
 2016TIP3    H130243   2.545   5.948  17.754 -0.5211 -1.5316 -3.1075
 2016TIP3    H230244   2.651   6.055  17.737 -1.1044  0.6077  3.6241
 2017TIP3   OH230245   0.184   2.729  18.763 -0.5146  0.3403  0.3404
 2017TIP3    H130246   0.103   2.767  18.729  0.4060  0.9357 -1.3178
 2017TIP3    H230247   0.182   2.638  18.732  0.5733  1.0232 -1.9367
 2018TIP3   OH230248   1.922   1.646  17.204  0.4025  0.3221  0.1598
 2018TIP3    H130249   1.984   1.583  17.168  2.2065  0.1760  3.1492
 2018TIP3    H230250   1.906   1.615  17.293 -5.5295 -0.6486 -0.8723
 2019TIP3   OH230251   6.223   7.233  18.199  0.1894 -0.0777  0.5907
 2019TIP3    H130252   6.274   7.299  18.246 -1.0448  0.7410  0.8442
 2019TIP3    H230253   6.268   7.151  18.217  1.3341  0.5899  0.8930
 2020TIP3   OH230254   3.927   4.775  17.377 -0.2767  0.0842 -0.0661
 2020TIP3    H130255   3.969   4.855  17.409 -2.8272  1.7425 -0.5917
 2020TIP3    H230256   3.930   4.782  17.282 -0.1919 -0.6424 -0.1226
 2021TIP3   OH230257   6.106   6.035  18.336  0.0173 -0.4029  0.1076
 2021TIP3    H130258   6.047   6.004  18.267  1.9585  1.0436 -2.3237
 2021TIP3    H230259   6.097   6.130  18.335  0.7638 -0.2965  1.2803
 2022TIP3   OH230260   4.518   3.982  18.100  0.7369  0.0099 -0.0861
 2022TIP3    H130261   4.531   3.962  18.007  0.4153  2.3321 -0.6891
 2022TIP3    H230262   4.595   4.033  18.125  0.1416  0.6455  0.5063
 2023TIP3   OH230263   4.291   1.579  18.767 -0.5593 -0.0242 -0.0953
 2023TIP3    H130264   4.287   1.595  18.673  2.0400 -1.7429 -0.6241
 2023TIP3    H230265   4.202   1.555  18.792 -1.1668 -0.2204 -2.2651
 2024TIP3   OH230266   0.313   6.251  17.225  0.0558  0.2638 -0.4913
 2024TIP3    H130267   0.268   6.334  17.243  0.7742  0.5973 -0.1850
 2024TIP3    H230268   0.243   6.190  17.205 -0.6560  0.3864  1.4248
 2025TIP3   OH230269   5.116   2.832  18.351 -0.4437  0.8459  0.1182
 2025TIP3    H130270   5.111   2.874  18.265 -1.1422  0.3611 -0.0956
 2025TIP3    H230271   5.103   2.903  18.414  0.5517  1.2823 -0.1546
 2026TIP3   OH230272   6.862   5.838  17.248  0.1789  0.1461  0.0950
 2026TIP3    H130273   6.792   5.888  17.207  0.6123  2.4169  1.8815
 2026TIP3    H230274   6.868   5.874  17.336  2.9581 -0.5819  0.3012
 2027TIP3   OH230275   5.133   0.458  18.863 -0.3669 -0.7424 -0.2816
 2027TIP3    H130276   5.201   0.418  18.916  0.2446 -0.6211 -0.9547
 2027TIP3    H230277   5.054   0.453  18.917  0.4744  0.4407  1.1391
 2028TIP3   OH230278   2.235   3.728  17.727 -0.1914 -0.4049  0.6318
 2028TIP3    H130279   2.187   3.780  17.663 -1.8239 -0.2183  1.9440
 2028TIP3    H230280   2.255   3.789  17.798 -0.9321 -1.2199  1.5688
 2029TIP3   OH230281   6.381   7.346  19.141  0.5028  0.5139  0.2743
 2029TIP3    H130282   6.287   7.337  19.160  0.3351 -0.3036 -0.7964
 2029TIP3    H230283   6.385   7.413  19.072  0.2914 -1.9092 -2.2691
 2030TIP3   OH230284   4.335   5.280  18.856  0.2301  0.5650  0.3127
 2030TIP3    H130285   4.394   5.302  18.783  1.0324  0.1001  0.8068
 2030TIP3    H230286   4.394   5.263  18.930 -0.4132 -1.3125  0.4572
 2031TIP3   OH230287   4.913   1.702  17.722 -0.0288 -0.1853 -0.1363
 2031TIP3    H130288   4.913   1.636  17.792 -1.7034 -1.0729 -0.8976
 2031TIP3    H230289   4.841   1.675  17.664 -1.3571  2.7652 -0.0485
 2032TIP3   OH230290   7.661   7.527  16.821  0.4010 -0.0475 -0.1887
 2032TIP3    H130291   7.746   7.483  16.831 -0.6328 -1.5428  4.4424
 2032TIP3    H230292   7.615   7.474  16.756  1.1872 -2.6680  1.2059
 2033TIP3   OH230293   4.017   6.098  18.824  0.0012 -0.0615 -0.2066
 2033TIP3    H130294   3.948   6.043  18.862 -0.4768  0.5068 -0.2264
 2033TIP3    H230295   4.014   6.179  18.874 -0.2732  0.4894 -1.0790
 2034TIP3   OH230296   5.818   4.029  17.090  0.4466  0.1200 -0.2097
 2034TIP3    H130297   5.782   3.956  17.039  0.9235  0.3653 -0.9116
 2034TIP3    H230298   5.740   4.073  17.126 -0.0286  0.8337 -1.9730
 2035TIP3   OH230299   7.053   6.302  17.468 -0.1262 -0.5669 -0.0893
 2035TIP3    H130300   7.038   6.299  17.374 -0.3384 -1.0317 -0.0465
 2035TIP3    H230301   6.993   6.369  17.500 -0.3684 -0.7114 -0.2352
 2036TIP3   OH230302   1.773   5.164  17.873 -0.1506 -0.6316  0.3063
 2036TIP3    H130303   1.848   5.124  17.918  0.0259 -1.1129 -0.3972
 2036TIP3    H230304   1.704   5.168  17.939 -0.3275 -2.5620  0.2850
 2037TIP3   OH230305   6.093   3.418  17.292  0.4724 -0.3524 -0.2162
 2037TIP3    H130306   6.115   3.413  17.199 -1.5304 -0.8876 -0.7202
 2037TIP3    H230307   6.035   3.494  17.299 -0.3271 -0.9943  0.3463
 2038TIP3   OH230308   3.132   1.877  18.386 -0.2644 -0.3695  0.2349
 2038TIP3    H130309   3.085   1.952  18.422  1.1501  0.8406 -0.3072
 2038TIP3    H230310   3.130   1.812  18.455 -1.5103  0.1669  0.7320
 2039TIP3   OH230311   1.104   2.400  17.808 -0.3825  0.0839  0.1907
 2039TIP3    H130312   1.089   2.421  17.716 -0.5321  3.0600  0.7909
 2039TIP3    H230313   1.199   2.402  17.819 -0.3975  1.2208  0.3271
 2040TIP3   OH230314   6.928   0.032  18.935 -0.3894 -0.3452 -0.3408
 2040TIP3    H130315   6.915   0.118  18.893 -2.3867 -0.1882  0.4864
 2040TIP3    H230316   6.892   0.043  19.023 -2.3208 -2.5074 -0.7813
 2041TIP3   OH230317   4.011   4.444  18.346 -0.2171  0.0513 -0.4554
 2041TIP3    H130318   3.950   4.384  18.303  0.7080 -0.0913 -1.6403
 2041TIP3    H230319   4.067   4.475  18.274 -0.3296  1.9145  0.2192
 2042TIP3   OH230320   3.237   3.261  19.172 -0.5089  0.1393  0.0075
 2042TIP3    H130321   3.234   3.355  19.191  1.2600  0.1442  0.5091
 2042TIP3    H230322   3.296   3.255  19.096 -0.0061 -0.5978  0.4400
 2043TIP3   OH230323   5.004   2.823  17.794  0.2111  0.1955  0.0571
 2043TIP3    H130324   5.099   2.813  17.798  0.5649  2.2861 -1.4440
 2043TIP3    H230325   4.975   2.750  17.739  1.4599  1.6194 -2.6612
 2044TIP3   OH230326   3.257   4.639  17.923  0.1967  0.0088  0.7341
 2044TIP3    H130327   3.299   4.667  17.841 -0.0462 -1.6377 -0.0055
 2044TIP3    H230328   3.288   4.702  17.988  0.5447  1.2618 -0.5759
 2045TIP3   OH230329   5.085   6.267  18.645  0.0904 -0.1530 -0.3345
 2045TIP3    H130330   5.121   6.229  18.725  0.5520 -0.1573 -0.5436
 2045TIP3    H230331   5.042   6.348  18.674 -0.5370 -0.6156  0.0493
 2046TIP3   OH230332   6.869   3.846  18.459  0.7798  0.0982  1.2710
 2046TIP3    H130333   6.925   3.846  18.381 -1.5228  1.6457 -0.5374
 2046TIP3    H230334   6.842   3.937  18.469 -3.1965 -0.8143  0.5619
 2047TIP3   OH230335   1.820   2.962  17.279  1.1660 -0.5091 -0.0072
 2047TIP3    H130336   1.898   2.914  17.308  0.2181 -0.8303  2.2458
 2047TIP3    H230337   1.762   2.960  17.355 -1.1149 -0.3776 -1.6579
 2048TIP3   OH230338   6.721   3.330  17.347  0.0333 -0.6832 -0.6728
 2048TIP3    H130339   6.779   3.304  17.275  1.3320  0.8110 -0.2369
 2048TIP3    H230340   6.737   3.424  17.357 -1.2702 -0.5620  0.5601
 2049TIP3   OH230341   1.788   6.816  17.813 -0.4664  0.1804 -0.6828
 2049TIP3    H130342   1.722   6.885  17.822  0.3470  1.0966 -1.4474
 2049TIP3    H230343   1.751   6.741  17.858 -1.8815  0.7711 -0.8147
 2050TIP3   OH230344   6.994   5.049  18.683 -0.1451 -0.1408  0.3779
 2050TIP3    H130345   6.900   5.033  18.687 -0.1099 -0.5167 -0.0922
 2050TIP3    H230346   7.003   5.120  18.619 -0.0617 -0.5898 -0.1118
 2051TIP3   OH230347   4.970   7.269  16.904 -0.7223 -0.6868  0.2042
 2051TIP3    H130348   5.047   7.231  16.946 -0.9943  0.0317  1.4303
 2051TIP3    H230349   4.979   7.247  16.812  2.2347  1.3699 -0.1680
 2052TIP3   OH230350   3.262   6.724  16.906 -0.0454 -0.3424 -0.5179
 2052TIP3    H130351   3.315   6.660  16.859  1.3338  0.5735 -0.2655
 2052TIP3    H230352   3.242   6.792  16.841  0.7601  0.2742 -0.1454
 2053TIP3   OH230353   0.331   0.276  18.998  0.6904  0.8725  0.6681
 2053TIP3    H130354   0.240   0.247  19.003  1.0857 -1.2291 -1.6514
 2053TIP3    H230355   0.368   0.253  19.083 -0.1301 -1.7488  0.4303
 2054TIP3   OH230356   7.522   4.267  16.874 -0.0101  1.0691  0.0714
 2054TIP3    H130357   7.479   4.340  16.829 -0.7965  1.5651  1.5627
 2054TIP3    H230358   7.453   4.227  16.926  0.5377 -0.4458 -0.3206
 2055TIP3   OH230359   1.690   7.218  18.086 -0.0012 -0.5051 -0.1373
 2055TIP3    H130360   1.657   7.138  18.045 -1.0755  0.6804 -1.7009
 2055TIP3    H230361   1.619   7.281  18.077  1.0919  0.8553  0.3776
 2056TIP3   OH230362   7.058   0.627  19.321  0.0085 -0.3605 -0.1613
 2056TIP3    H130363   7.015   0.700  19.365 -0.5359 -1.6703  1.5963
 2056TIP3    H230364   7.148   0.657  19.308 -0.5728  1.1795 -0.9143
 2057TIP3   OH230365   1.884   3.302  17.196 -0.0692 -0.0742  0.4796
 2057TIP3    H130366   1.861   3.368  17.130 -3.1600 -1.3498  0.1166
 2057TIP3    H230367   1.919   3.229  17.146  1.6704  0.5465  0.7250
 2058TIP3   OH230368   4.393   6.823  19.577 -0.6252 -0.6105  0.2485
 2058TIP3    H130369   4.340   6.846  19.652  0.9049 -0.8745  1.4673
 2058TIP3    H230370   4.437   6.905  19.553  1.4795 -1.1867  1.8404
 2059TIP3   OH230371   3.557   0.565  18.104  0.7752  0.8151 -0.0631
 2059TIP3    H130372   3.619   0.634  18.129  0.2872  0.8579  1.0995
 2059TIP3    H230373   3.598   0.484  18.135  1.0295  0.6548 -0.8137
 2060TIP3   OH230374   3.392   3.272  18.907  0.6193 -0.2418 -0.0830
 2060TIP3    H130375   3.487   3.269  18.893  0.7789  2.4817 -0.0569
 2060TIP3    H230376   3.374   3.363  18.931 -1.8834 -0.9285  0.9558
 2061TIP3   OH230377   2.351   6.991  18.372  0.1607  0.1528  0.0274
 2061TIP3    H130378   2.366   6.896  18.369  1.9304  0.4096 -0.2680
 2061TIP3    H230379   2.331   7.015  18.282  0.6343  0.1701 -0.0797
 2062TIP3   OH230380   5.652   5.628  18.408  0.7061  0.2661  0.4401
 2062TIP3    H130381   5.576   5.630  18.466 -0.5894 -1.3424 -1.1219
 2062TIP3    H230382   5.678   5.720  18.401 -0.0973  0.6724  2.2512
 2063TIP3   OH230383   5.548   0.084  18.589  0.5315 -0.2189  0.2448
 2063TIP3    H130384   5.568   0.015  18.653 -2.0917 -0.6553  0.7253
 2063TIP3    H230385   5.543   0.039  18.505 -0.0304 -0.4146  0.3798
 2064TIP3   OH230386   4.133   3.333  17.491  0.3444  0.2010 -0.3407
 2064TIP3    H130387   4.105   3.423  17.472  2.2542  0.4744 -2.2271
 2064TIP3    H230388   4.140   3.330  17.586 -1.1823  1.5652 -0.1280
 2065TIP3   OH230389   1.474   3.601  19.027 -0.4403  0.1483  0.6110
 2065TIP3    H130390   1.484   3.618  18.933  2.6852 -1.8539  0.3944
 2065TIP3    H230391   1.447   3.684  19.065 -1.1921  1.1662 -1.9666
 2066TIP3   OH230392   5.528   5.096  18.265 -0.0464 -0.0316  0.0658
 2066TIP3    H130393   5.617   5.088  18.232  0.1607  0.2474  0.5424
 2066TIP3    H230394   5.485   5.014  18.238  0.1165  0.1735 -0.8478
 2067TIP3   OH230395   2.184   6.714  17.331 -0.3951  0.2454  0.5352
 2067TIP3    H130396   2.207   6.756  17.414  0.7164  0.1710  0.2810
 2067TIP3    H230397   2.255   6.651  17.316  0.5453  1.6856 -1.4604
 2068TIP3   OH230398   4.732   6.474  18.720 -0.5469 -0.4153 -0.2071
 2068TIP3    H130399   4.651   6.445  18.679  0.0391 -1.6751 -0.5384
 2068TIP3    H230400   4.733   6.429  18.805 -0.1739 -0.4592 -0.2320
 2069TIP3   OH230401   6.103   5.513  18.413  0.0728 -0.1052 -0.0102
 2069TIP3    H130402   6.073   5.428  18.381 -0.9667 -0.2045  1.1156
 2069TIP3    H230403   6.124   5.498  18.506 -2.3173  1.2875  0.8574
 2070TIP3   OH230404   6.980   3.979  18.676 -0.1184  0.1216  0.3148
 2070TIP3    H130405   6.936   4.031  18.608 -0.1337 -0.5353 -0.1794
 2070TIP3    H230406   7.024   3.909  18.628  0.2437 -0.0883  0.9465
 2071TIP3   OH230407   6.881   5.074  17.576 -0.1902  0.1584 -0.1987
 2071TIP3    H130408   6.899   5.046  17.666  1.3679 -0.5652 -0.7075
 2071TIP3    H230409   6.910   5.000  17.522  0.2148  1.1528 -1.3708
 2072TIP3   OH230410   2.376   4.045  17.660  0.5783  0.3514  0.0857
 2072TIP3    H130411   2.415   4.119  17.612 -1.9630  1.1261 -0.9708
 2072TIP3    H230412   2.341   4.084  17.740 -0.9580  0.3980 -0.5721
 2073TIP3   OH230413   1.988   6.152  17.624 -0.0660  0.0099  0.3227
 2073TIP3    H130414   1.993   6.066  17.665  0.2484 -0.2684 -0.2741
 2073TIP3    H230415   1.949   6.135  17.538  1.6036  0.1843 -0.5147
 2074TIP3   OH230416   2.239   4.875  19.695  0.1894 -0.1142 -0.2126
 2074TIP3    H130417   2.184   4.856  19.619  1.2164  1.6029 -1.4621
 2074TIP3    H230418   2.310   4.810  19.691 -0.2096 -0.5523 -0.2269
 2075TIP3   OH230419   2.602   3.068  19.011  0.5862  0.1615 -0.1796
 2075TIP3    H130420   2.518   3.112  19.007 -0.1363 -0.7523  2.6095
 2075TIP3    H230421   2.646   3.091  18.929 -1.6306  2.1072 -0.9100
 2076TIP3   OH230422   3.274   6.590  17.400  0.0341 -0.4385 -0.2796
 2076TIP3    H130423   3.275   6.503  17.360 -0.0712  0.1093 -1.5147
 2076TIP3    H230424   3.292   6.650  17.328  0.0205  0.5803  0.5379
 2077TIP3   OH230425   3.089   2.735  17.143 -0.0581 -0.2677  0.3239
 2077TIP3    H130426   3.038   2.781  17.210 -1.6796 -2.1750  0.4689
 2077TIP3    H230427   3.024   2.693  17.087  1.3252 -1.5141 -0.4206
 2078TIP3   OH230428   7.636   2.443  18.902  0.1402 -0.4487 -0.0661
 2078TIP3    H130429   7.663   2.524  18.945  1.0711 -0.3657 -0.7977
 2078TIP3    H230430   7.660   2.374  18.964  0.4418 -0.2502  0.0399
 2079TIP3   OH230431   2.296   0.415  19.095 -0.3702 -0.4211 -0.1983
 2079TIP3    H130432   2.353   0.369  19.034  1.4224  0.1997  0.9151
 2079TIP3    H230433   2.339   0.406  19.180 -2.0344 -0.0429  0.7391
 2080TIP3   OH230434   4.050   7.266  17.428 -0.8354 -0.0505 -0.3008
 2080TIP3    H130435   3.988   7.265  17.500 -0.4582  0.5813  0.0396
 2080TIP3    H230436   4.112   7.195  17.448 -0.5343  0.3456  0.1733
 2081TIP3   OH230437   4.481   5.345  19.120 -0.1442 -0.1491 -0.2662
 2081TIP3    H130438   4.450   5.342  19.210 -2.4769  1.4556 -0.9253
 2081TIP3    H230439   4.522   5.431  19.112  0.4359 -0.4535 -0.6438
 2082TIP3   OH230440   7.338   1.842  19.456 -0.0180  0.8609 -0.4897
 2082TIP3    H130441   7.412   1.797  19.414 -0.0264 -1.1411  1.4405
 2082TIP3    H230442   7.288   1.771  19.497 -1.1642  2.4949  1.0439
 2083TIP3   OH230443   0.765   0.635  17.711  0.5537  0.4163  0.1447
 2083TIP3    H130444   0.796   0.722  17.687 -1.0556  1.5012  1.7079
 2083TIP3    H230445   0.695   0.617  17.648 -0.7918  1.4035  1.2820
 2084TIP3   OH230446   1.311   3.669  17.139  0.4642  0.9260  0.3186
 2084TIP3    H130447   1.314   3.573  17.136  1.7733  0.8918  1.6124
 2084TIP3    H230448   1.218   3.690  17.127  0.0323 -0.5465  0.8028
 2085TIP3   OH230449   5.944   3.758  18.019  0.1499  0.0725 -0.6165
 2085TIP3    H130450   5.980   3.837  17.979 -0.2639  1.2286  1.1637
 2085TIP3    H230451   5.863   3.788  18.060 -0.4777 -1.4951 -0.6615
 2086TIP3   OH230452   6.642   0.242  18.059  0.1040 -0.2248  0.2230
 2086TIP3    H130453   6.565   0.227  18.114 -0.7083 -1.7726 -1.2507
 2086TIP3    H230454   6.713   0.198  18.106 -0.5944 -1.6049  0.0316
 2087TIP3   OH230455   6.476   1.102  17.905  0.0953 -0.8041 -0.1308
 2087TIP3    H130456   6.404   1.097  17.842  0.8636  1.6114 -1.3109
 2087TIP3    H230457   6.530   1.025  17.886 -0.5687 -1.0109 -1.2893
 2088TIP3   OH230458   7.679   6.288  19.116 -0.2649  0.1540 -0.3662
 2088TIP3    H130459   7.688   6.318  19.207 -2.0172 -0.4422  0.0521
 2088TIP3    H230460   7.611   6.220  19.120 -1.6697  1.3456 -2.3683
 2089TIP3   OH230461   7.163   3.494  19.237 -0.4348 -0.2776 -0.4134
 2089TIP3    H130462   7.105   3.569  19.223 -0.9579 -0.7438 -0.7462
 2089TIP3    H230463   7.105   3.419  19.245  0.1843 -1.0823 -2.7918
 2090TIP3   OH230464   6.602   4.568  19.667  0.7234 -0.2269 -0.1462
 2090TIP3    H130465   6.561   4.538  19.748  0.5288  2.3873  0.8103
 2090TIP3    H230466   6.544   4.535  19.598  0.9032 -2.5241  0.6879
 2091TIP3   OH230467   5.489   6.166  19.214 -0.0927  0.4333 -0.0779
 2091TIP3    H130468   5.551   6.098  19.186 -0.9257  0.0119 -0.9902
 2091TIP3    H230469   5.469   6.144  19.305  1.5783  0.9675  0.4466
 2092TIP3   OH230470   0.568   3.274  17.840 -0.7210 -0.1443  0.4736
 2092TIP3    H130471   0.489   3.275  17.787  0.6873  0.4543 -1.7314
 2092TIP3    H230472   0.603   3.185  17.831 -0.4733 -0.0395  0.3791
 2093TIP3   OH230473   5.353   2.335  19.161 -0.2614 -0.4663  0.2858
 2093TIP3    H130474   5.431   2.360  19.111  0.2489 -1.1821  0.7108
 2093TIP3    H230475   5.367   2.243  19.184 -0.3659 -0.1061  1.9461
 2094TIP3   OH230476   6.786   0.346  18.574  0.2470 -0.2787  0.4067
 2094TIP3    H130477   6.839   0.275  18.540 -0.2828 -0.5464  0.1353
 2094TIP3    H230478   6.715   0.357  18.510  0.9645  1.2788 -0.1950
 2095TIP3   OH230479   3.418   3.310  18.115 -0.1373 -0.2334 -0.4688
 2095TIP3    H130480   3.338   3.321  18.167 -0.2135 -2.3855 -0.0016
 2095TIP3    H230481   3.390   3.259  18.039  0.6520 -0.3441 -0.6918
 2096TIP3   OH230482   3.285   6.350  17.281  0.5276  0.1100 -0.5324
 2096TIP3    H130483   3.221   6.280  17.295  1.4888 -1.0990 -1.9327
 2096TIP3    H230484   3.365   6.318  17.322  0.6998  0.8660 -0.2630
 2097TIP3   OH230485   7.424   0.379  19.253  0.1615 -0.0173  0.1705
 2097TIP3    H130486   7.391   0.448  19.310 -0.9111  0.9736 -1.5914
 2097TIP3    H230487   7.499   0.418  19.208  0.0089 -0.2542 -0.2924
 2098TIP3   OH230488   7.551   5.262  18.260 -0.4201 -0.1755 -0.8707
 2098TIP3    H130489   7.625   5.264  18.321 -0.6007 -1.9934 -0.5407
 2098TIP3    H230490   7.544   5.352  18.228  0.4403  0.5648  0.8747
 2099TIP3   OH230491   2.100   5.276  18.397  0.3985  0.5509 -0.6407
 2099TIP3    H130492   2.130   5.365  18.379 -0.0344  0.6432 -0.9202
 2099TIP3    H230493   2.023   5.288  18.453  1.3180  0.2940  0.7456
 2100TIP3   OH230494   5.874   1.132  18.838 -0.0278 -0.0607 -0.2868
 2100TIP3    H130495   5.789   1.103  18.805  0.3021 -2.0668  0.5231
 2100TIP3    H230496   5.854   1.204  18.898 -1.2916 -1.3031  0.8367
 2101TIP3   OH230497   2.983   3.791  19.265 -0.0394  0.1345  0.1397
 2101TIP3    H130498   2.988   3.784  19.361 -3.0219  0.6365  0.4000
 2101TIP3    H230499   2.909   3.736  19.241 -0.1745  1.0955 -1.7546
 2102TIP3   OH230500   7.473   5.775  19.377  0.4440 -0.1318 -0.1522
 2102TIP3    H130501   7.417   5.698  19.377  0.1080  0.0912  0.8480
 2102TIP3    H230502   7.526   5.766  19.298 -2.0251  0.4189 -2.0065
 2103TIP3   OH230503   7.165   1.978  19.255 -0.5383 -0.1670 -0.4806
 2103TIP3    H130504   7.099   1.938  19.198 -1.1183  0.4671 -0.2611
 2103TIP3    H230505   7.180   1.912  19.323 -2.4833  0.4709  0.6510
 2104TIP3   OH230506   6.997   2.568  18.227  0.0758 -0.2068  0.0455
 2104TIP3    H130507   7.018   2.581  18.320 -1.6523 -0.5223  0.5299
 2104TIP3    H230508   7.010   2.653  18.187  0.3338  0.0613  0.6884
 2105TIP3   OH230509   3.865   4.394  17.924  0.0768 -0.3796 -0.2479
 2105TIP3    H130510   3.906   4.480  17.927 -1.3479  0.3611 -0.9106
 2105TIP3    H230511   3.938   4.332  17.918  1.1111  0.7816 -0.0204
 2106TIP3   OH230512   7.050   4.964  18.209  0.3943  0.3326 -0.7107
 2106TIP3    H130513   7.045   4.883  18.158  2.1454  0.5521 -1.2898
 2106TIP3    H230514   7.143   4.976  18.227 -0.0709  0.7462  1.8171
 2107TIP3   OH230515   6.374   3.201  18.368  0.1778 -0.4325  0.6474
 2107TIP3    H130516   6.342   3.285  18.400  1.1609  0.7174 -1.1979
 2107TIP3    H230517   6.440   3.175  18.432 -0.5122 -0.0833  1.5158
 2108TIP3   OH230518   5.559   7.097  19.248  0.1704  0.4027 -0.6678
 2108TIP3    H130519   5.550   7.117  19.341 -0.6022 -1.4547 -0.2882
 2108TIP3    H230520   5.572   7.182  19.206 -0.4587  1.3833  1.0182
 2109TIP3   OH230521   6.037   2.742  18.118  0.5248  0.6810  0.2793
 2109TIP3    H130522   6.037   2.683  18.194 -0.2355  0.7616  0.3439
 2109TIP3    H230523   5.945   2.748  18.092  0.5073  2.2895  0.6088
 2110TIP3   OH230524   3.871   2.252  17.922  0.7288  0.1371 -0.1441
 2110TIP3    H130525   3.777   2.262  17.933  0.8780  2.2243 -0.4484
 2110TIP3    H230526   3.882   2.163  17.889 -1.3098  0.4670 -1.8687
 2111TIP3   OH230527   6.222   4.055  17.206  0.0355  1.2622  0.0734
 2111TIP3    H130528   6.180   4.080  17.124 -0.8787  0.5556  0.3074
 2111TIP3    H230529   6.223   4.135  17.258 -2.0470  1.0685  0.4797
 2112TIP3   OH230530   1.042   3.656  18.972 -0.4841 -0.7346 -0.1858
 2112TIP3    H130531   1.050   3.661  19.068  0.1101 -1.3843 -0.2014
 2112TIP3    H230532   1.114   3.601  18.944  1.4916  2.1891 -1.3580
 2113TIP3   OH230533   5.481   4.025  19.254  0.7976 -0.1216 -0.5128
 2113TIP3    H130534   5.565   3.984  19.272  0.8480  0.6590  1.2183
 2113TIP3    H230535   5.421   3.951  19.240  0.3213 -1.2150  4.9777
 2114TIP3   OH230536   2.701   4.245  18.369  0.6310 -0.2699 -0.9313
 2114TIP3    H130537   2.666   4.278  18.452  1.3118  0.7399 -1.0258
 2114TIP3    H230538   2.762   4.176  18.394  1.4480  0.5781 -0.5206
 2115TIP3   OH230539   6.155   4.481  18.584 -0.1094 -0.4038  0.0478
 2115TIP3    H130540   6.140   4.398  18.631 -0.2285 -0.1406  0.4777
 2115TIP3    H230541   6.197   4.538  18.648  0.1721 -0.2026 -0.3151
 2116TIP3   OH230542   2.224   5.267  18.781 -0.8973 -0.4656  0.6139
 2116TIP3    H130543   2.250   5.336  18.842 -0.3202  0.2134 -0.3814
 2116TIP3    H230544   2.306   5.222  18.760 -0.6572  0.8187 -1.4852
 2117TIP3   OH230545   6.950   0.803  17.578 -0.4728  0.1775  0.7879
 2117TIP3    H130546   6.909   0.869  17.635  1.6971  1.3860  1.0690
 2117TIP3    H230547   6.940   0.721  17.626 -2.2974  0.4263  0.9322
 2118TIP3   OH230548   6.807   1.432  19.412 -0.1148  0.0864  0.2111
 2118TIP3    H130549   6.807   1.337  19.398 -1.4651  0.2873 -1.4397
 2118TIP3    H230550   6.716   1.458  19.401  0.4508  1.7565 -0.8818
 2119TIP3   OH230551   7.633   1.522  16.918 -0.4483 -0.5973 -0.4443
 2119TIP3    H130552   7.669   1.533  17.006  0.3445 -0.3617 -0.7858
 2119TIP3    H230553   7.543   1.494  16.932 -0.3965 -0.3450  0.4443
 2120TIP3   OH230554   0.242   0.638  17.130  0.1763  0.5841 -0.5336
 2120TIP3    H130555   0.229   0.547  17.102  0.8505 -0.0653  1.1379
 2120TIP3    H230556   0.332   0.658  17.105  0.5334  0.2578  0.4732
 2121TIP3   OH230557   1.548   5.645  17.374  0.0965 -0.1049  0.0051
 2121TIP3    H130558   1.601   5.716  17.338 -2.2978  3.2760  2.4762
 2121TIP3    H230559   1.466   5.649  17.323 -0.6350 -0.0383  1.1579
 2122TIP3   OH230560   1.976   5.259  16.585 -0.3037  0.1710  0.0494
 2122TIP3    H130561   2.005   5.293  16.500  1.3102  0.5389  0.7017
 2122TIP3    H230562   2.034   5.301  16.648 -1.1345 -0.4973  1.2982
 2123TIP3   OH230563   6.569   0.595  18.470  0.7058 -0.4423  0.1427
 2123TIP3    H130564   6.616   0.544  18.404 -0.2109 -0.9999 -0.1096
 2123TIP3    H230565   6.477   0.584  18.446  0.4868  2.4568 -0.7726
 2124TIP3   OH230566   1.983   3.213  18.582  0.1007  0.5681  0.2683
 2124TIP3    H130567   1.891   3.196  18.560  0.1953  0.0388  0.2786
 2124TIP3    H230568   2.009   3.283  18.522 -0.5344  1.2867  0.8004
 2125TIP3   OH230569   5.892   3.577  19.519 -0.0134  0.2949 -0.9411
 2125TIP3    H130570   5.811   3.528  19.533  0.6940 -1.1958 -1.7558
 2125TIP3    H230571   5.949   3.551  19.591 -0.1371  1.0741 -0.5577
 2126TIP3   OH230572   2.829   2.986  17.666 -0.3407  0.0258 -0.9363
 2126TIP3    H130573   2.747   3.007  17.622 -0.1070  0.4938 -1.1528
 2126TIP3    H230574   2.804   2.968  17.757 -0.5985  0.8174 -0.8494
 2127TIP3   OH230575   2.650   0.391  19.498  0.1130  0.0921 -0.3651
 2127TIP3    H130576   2.727   0.394  19.555  0.0463  0.7866 -0.2998
 2127TIP3    H230577   2.683   0.359  19.414  0.3924 -0.0139 -0.2153
 2128TIP3   OH230578   4.024   0.785  18.723 -0.1028 -0.3609  0.2150
 2128TIP3    H130579   4.021   0.880  18.708 -0.7829 -0.4537 -0.3258
 2128TIP3    H230580   4.116   0.761  18.711  0.0206  0.1856  0.0364
 2129TIP3   OH230581   7.679   5.086  19.117 -0.7517 -0.0676 -0.7449
 2129TIP3    H130582   7.760   5.136  19.124 -0.4032 -0.6792 -0.2851
 2129TIP3    H230583   7.618   5.130  19.176 -0.0118 -0.9942  0.7626
 2130TIP3   OH230584   4.425   7.584  18.266 -0.8670 -0.3625 -0.3051
 2130TIP3    H130585   4.409   7.517  18.332  0.9222 -0.0413  0.5315
 2130TIP3    H230586   4.370   7.560  18.192 -0.8171 -2.3253  0.2536
 2131TIP3   OH230587   0.041   2.933  18.387 -0.2859 -0.4699 -0.2014
 2131TIP3    H130588   0.136   2.925  18.385 -0.1872  0.6170 -0.4694
 2131TIP3    H230589   0.014   2.922  18.295 -0.2806  0.5514 -0.3399
 2132TIP3   OH230590   1.244   1.156  17.097 -0.1088 -0.1465 -0.6115
 2132TIP3    H130591   1.176   1.093  17.075 -2.1982  1.7517  0.0257
 2132TIP3    H230592   1.276   1.188  17.012 -0.2413 -0.8040 -0.9156
 2133TIP3   OH230593   2.526   6.001  19.164  0.4289  0.0389 -0.2916
 2133TIP3    H130594   2.453   6.002  19.102  0.1049 -0.5596  0.0740
 2133TIP3    H230595   2.530   6.091  19.197  0.8792  0.4762 -1.4925
 2134TIP3   OH230596   3.381   1.889  19.103 -0.0034 -0.6095  0.4480
 2134TIP3    H130597   3.417   1.820  19.159  1.4224  0.1698  0.5281
 2134TIP3    H230598   3.369   1.847  19.018  0.3895 -1.0870  0.6234
 2135TIP3   OH230599   2.581   2.097  17.407 -0.8562  0.4058 -0.0665
 2135TIP3    H130600   2.647   2.127  17.344 -2.4071  2.5961 -0.7761
 2135TIP3    H230601   2.504   2.078  17.354 -0.6908 -2.8720  0.6537
 2136TIP3   OH230602   0.370   3.238  17.659  0.6456 -0.4464 -0.2101
 2136TIP3    H130603   0.438   3.262  17.596  1.6718 -0.4884  0.8589
 2136TIP3    H230604   0.361   3.143  17.651  0.7761 -0.4511 -0.2944
 2137TIP3   OH230605   2.617   4.915  17.316  0.1412 -0.0617  0.5337
 2137TIP3    H130606   2.630   4.907  17.411 -3.8711  0.9842  1.3371
 2137TIP3    H230607   2.610   5.009  17.301  1.1734 -0.1865 -0.9609
 2138TIP3   OH230608   1.488   0.843  18.690  0.1813  0.0386 -0.1455
 2138TIP3    H130609   1.412   0.881  18.735 -0.3167 -0.5203 -0.5007
 2138TIP3    H230610   1.486   0.751  18.714  3.5073  0.7233  3.7559
 2139TIP3   OH230611   2.665   0.986  17.092 -0.0232  0.3674  0.0564
 2139TIP3    H130612   2.741   0.963  17.146  0.7273  1.3590 -0.5463
 2139TIP3    H230613   2.602   1.022  17.154  0.6810  1.1412  0.3478
 2140TIP3   OH230614   6.996   2.684  19.255 -0.2101  0.3313  0.3251
 2140TIP3    H130615   7.067   2.691  19.319  0.7193 -2.2272 -0.3267
 2140TIP3    H230616   7.036   2.709  19.172 -0.0149 -1.1176 -0.0433
 2141TIP3   OH230617   3.744   5.688  18.935  0.3152  0.1984  0.1616
 2141TIP3    H130618   3.709   5.601  18.919  0.7579 -0.3971  2.1159
 2141TIP3    H230619   3.837   5.681  18.914  0.6164 -0.1979  1.5395
 2142TIP3   OH230620   4.840   0.167  19.411  0.1064  0.1108 -0.3377
 2142TIP3    H130621   4.855   0.175  19.316 -0.8816 -0.1280 -0.5271
 2142TIP3    H230622   4.835   0.258  19.442  0.9319  0.1915 -0.4207
 2143TIP3   OH230623   0.010   6.223  17.160  0.3971  0.1330 -0.0554
 2143TIP3    H130624   0.012   6.302  17.106  0.3665 -0.4738 -0.9638
 2143TIP3    H230625  -0.042   6.247  17.236 -1.1367  0.4767 -1.1759
 2144TIP3   OH230626   0.513   0.261  17.535  0.1227 -0.3219 -0.6059
 2144TIP3    H130627   0.464   0.333  17.495  0.3324  0.2329  0.1207
 2144TIP3    H230628   0.485   0.261  17.627 -0.7312 -1.8875 -0.8111
 2145TIP3   OH230629   2.617   2.812  18.445 -0.2944  0.1288 -0.1431
 2145TIP3    H130630   2.552   2.760  18.492 -1.9252 -0.1801 -2.5721
 2145TIP3    H230631   2.686   2.828  18.509 -1.4098 -1.9894  1.7049
 2146TIP3   OH230632   4.802   1.897  17.910 -0.0842 -0.2071 -0.0636
 2146TIP3    H130633   4.803   1.986  17.877  1.3424  1.0342  2.9315
 2146TIP3    H230634   4.866   1.850  17.856  1.5801  1.4847  0.3438
 2147TIP3   OH230635   3.301   4.016  18.021 -0.6665  0.1936  0.2242
 2147TIP3    H130636   3.208   3.993  18.014 -0.7956  0.8822 -0.4745
 2147TIP3    H230637   3.346   3.933  18.035 -1.2796 -0.2651 -0.4918
 2148TIP3   OH230638   3.603   6.710  19.177 -0.4398  0.1513  0.6754
 2148TIP3    H130639   3.612   6.696  19.271  0.1111 -0.6051  0.5248
 2148TIP3    H230640   3.685   6.752  19.151 -0.3140 -0.2361  0.4327
 2149TIP3   OH230641   6.221   6.054  19.177  0.2274  0.1384 -0.0051
 2149TIP3    H130642   6.150   6.116  19.191 -0.8846 -1.1753  0.4671
 2149TIP3    H230643   6.267   6.085  19.099 -1.6021  0.3814 -1.0340
 2150TIP3   OH230644   4.677   1.811  18.374 -0.0345  0.5726 -0.4681
 2150TIP3    H130645   4.647   1.755  18.446 -0.5063 -0.0913 -1.1665
 2150TIP3    H230646   4.599   1.855  18.343  0.3317  1.6227  0.0516
 2151TIP3   OH230647   0.953   7.583  17.574 -0.4824 -0.0441  0.3177
 2151TIP3    H130648   1.044   7.579  17.604  1.0418 -1.3419 -3.8020
 2151TIP3    H230649   0.954   7.651  17.507 -1.9924 -1.5972 -1.3541
 2152TIP3   OH230650   3.459   2.520  19.135 -0.3816  0.3382  0.9678
 2152TIP3    H130651   3.525   2.548  19.198  0.8697 -2.7463  1.1909
 2152TIP3    H230652   3.383   2.496  19.189 -1.5427  3.1502  0.7632
 2153TIP3   OH230653   4.300   7.423  19.134 -0.3694  0.3157  0.0642
 2153TIP3    H130654   4.246   7.390  19.062 -0.0821  0.1625 -0.0832
 2153TIP3    H230655   4.260   7.507  19.157 -0.2314  0.5574 -0.5400
 2154TIP3   OH230656   3.281   1.006  18.500  0.3723 -0.0360  0.4349
 2154TIP3    H130657   3.337   0.934  18.527  1.0703 -0.0786 -1.0426
 2154TIP3    H230658   3.192   0.974  18.513  0.6792 -1.0216  0.1252
 2155TIP3   OH230659   4.761   4.105  19.045  0.0522  0.3711  0.3977
 2155TIP3    H130660   4.790   4.014  19.046 -1.0130  0.0073  0.0367
 2155TIP3    H230661   4.837   4.154  19.013  0.7871 -0.3246  1.0252
 2156TIP3   OH230662   6.243   1.060  19.281 -0.3468  0.1783  0.0638
 2156TIP3    H130663   6.162   1.011  19.298  0.4574 -0.7203  1.5104
 2156TIP3    H230664   6.261   1.045  19.188 -0.5371 -1.7118  0.2840
 2157TIP3   OH230665   0.206   7.162  18.171  0.3993 -0.5742 -0.5029
 2157TIP3    H130666   0.118   7.153  18.207  1.1120  1.0192  1.8494
 2157TIP3    H230667   0.264   7.148  18.246  2.2600 -2.4420 -2.1518
 2158TIP3   OH230668   2.552   3.887  17.863  0.0998  0.5089 -0.2055
 2158TIP3    H130669   2.609   3.962  17.878  0.8034 -0.0952  0.1929
 2158TIP3    H230670   2.484   3.920  17.804  0.6800  1.3256 -0.4370
 2159TIP3   OH230671   5.674   2.755  17.577 -0.6686  0.4005 -0.5014
 2159TIP3    H130672   5.628   2.837  17.597 -0.6623  0.2672  0.0562
 2159TIP3    H230673   5.767   2.779  17.576 -0.6997  0.5210 -0.9322
 2160TIP3   OH230674   5.881   5.422  17.835 -0.3172 -0.6649  0.3435
 2160TIP3    H130675   5.919   5.378  17.911 -0.6914 -1.2544  0.2005
 2160TIP3    H230676   5.942   5.493  17.815 -0.6704  0.0712  1.7323
 2161TIP3   OH230677   1.533   2.603  18.652  0.5979 -0.0833 -0.1976
 2161TIP3    H130678   1.474   2.624  18.579 -0.6002  2.5525  1.3449
 2161TIP3    H230679   1.606   2.664  18.641  0.1109  0.7779  1.0328
 2162TIP3   OH230680   7.627   5.862  19.582 -0.1934  0.3692 -0.0670
 2162TIP3    H130681   7.585   5.796  19.638 -0.7580  1.2734  0.6022
 2162TIP3    H230682   7.565   5.875  19.511 -0.9949  1.5281  0.7966
 2163TIP3   OH230683   1.992   5.500  17.163  0.4498  0.7577 -0.3159
 2163TIP3    H130684   2.044   5.422  17.142 -0.7590 -0.6770  1.6742
 2163TIP3    H230685   1.904   5.480  17.132  0.0801  1.2282  0.3924
 2164TIP3   OH230686   1.813   3.274  17.683 -0.2358 -0.4313  0.6276
 2164TIP3    H130687   1.798   3.290  17.590  2.4839  1.3423  0.3979
 2164TIP3    H230688   1.741   3.320  17.727  0.5055  1.9995 -0.5433
 2165TIP3   OH230689   3.854   1.186  18.069  0.2293  0.3660 -0.1055
 2165TIP3    H130690   3.791   1.174  18.140  1.7081 -0.4257  1.1332
 2165TIP3    H230691   3.806   1.234  18.001 -1.5260  0.2281  1.0002
 2166TIP3   OH230692   7.411   3.427  17.989 -0.0949 -0.7890  0.4759
 2166TIP3    H130693   7.350   3.405  18.060 -2.6246  1.3903 -0.8035
 2166TIP3    H230694   7.368   3.395  17.910 -0.6732  2.4062 -0.6695
 2167TIP3   OH230695   2.563   0.227  17.866 -0.1196 -0.0896  0.4541
 2167TIP3    H130696   2.522   0.242  17.952 -0.6413  0.4469  0.1124
 2167TIP3    H230697   2.492   0.191  17.812  0.0359  0.1960  0.0587
 2168TIP3   OH230698   2.350   1.012  18.594 -0.3537 -0.6916 -0.5757
 2168TIP3    H130699   2.294   1.066  18.649 -0.6317  0.3288 -1.8111
 2168TIP3    H230700   2.292   0.945  18.558 -0.4637 -0.5324 -0.6939
 2169TIP3   OH230701   5.112   2.357  18.260  0.5722  0.0732  0.0636
 2169TIP3    H130702   5.121   2.416  18.336 -0.0646 -0.6596  0.7266
 2169TIP3    H230703   5.129   2.270  18.295  1.0561 -0.2042 -0.8214
 2170TIP3   OH230704   6.184   5.765  16.621  0.4245 -0.6230  0.2179
 2170TIP3    H130705   6.115   5.750  16.557 -0.1184  2.5990 -0.0905
 2170TIP3    H230706   6.138   5.783  16.703  1.0567 -1.7973  0.8702
 2171TIP3   OH230707   6.872   4.341  18.670 -0.1322  0.4963 -0.2801
 2171TIP3    H130708   6.894   4.425  18.632  0.7383  1.3300  1.8847
 2171TIP3    H230709   6.929   4.334  18.747 -0.6251 -1.7809 -0.0474
 2172TIP3   OH230710   6.420   2.526  18.945  0.7608  0.0751 -0.1569
 2172TIP3    H130711   6.489   2.548  18.882  2.0652 -0.5677  0.9724
 2172TIP3    H230712   6.402   2.609  18.990 -0.0937  0.5082 -1.2768
 2173TIP3   OH230713   4.515   7.458  17.835 -0.2836 -0.7224 -0.2883
 2173TIP3    H130714   4.580   7.528  17.848  0.8841 -2.0753  1.5372
 2173TIP3    H230715   4.562   7.392  17.784 -0.2672 -1.6426  0.9037
 2174TIP3   OH230716   1.813   6.639  18.876 -0.5756  0.2918  0.1235
 2174TIP3    H130717   1.848   6.632  18.787  0.8490  1.6654  0.5076
 2174TIP3    H230718   1.728   6.681  18.865 -1.2623 -1.2669 -0.7115
 2175TIP3   OH230719   2.088   1.781  18.459  0.0481  0.0371  0.2731
 2175TIP3    H130720   2.138   1.842  18.405 -0.4021  0.4495  0.3193
 2175TIP3    H230721   2.093   1.698  18.411 -0.0161  0.3047 -0.2066
 2176TIP3   OH230722   6.783   3.102  19.168  0.1424  0.3801 -0.2071
 2176TIP3    H130723   6.813   3.117  19.257  1.2307 -1.8377 -0.1506
 2176TIP3    H230724   6.794   3.008  19.154 -2.3287  0.2601 -1.8611
 2177TIP3   OH230725   5.953   5.300  18.094 -0.3431  0.2864  0.1417
 2177TIP3    H130726   5.905   5.220  18.116 -1.3136  1.0732  0.9904
 2177TIP3    H230727   6.045   5.277  18.106 -0.5884 -0.7673  0.1146
 2178TIP3   OH230728   1.325   4.020  18.788  0.9457 -0.3779  0.0060
 2178TIP3    H130729   1.394   4.049  18.729  1.1496 -0.5534  0.1560
 2178TIP3    H230730   1.261   3.976  18.732 -1.4715  3.7752 -0.9624
 2179TIP3   OH230731   0.587   5.793  19.102 -0.0631  0.7840  0.0930
 2179TIP3    H130732   0.605   5.777  19.010 -0.5145  0.5351  0.0436
 2179TIP3    H230733   0.503   5.838  19.102 -1.7165 -2.0671  0.5166
 2180TIP3   OH230734   3.978   5.089  17.525 -0.2833  0.6613  0.5625
 2180TIP3    H130735   3.906   5.133  17.569 -0.6870  0.4454  0.1315
 2180TIP3    H230736   3.968   5.114  17.433  0.5009  1.0498  0.5749
 2181TIP3   OH230737   6.450   7.561  18.984 -0.0601 -0.1080 -0.0418
 2181TIP3    H130738   6.442   7.651  19.015  0.9333  0.6647 -1.8356
 2181TIP3    H230739   6.523   7.564  18.922  0.0876 -2.1889 -0.0241
 2182TIP3   OH230740   6.522   3.341  18.933 -0.3105 -0.3663 -0.3149
 2182TIP3    H130741   6.542   3.401  18.862  0.6755 -1.8632 -1.3478
 2182TIP3    H230742   6.440   3.375  18.971 -0.2533  1.0843 -1.4180
 2183TIP3   OH230743   2.364   2.736  18.020 -0.7343 -0.2712 -0.2369
 2183TIP3    H130744   2.414   2.789  18.083 -1.2163 -0.1282  0.0260
 2183TIP3    H230745   2.288   2.790  17.998 -1.0481 -0.7082 -0.2381
 2184TIP3   OH230746   2.023   3.715  18.440 -0.0477  0.0872  0.5094
 2184TIP3    H130747   1.928   3.724  18.444 -0.3239 -0.5856 -2.5438
 2184TIP3    H230748   2.038   3.620  18.443  0.7601  0.2140  3.1243
 2185TIP3   OH230749   7.181   6.163  16.595 -0.3899 -0.6590  0.2559
 2185TIP3    H130750   7.165   6.109  16.518 -1.2052  0.0980 -0.1258
 2185TIP3    H230751   7.262   6.210  16.575 -1.0327  0.1666 -0.5303
 2186TIP3   OH230752   5.606   5.894  19.172 -0.0113 -0.5084 -0.4171
 2186TIP3    H130753   5.580   5.824  19.112 -1.7672 -0.2211 -0.0187
 2186TIP3    H230754   5.540   5.893  19.241  0.8430  0.4982  0.4468
 2187TIP3   OH230755   3.448   7.061  18.167  0.3718  0.1419 -0.7536
 2187TIP3    H130756   3.381   7.086  18.103  0.9968 -0.3058 -1.5962
 2187TIP3    H230757   3.431   6.969  18.185  0.6723  0.0662 -0.8582
 2188TIP3   OH230758   2.284   5.982  19.001 -0.0535 -0.0414 -0.0679
 2188TIP3    H130759   2.230   6.002  19.078 -1.7873 -3.4117 -0.2461
 2188TIP3    H230760   2.239   6.026  18.928 -1.6147 -1.3084  0.0784
 2189TIP3   OH230761   2.761   2.621  19.102  0.7017 -0.6686  0.2150
 2189TIP3    H130762   2.764   2.526  19.092 -1.4592 -1.0845  2.5810
 2189TIP3    H230763   2.827   2.641  19.168 -0.7204 -0.9390  1.7680
 2190TIP3   OH230764   1.890   6.551  18.001 -0.6582  0.4509  0.2103
 2190TIP3    H130765   1.795   6.556  17.991 -0.8724  0.3350  1.8957
 2190TIP3    H230766   1.918   6.641  18.017 -0.4960  0.4654 -0.1433
 2191TIP3   OH230767   6.824   1.926  17.532  0.3018 -0.4157  0.2839
 2191TIP3    H130768   6.843   1.904  17.441 -0.6317 -0.7731  0.1666
 2191TIP3    H230769   6.737   1.965  17.530  1.4313  2.3153  0.6390
 2192TIP3   OH230770   2.004   0.034  18.220  0.0535  0.7314 -0.0999
 2192TIP3    H130771   2.002  -0.053  18.259  0.5535 -0.0585 -1.7497
 2192TIP3    H230772   1.938   0.084  18.269  0.8275 -0.0877  1.8795
 2193TIP3   OH230773   4.627   1.396  18.116 -0.2718  0.7489  0.0039
 2193TIP3    H130774   4.667   1.421  18.033  1.2710  0.5474  0.6500
 2193TIP3    H230775   4.578   1.317  18.097  1.0085  0.0478 -0.5072
 2194TIP3   OH230776   0.651   6.616  19.121  0.6529  0.7263 -0.0417
 2194TIP3    H130777   0.656   6.681  19.191 -1.9547  1.8274 -0.7496
 2194TIP3    H230778   0.585   6.651  19.061  1.0820 -1.3350 -1.8253
 2195TIP3   OH230779   3.115   2.926  18.637  0.1991 -0.4559 -0.1768
 2195TIP3    H130780   3.129   3.020  18.650 -0.5959 -0.3883  0.2024
 2195TIP3    H230781   3.146   2.886  18.718 -3.9050 -0.1065  1.8042
 2196TIP3   OH230782   2.179   6.460  16.705 -0.5438  0.0426  0.3310
 2196TIP3    H130783   2.102   6.408  16.681 -0.0364 -0.2889 -0.6555
 2196TIP3    H230784   2.193   6.518  16.629 -1.2253  1.8088  1.4916
 2197TIP3   OH230785   2.702   6.729  18.737 -0.4416  0.1411  0.1310
 2197TIP3    H130786   2.750   6.692  18.662 -1.1598 -1.6668  0.5085
 2197TIP3    H230787   2.728   6.674  18.811 -0.6765  1.1498  0.9743
 2198TIP3   OH230788   5.303   3.819  19.270 -0.8582 -0.0677  0.0449
 2198TIP3    H130789   5.309   3.743  19.328 -1.7729  0.5475  0.9981
 2198TIP3    H230790   5.226   3.867  19.302 -1.8406 -0.0711 -2.1553
 2199TIP3   OH230791   5.558   2.394  18.963 -0.2672  0.0870  0.5798
 2199TIP3    H130792   5.647   2.362  18.976  0.3257  0.6990 -1.6254
 2199TIP3    H230793   5.513   2.324  18.916  0.3729  1.3890 -2.1827
 2200TIP3   OH230794   4.905   1.091  18.885 -0.1065  0.2653  0.6837
 2200TIP3    H130795   4.931   1.163  18.828 -0.5398 -0.4195 -0.4102
 2200TIP3    H230796   4.840   1.129  18.944 -0.0121  0.8619  0.4112
 2201TIP3   OH230797   1.511   5.526  19.125  0.4029 -0.2331  0.5124
 2201TIP3    H130798   1.496   5.605  19.072  0.1429 -0.0214  0.8989
 2201TIP3    H230799   1.423   5.497  19.150  0.5682  0.3858  1.8754
 2202TIP3   OH230800   5.811   2.066  18.394  0.4116 -0.2322 -0.2969
 2202TIP3    H130801   5.730   2.021  18.367  0.5508 -0.6401 -0.0521
 2202TIP3    H230802   5.825   2.036  18.484  0.7319 -0.0156 -0.2771
 2203TIP3   OH230803   0.780   0.210  18.154 -0.1282  0.1362 -0.0562
 2203TIP3    H130804   0.808   0.276  18.091  2.1030 -0.5149  0.1517
 2203TIP3    H230805   0.825   0.234  18.235  0.1522 -1.1923  0.2114
 2204TIP3   OH230806   2.430   0.957  17.507  0.2033 -0.0034  0.2132
 2204TIP3    H130807   2.392   0.871  17.485  1.3995 -0.4219 -0.3645
 2204TIP3    H230808   2.356   1.017  17.509 -0.5565 -0.9048 -0.2237
 2205TIP3   OH230809   6.797   4.287  17.840  0.0009  0.6273  0.1568
 2205TIP3    H130810   6.840   4.308  17.757  1.4684  0.5206  0.8567
 2205TIP3    H230811   6.823   4.357  17.900  1.0951 -0.6415  1.2191
 2206TIP3   OH230812   6.551   0.217  17.783 -0.1419  0.6948  0.1855
 2206TIP3    H130813   6.471   0.206  17.835 -1.1484 -0.3323 -1.4909
 2206TIP3    H230814   6.622   0.220  17.848 -1.4909  1.3282  1.6909
 2207TIP3   OH230815   6.218   6.950  17.991 -0.5390 -0.1336 -0.7772
 2207TIP3    H130816   6.269   7.000  17.928 -0.1906  0.7229  0.1603
 2207TIP3    H230817   6.137   6.929  17.944 -0.3224  0.5418 -1.4808
 2208TIP3   OH230818   2.236   0.452  18.259 -0.0387  0.2361 -0.3780
 2208TIP3    H130819   2.278   0.534  18.283 -0.1824  0.1440  0.2016
 2208TIP3    H230820   2.263   0.390  18.327  0.3501 -0.2873 -0.9979
 2209TIP3   OH230821   3.393   2.240  18.273 -0.1308 -0.1749  0.0742
 2209TIP3    H130822   3.373   2.178  18.344 -1.5033 -0.4353 -0.5024
 2209TIP3    H230823   3.488   2.233  18.261 -0.0269 -0.9142  1.1558
 2210TIP3   OH230824   1.432   3.860  19.129 -0.1683  0.3595 -0.0856
 2210TIP3    H130825   1.351   3.809  19.127  0.8055 -1.3550  1.3422
 2210TIP3    H230826   1.410   3.938  19.179 -0.5101 -1.0327  2.0694
 2211TIP3   OH230827   7.326   4.791  17.692  0.3523  0.2320 -0.4104
 2211TIP3    H130828   7.254   4.728  17.697  2.1514 -2.0025 -0.8537
 2211TIP3    H230829   7.283   4.877  17.690 -2.3713 -1.0176 -2.2879
 2212TIP3   OH230830   4.448   3.513  17.124 -0.2203 -0.1466  0.1513
 2212TIP3    H130831   4.494   3.429  17.123  1.1623  0.5758  0.0061
 2212TIP3    H230832   4.367   3.496  17.172  0.3435 -1.4007  0.7043
 2213TIP3   OH230833   0.598   4.881  18.197  0.2740 -0.1654  0.4749
 2213TIP3    H130834   0.511   4.921  18.199 -0.6442 -2.0549  0.6925
 2213TIP3    H230835   0.599   4.823  18.274  1.4476 -0.7113  0.0662
 2214TIP3   OH230836   0.882   7.646  19.187 -0.6563  0.1959  0.4999
 2214TIP3    H130837   0.928   7.588  19.127  1.3819  0.1851  1.9693
 2214TIP3    H230838   0.904   7.734  19.157 -0.4419  0.1929  0.6469
 2215TIP3   OH230839   3.204   6.571  17.667 -0.1522 -0.1401  0.0590
 2215TIP3    H130840   3.221   6.599  17.577 -0.6903  0.1219  0.0273
 2215TIP3    H230841   3.262   6.497  17.682  0.1152 -0.0287 -0.4258
 2216TIP3   OH230842   3.485   0.373  18.527  0.4998 -0.5183  0.2135
 2216TIP3    H130843   3.468   0.426  18.604 -1.4574 -0.7583 -0.0014
 2216TIP3    H230844   3.503   0.436  18.457 -2.0245 -0.0244 -0.0953
 2217TIP3   OH230845   4.876   3.685  17.623  0.2058  0.3347 -0.3521
 2217TIP3    H130846   4.809   3.659  17.560  0.0193 -2.3306  0.8102
 2217TIP3    H230847   4.837   3.665  17.709  1.6388  0.8629  0.4556
 2218TIP3   OH230848   6.637   5.302  19.239  0.2306 -0.5028  0.5294
 2218TIP3    H130849   6.669   5.392  19.245  0.0799 -0.4511  0.5568
 2218TIP3    H230850   6.687   5.254  19.304  0.0882 -0.3747  0.7336
 2219TIP3   OH230851   1.613   6.063  18.699  0.4097 -0.5078 -0.2538
 2219TIP3    H130852   1.687   6.004  18.716 -0.3828 -1.9211 -1.4604
 2219TIP3    H230853   1.537   6.006  18.701 -0.3449  0.3796 -1.9339
 2220TIP3   OH230854   4.466   1.923  19.099  0.4797  0.2538  0.2227
 2220TIP3    H130855   4.457   1.904  19.006  1.8645  3.5395 -0.7053
 2220TIP3    H230856   4.500   1.841  19.137 -1.6540 -1.6924 -1.7466
 2221TIP3   OH230857   6.887   6.959  18.513 -0.2775 -0.5640 -0.1418
 2221TIP3    H130858   6.860   7.047  18.539  3.3710  0.0256  2.4293
 2221TIP3    H230859   6.815   6.902  18.540 -1.4929  1.3289  0.8199
 2222TIP3   OH230860   5.422   3.757  18.593  0.4917  0.1742  0.1451
 2222TIP3    H130861   5.462   3.844  18.591  0.0140  0.4581  1.8549
 2222TIP3    H230862   5.359   3.758  18.520  0.0957  1.4615  0.4886
 2223TIP3   OH230863   5.171   0.123  19.260  0.1726 -0.4978 -0.0609
 2223TIP3    H130864   5.261   0.101  19.286  0.2710  1.1874  1.1338
 2223TIP3    H230865   5.117   0.059  19.306  0.6970 -0.9942 -0.1192
 2224TIP3   OH230866   0.910   5.928  17.521  0.1478 -0.3346 -0.6938
 2224TIP3    H130867   0.822   5.913  17.556  1.0455 -1.9265  1.0853
 2224TIP3    H230868   0.930   5.848  17.472  0.6757 -0.0760 -0.9087
 2225TIP3   OH230869   6.593   6.853  17.855  0.0347 -0.2864 -0.1429
 2225TIP3    H130870   6.612   6.896  17.939  2.4060  0.7935 -1.1298
 2225TIP3    H230871   6.542   6.917  17.807  3.3714  1.5923 -1.5227
 2226TIP3   OH230872   6.291   4.301  17.905  0.1892  0.0020  0.3263
 2226TIP3    H130873   6.369   4.247  17.892  0.6153  0.8104 -0.5417
 2226TIP3    H230874   6.283   4.354  17.825 -1.6981 -0.6085  0.0538
 2227TIP3   OH230875   7.164   0.884  18.047  0.3001 -0.0447  0.5254
 2227TIP3    H130876   7.258   0.866  18.058  0.5727  0.8289 -0.3093
 2227TIP3    H230877   7.128   0.872  18.135  1.7019  2.5482  1.5551
 2228TIP3   OH230878   6.356   3.805  17.135 -0.3488  0.3054 -0.2395
 2228TIP3    H130879   6.337   3.890  17.175 -0.2707  0.1103  0.2103
 2228TIP3    H230880   6.292   3.798  17.064 -0.0515  0.9489 -0.5787
 2229TIP3   OH230881   1.025   1.118  17.423  0.3708  0.7286 -0.4685
 2229TIP3    H130882   1.045   1.139  17.331  0.1801 -0.3278 -0.7672
 2229TIP3    H230883   1.043   1.024  17.430 -0.5837  0.5878  0.3108
 2230TIP3   OH230884   4.494   1.310  18.384 -0.0246 -0.3138 -0.4762
 2230TIP3    H130885   4.440   1.311  18.463 -0.6237  1.2689 -0.8731
 2230TIP3    H230886   4.442   1.354  18.318  0.5500 -1.4370 -1.7351
 2231TIP3   OH230887   0.013   2.241  19.075  0.3676 -0.1957 -0.7251
 2231TIP3    H130888   0.074   2.171  19.052  0.6427  0.4624 -2.0941
 2231TIP3    H230889  -0.023   2.215  19.160  0.9155 -1.6859 -0.9248
 2232TIP3   OH230890   4.543   3.887  19.327  0.0754  0.6304  0.0869
 2232TIP3    H130891   4.524   3.810  19.381  0.7182 -0.3269 -1.0056
 2232TIP3    H230892   4.458   3.914  19.293 -0.1877  0.5436  0.6758
 2233TIP3   OH230893   5.923   6.999  17.283  0.1188 -0.0396 -0.4771
 2233TIP3    H130894   5.893   6.988  17.373 -0.5439 -0.4194 -0.7335
 2233TIP3    H230895   5.998   6.940  17.275 -0.7275 -1.1385 -0.5813
 2234TIP3   OH230896   2.831   1.698  18.454  0.3020  0.5927  0.1936
 2234TIP3    H130897   2.784   1.722  18.534 -1.9255 -1.3372 -0.4063
 2234TIP3    H230898   2.878   1.617  18.478 -0.6209 -0.1638 -0.4700
 2235TIP3   OH230899   5.509   5.547  18.172 -0.2315 -0.2027  0.1838
 2235TIP3    H130900   5.560   5.555  18.252  1.1765 -1.7065 -0.4979
 2235TIP3    H230901   5.446   5.477  18.190  0.1598 -0.6177 -0.0552
 2236TIP3   OH230902   6.440   5.840  16.568  0.3763  0.4838 -0.1780
 2236TIP3    H130903   6.347   5.818  16.556  0.6620  0.6533 -3.6805
 2236TIP3    H230904   6.438   5.926  16.609 -1.0284  0.4146 -0.0313
 2237TIP3   OH230905   2.141   2.909  17.904  0.3686 -0.3036  0.4875
 2237TIP3    H130906   2.092   2.924  17.985 -1.9096 -0.4765 -0.7577
 2237TIP3    H230907   2.133   2.992  17.856 -3.1416 -1.7841 -1.8603
 2238TIP3   OH230908   0.838   2.595  19.215  0.3902 -0.1214 -0.0515
 2238TIP3    H130909   0.902   2.562  19.153  0.6134  0.6473 -0.2364
 2238TIP3    H230910   0.762   2.620  19.161  1.5823  3.1718 -0.4572
 2239TIP3   OH230911   4.568   0.909  19.242 -0.3760 -0.5465 -0.2908
 2239TIP3    H130912   4.656   0.899  19.207 -0.4468 -1.2185 -0.2909
 2239TIP3    H230913   4.558   0.835  19.303 -1.0869 -0.7287 -0.6160
 2240TIP3   OH230914   4.384   1.625  19.009  0.0967  0.2196  0.3470
 2240TIP3    H130915   4.288   1.625  19.017 -0.0792  2.5860 -1.0171
 2240TIP3    H230916   4.401   1.613  18.916  0.9761  2.4729  0.1517
 2241TIP3   OH230917   3.803   3.340  17.651 -0.1874 -0.2147 -0.2851
 2241TIP3    H130918   3.857   3.419  17.644 -1.2626  0.4742 -1.4408
 2241TIP3    H230919   3.747   3.355  17.727  0.0794 -0.1811 -0.0933
 2242TIP3   OH230920   1.287   6.240  18.991 -0.1623  0.1251 -0.6268
 2242TIP3    H130921   1.310   6.251  18.898 -2.1140 -0.7297 -1.2654
 2242TIP3    H230922   1.243   6.322  19.014  0.9222  0.6082 -0.2461
 2243TIP3   OH230923   1.485   4.536  17.554 -0.1162  0.3301  0.2572
 2243TIP3    H130924   1.438   4.554  17.472  1.9112  1.9347 -0.6597
 2243TIP3    H230925   1.504   4.623  17.590  0.4931 -0.3192  1.5459
 2244TIP3   OH230926   0.470   0.798  17.705 -0.0650 -1.1798 -0.2310
 2244TIP3    H130927   0.440   0.829  17.791 -0.3097 -1.3017 -0.2715
 2244TIP3    H230928   0.505   0.876  17.662  0.8004 -1.2657  0.2898
 2245TIP3   OH230929   3.958   5.872  18.302  0.5170  0.5829  0.5053
 2245TIP3    H130930   3.882   5.919  18.268  0.7202  0.8432  0.4087
 2245TIP3    H230931   4.001   5.837  18.224  0.8015  0.9035  0.5191
 2246TIP3   OH230932   3.161   1.350  17.975  0.6309 -0.4826 -0.1219
 2246TIP3    H130933   3.111   1.369  18.054  1.7750 -2.1087  1.0663
 2246TIP3    H230934   3.094   1.330  17.909 -0.3609 -2.2404  1.3176
 2247TIP3   OH230935   5.804   4.382  18.444 -0.7746  0.1321 -0.1018
 2247TIP3    H130936   5.750   4.362  18.520 -0.8729 -0.2642 -0.2735
 2247TIP3    H230937   5.879   4.430  18.479 -0.1961 -1.1119  0.4185
 2248TIP3   OH230938   0.453   1.177  17.811 -0.2671  0.7275  0.0511
 2248TIP3    H130939   0.467   1.272  17.806 -1.4969  0.8995 -0.6653
 2248TIP3    H230940   0.360   1.168  17.835 -1.0773 -0.2490 -2.9810
 2249TIP3   OH230941   2.240   3.490  18.239  0.3484  0.3557  0.4970
 2249TIP3    H130942   2.301   3.541  18.292  1.3705  0.4410 -0.6914
 2249TIP3    H230943   2.283   3.405  18.227  0.0892  0.2941 -0.0674
 2250TIP3   OH230944   5.151   6.950  18.601  0.3488  0.0541  0.4530
 2250TIP3    H130945   5.180   6.859  18.610  0.7975  0.2525  1.1248
 2250TIP3    H230946   5.066   6.944  18.558  0.5460 -0.6626  0.1477
 2251TIP3   OH230947   2.789   3.191  18.854  0.1284 -0.8097 -0.4601
 2251TIP3    H130948   2.744   3.247  18.918 -1.0133 -1.2977 -0.8139
 2251TIP3    H230949   2.881   3.213  18.865 -0.0617 -0.6426  1.1317
 2252TIP3   OH230950   3.283   0.667  17.442  0.5094  0.6432 -0.1491
 2252TIP3    H130951   3.196   0.694  17.412 -0.7074 -1.1615  1.5195
 2252TIP3    H230952   3.343   0.730  17.402 -1.4344  1.2806 -2.2701
 2253TIP3   OH230953   0.644   5.510  19.162  0.0347 -0.2715  0.2531
 2253TIP3    H130954   0.646   5.513  19.067  1.1167 -1.6581  0.1902
 2253TIP3    H230955   0.646   5.602  19.190  1.5312  0.1301 -1.0521
 2254TIP3   OH230956   6.448   0.158  19.036 -0.0460  0.0734  0.9537
 2254TIP3    H130957   6.518   0.173  19.099 -0.3522  0.0960  1.2981
 2254TIP3    H230958   6.371   0.198  19.077 -0.3573 -0.3585  0.7971
 2255TIP3   OH230959   4.795   0.234  19.116  0.7268 -0.2899  0.4382
 2255TIP3    H130960   4.818   0.153  19.072  0.7177 -0.3946  0.6268
 2255TIP3    H230961   4.777   0.296  19.045  0.9966 -0.3757  0.2922
 2256TIP3   OH230962   0.404   1.377  17.140 -0.1475 -0.1391 -0.2170
 2256TIP3    H130963   0.421   1.453  17.085  1.9224 -1.7233 -1.9263
 2256TIP3    H230964   0.489   1.335  17.151 -1.1412 -1.9916  1.0190
 2257TIP3   OH230965   1.278   1.347  18.068 -0.2661  0.6222 -0.2277
 2257TIP3    H130966   1.233   1.431  18.064 -3.0363 -0.7263  0.5616
 2257TIP3    H230967   1.271   1.320  18.159 -0.9084 -1.1838 -0.7788
 2258TIP3   OH230968   1.418   5.732  18.022 -0.1984 -0.3581  0.2069
 2258TIP3    H130969   1.421   5.636  18.016 -1.0841 -0.3095 -1.4208
 2258TIP3    H230970   1.501   5.761  17.985 -0.7656 -0.4596 -1.2037
 2259TIP3   OH230971   5.647   6.196  18.623 -0.2553  0.2127 -0.1772
 2259TIP3    H130972   5.654   6.134  18.696 -0.4074  0.2307 -0.1484
 2259TIP3    H230973   5.574   6.253  18.647  1.0443  1.5885  0.6908
 2260TIP3   OH230974   0.281   6.714  17.652 -0.4903 -0.0751 -0.3717
 2260TIP3    H130975   0.319   6.664  17.580 -1.2340 -0.1989 -0.6924
 2260TIP3    H230976   0.340   6.789  17.663 -0.9098  0.5201 -1.8180
 2261TIP3   OH230977   1.894   3.696  17.489  0.4626 -0.7424 -0.2352
 2261TIP3    H130978   1.928   3.784  17.509 -2.7250  0.4098  0.7878
 2261TIP3    H230979   1.854   3.705  17.403 -0.5588 -0.9550  0.2094
 2262TIP3   OH230980   7.428   2.500  19.474 -0.0148 -0.3635 -0.0390
 2262TIP3    H130981   7.509   2.467  19.436  0.4746 -0.8740  1.4012
 2262TIP3    H230982   7.449   2.589  19.502 -0.1158 -0.3119 -0.1235
 2263TIP3   OH230983   0.374   2.486  18.285  0.3246 -0.0591 -0.2162
 2263TIP3    H130984   0.312   2.545  18.242  1.4496  0.9085 -0.5636
 2263TIP3    H230985   0.400   2.425  18.216  0.2004 -0.1004 -0.2266
 2264TIP3   OH230986   2.948   7.679  19.500  0.5034 -0.3399 -0.2783
 2264TIP3    H130987   3.006   7.626  19.445  0.8691 -0.4101  0.1663
 2264TIP3    H230988   3.006   7.745  19.539  0.2015 -0.1305 -0.1770
 2265TIP3   OH230989   2.828   0.137  18.839 -0.6302 -0.2690 -0.2766
 2265TIP3    H130990   2.765   0.207  18.850  0.7532  0.7754  1.5687
 2265TIP3    H230991   2.817   0.108  18.749 -1.2658  2.3076 -1.0945
 2266TIP3   OH230992   6.368   7.021  17.726  0.4995  0.5868  0.4420
 2266TIP3    H130993   6.421   7.011  17.647  1.0006  0.5738  0.7792
 2266TIP3    H230994   6.320   6.938  17.733  1.2078  0.1916  0.7054
 2267TIP3   OH230995   4.182   6.452  16.476 -0.2676 -0.2417 -0.1129
 2267TIP3    H130996   4.106   6.485  16.524 -0.2250  0.0640 -0.2530
 2267TIP3    H230997   4.209   6.525  16.420  0.0807 -0.3759 -0.1225
 2268TIP3   OH230998   0.891   3.604  19.395  0.2867 -0.0559  0.4468
 2268TIP3    H130999   0.824   3.659  19.353  0.9368  0.0236 -0.5111
 2268TIP3    H231000   0.841   3.546  19.453 -0.7010 -0.5284 -0.8262
 2269TIP3   OH231001   3.148   4.940  17.855 -0.5031 -0.1836  0.4742
 2269TIP3    H131002   3.142   4.967  17.946  0.0646 -1.7175  1.0069
 2269TIP3    H231003   3.211   4.868  17.856 -1.3924 -1.0241 -0.9371
 2270TIP3   OH231004   1.972   6.556  17.389 -0.1644 -0.3600  0.0228
 2270TIP3    H131005   2.026   6.483  17.419  0.4359  0.8331  2.0117
 2270TIP3    H231006   2.034   6.627  17.373 -0.9385  0.4094  0.3283
 2271TIP3   OH231007   4.666   2.968  18.086 -0.1795  0.3541 -0.4200
 2271TIP3    H131008   4.746   2.915  18.090 -0.7780 -0.5130  0.7259
 2271TIP3    H231009   4.632   2.968  18.176 -0.6970  1.9395 -0.5807
 2272TIP3   OH231010   3.424   4.581  18.930 -0.1021 -0.4605  0.4647
 2272TIP3    H131011   3.414   4.601  18.837 -0.0107  1.2529  0.7864
 2272TIP3    H231012   3.468   4.658  18.966 -0.2204 -1.0563  1.9429
 2273TIP3   OH231013   3.180   2.751  17.885  0.0925  0.1439 -0.2307
 2273TIP3    H131014   3.179   2.660  17.917  1.0140  0.0545 -0.4348
 2273TIP3    H231015   3.099   2.759  17.834 -0.6974 -0.1355  0.9277
 2274TIP3   OH231016   1.638   6.561  17.871  0.1005  0.1490  0.7623
 2274TIP3    H131017   1.572   6.567  17.801  1.7705 -1.2746 -1.0251
 2274TIP3    H231018   1.620   6.477  17.913  0.8616 -0.3442  0.1285
 2275TIP3   OH231019   7.529   3.378  18.578 -0.0764 -0.3639 -0.0474
 2275TIP3    H131020   7.565   3.421  18.655 -0.6272  0.1729 -0.0870
 2275TIP3    H231021   7.500   3.292  18.610 -0.3451 -0.1262  0.3535
 2276TIP3   OH231022   3.847   6.188  17.465  0.4259 -0.1947 -0.5009
 2276TIP3    H131023   3.881   6.112  17.512 -1.9195 -1.1196 -0.1935
 2276TIP3    H231024   3.795   6.151  17.394 -1.4811  1.0726  0.1696
 2277TIP3   OH231025   0.420   3.967  17.441  0.1634  0.1379 -0.2346
 2277TIP3    H131026   0.512   3.993  17.434  0.0807  0.9751  1.3474
 2277TIP3    H231027   0.370   4.047  17.422 -0.1440  0.5592  2.0901
 2278TIP3   OH231028   6.002   2.413  18.608  0.3621 -0.2183  0.1859
 2278TIP3    H131029   6.077   2.360  18.583  0.9174  0.1254  1.0878
 2278TIP3    H231030   5.928   2.374  18.561  0.9380 -1.1450  0.0357
 2279TIP3   OH231031   7.351   3.110  18.372  0.1545 -0.4460 -1.0508
 2279TIP3    H131032   7.311   3.024  18.383  0.5475 -0.6710 -1.3356
 2279TIP3    H231033   7.430   3.107  18.426  1.2922 -1.0263 -2.6770
 2280TIP3   OH231034   1.835   5.482  17.512  0.6932  0.6024 -0.0963
 2280TIP3    H131035   1.927   5.464  17.528  1.3337  2.9893 -0.6873
 2280TIP3    H231036   1.832   5.576  17.493 -2.2003  1.1954  2.4474
 2281TIP3   OH231037   6.481   2.718  17.552 -0.0961  0.1439 -0.3920
 2281TIP3    H131038   6.420   2.758  17.490 -0.1701 -1.1596 -1.2256
 2281TIP3    H231039   6.429   2.650  17.595  1.1833 -2.4678 -2.6517
 2282TIP3   OH231040   6.725   5.613  19.236  0.2472 -0.0746 -0.2281
 2282TIP3    H131041   6.755   5.693  19.279  1.1675 -0.3758 -0.2806
 2282TIP3    H231042   6.631   5.624  19.227  0.3238  0.8647  0.0474
 2283TIP3   OH231043   1.483   5.468  17.993  0.6764  0.5211  0.0138
 2283TIP3    H131044   1.484   5.382  18.036 -0.0944 -0.1868 -1.3132
 2283TIP3    H231045   1.529   5.454  17.910  1.7180  1.7440  0.3422
 2284TIP3   OH231046   5.641   5.341  17.360  0.3148 -0.1067  0.3982
 2284TIP3    H131047   5.621   5.322  17.269 -2.2874  0.4835  0.7692
 2284TIP3    H231048   5.607   5.265  17.408  0.7079  0.0727  0.9705
 2285TIP3   OH231049   5.558   4.395  18.659  0.0527 -0.1066  0.0773
 2285TIP3    H131050   5.468   4.422  18.642  0.3376 -0.6032 -2.8267
 2285TIP3    H231051   5.560   4.302  18.637  0.6774 -0.8906  3.0395
 2286TIP3   OH231052   3.372   4.283  18.387  0.1043 -0.2211  0.2256
 2286TIP3    H131053   3.402   4.370  18.415  1.2582 -0.5075 -0.0745
 2286TIP3    H231054   3.442   4.224  18.413  1.9278 -0.3858 -4.1509
 2287TIP3   OH231055   4.207   1.969  19.221  0.3376  0.2302  0.6622
 2287TIP3    H131056   4.207   2.064  19.211 -0.5906  0.6628  3.6653
 2287TIP3    H231057   4.286   1.939  19.177  1.5077  2.5826  1.0580
 2288TIP3   OH231058   0.810   4.627  18.774 -0.4031 -0.1638 -0.1373
 2288TIP3    H131059   0.889   4.573  18.782  0.4736  1.2737  1.7458
 2288TIP3    H231060   0.752   4.597  18.843 -0.4504  0.4197  0.0858
 2289TIP3   OH231061   0.510   7.567  18.712  0.4481 -0.0189  0.6176
 2289TIP3    H131062   0.455   7.643  18.731 -0.0301 -0.7746  2.5222
 2289TIP3    H231063   0.464   7.521  18.642 -0.9704 -0.2259  1.6507
 2290TIP3   OH231064   6.738   5.141  18.715 -0.4195  0.3062 -0.4344
 2290TIP3    H131065   6.705   5.051  18.720 -0.4563  0.3693  0.7586
 2290TIP3    H231066   6.758   5.164  18.806  1.1202  0.9449 -0.9026
 2291TIP3   OH231067   6.951   6.201  19.245 -0.0343 -0.5939 -0.7046
 2291TIP3    H131068   6.856   6.210  19.253  0.0585 -0.4677  0.4698
 2291TIP3    H231069   6.964   6.145  19.169 -0.9181  2.5076 -3.3947
 2292TIP3   OH231070   4.432   3.780  17.164  0.1145 -0.3378  0.1669
 2292TIP3    H131071   4.443   3.685  17.164 -0.8764 -0.4933 -1.6276
 2292TIP3    H231072   4.340   3.794  17.187  0.3383  0.2093  0.7653
 2293TIP3   OH231073   6.440   2.687  17.141  0.1250  0.0506  0.0765
 2293TIP3    H131074   6.369   2.684  17.078 -0.6958 -0.8853  0.9961
 2293TIP3    H231075   6.416   2.756  17.203 -0.1666 -0.4829  0.5727
 2294TIP3   OH231076   6.086   5.967  18.657  0.3292 -0.0307  0.4198
 2294TIP3    H131077   6.019   6.034  18.674 -0.3722 -0.1202 -1.6962
 2294TIP3    H231078   6.161   6.015  18.624  0.0446 -0.2035 -0.5133
 2295TIP3   OH231079   2.980   1.457  18.174  0.5560  0.1480  0.2061
 2295TIP3    H131080   2.959   1.449  18.267 -0.6796 -0.2817 -0.0932
 2295TIP3    H231081   2.961   1.548  18.154  0.0749  0.0526  0.2093
 2296TIP3   OH231082   0.666   3.446  19.529 -0.4518  0.0016  0.9958
 2296TIP3    H131083   0.674   3.364  19.578  0.8026 -0.9063 -0.6477
 2296TIP3    H231084   0.572   3.460  19.521 -0.6866 -1.1493  1.4825
 2297TIP3   OH231085   3.605   0.054  18.462  0.0895  0.1167 -0.0704
 2297TIP3    H131086   3.541   0.070  18.532 -0.6131  0.4321 -0.7622
 2297TIP3    H231087   3.581   0.116  18.394 -1.1585 -2.1483 -1.8347
 2298TIP3   OH231088   1.775   3.034  17.550 -0.7608  0.0662 -0.0936
 2298TIP3    H131089   1.746   3.066  17.636  2.9585 -1.9156  2.1551
 2298TIP3    H231090   1.851   3.089  17.529  0.4231 -1.6043 -0.3724
 2299TIP3   OH231091   3.472   5.042  19.474  0.0183 -0.1789  0.1630
 2299TIP3    H131092   3.388   5.008  19.503  0.6656 -1.4401  0.6199
 2299TIP3    H231093   3.526   5.045  19.553  0.4890  0.3784 -0.1697
 2300TIP3   OH231094   7.473   0.470  17.651 -0.5824  0.1408  0.2476
 2300TIP3    H131095   7.551   0.505  17.607 -0.8855  2.6598  1.5045
 2300TIP3    H231096   7.408   0.540  17.644 -2.0194 -1.0321  1.1297
 2301TIP3   OH231097   0.051   4.403  17.011  0.4184 -0.7189  0.5131
 2301TIP3    H131098   0.115   4.423  16.942 -0.3311  1.4312  0.3566
 2301TIP3    H231099  -0.007   4.339  16.971  0.4960 -0.1393 -0.5743
 2302TIP3   OH231100   4.155   5.176  19.194 -0.0250  0.1927  0.0303
 2302TIP3    H131101   4.215   5.147  19.263  1.3004  0.1217 -1.1123
 2302TIP3    H231102   4.209   5.183  19.116 -1.0089  2.4698 -0.5363
 2303TIP3   OH231103   1.911   0.330  17.465  0.3554 -0.4163 -0.2791
 2303TIP3    H131104   1.936   0.391  17.535 -1.5708  2.4846 -1.9006
 2303TIP3    H231105   1.825   0.296  17.492  1.4590 -2.6557  0.6618
 2304TIP3   OH231106   5.351   5.129  19.082 -0.8635  0.0816  0.0557
 2304TIP3    H131107   5.396   5.120  19.166 -0.2185 -1.0597 -0.3869
 2304TIP3    H231108   5.268   5.082  19.095 -1.0258  0.4120  0.2315
 2305TIP3   OH231109   3.901   3.242  18.042  0.7478 -0.3262 -0.8088
 2305TIP3    H131110   3.872   3.228  17.952  0.6076  0.1823 -0.8455
 2305TIP3    H231111   3.852   3.178  18.094 -0.3560  0.4314 -0.8822
 2306TIP3   OH231112   5.035   3.221  17.600 -0.5785  0.2381 -0.3277
 2306TIP3    H131113   5.030   3.304  17.649  1.7670  0.3091 -0.0905
 2306TIP3    H231114   5.007   3.244  17.512 -0.3161  1.2222 -0.1722
 2307TIP3   OH231115   1.064   4.494  17.807  0.1231 -0.3126  0.0211
 2307TIP3    H131116   1.044   4.586  17.820 -0.6960 -0.2190 -1.5607
 2307TIP3    H231117   1.015   4.449  17.876 -1.4122  0.3073 -0.6049
 2308TIP3   OH231118   5.389   1.087  18.757  0.4023 -0.2242  0.0432
 2308TIP3    H131119   5.337   1.079  18.677  0.4471  0.8723 -0.1121
 2308TIP3    H231120   5.428   1.001  18.769 -3.2522 -1.9294  1.4557
 2309TIP3   OH231121   0.980   7.513  16.512 -0.4472  0.2896  0.1794
 2309TIP3    H131122   0.933   7.595  16.526 -0.8084  0.0123  0.6274
 2309TIP3    H231123   1.018   7.521  16.425 -0.5848  0.8814  0.1724
 2310TIP3   OH231124   5.282   3.605  19.438 -0.5518 -0.7799  0.1746
 2310TIP3    H131125   5.341   3.580  19.509  1.0467  2.2998  0.0681
 2310TIP3    H231126   5.279   3.528  19.381  0.3764 -2.3094  2.0637
 2311TIP3   OH231127   1.511   6.755  17.242  0.4381  0.2249  0.2178
 2311TIP3    H131128   1.577   6.805  17.290  0.5534  0.7445 -0.4620
 2311TIP3    H231129   1.551   6.739  17.156  0.0636 -0.3019  0.1381
 2312TIP3   OH231130   2.763   3.894  18.129  0.2809  0.9263  0.0998
 2312TIP3    H131131   2.830   3.930  18.071 -0.3349 -0.4996 -1.5761
 2312TIP3    H231132   2.697   3.963  18.136  1.1980  1.7888  0.6053
 2313TIP3   OH231133   2.824   6.326  16.971  0.2873  0.3550  0.0745
 2313TIP3    H131134   2.770   6.257  17.011  0.0274  0.5381  0.0403
 2313TIP3    H231135   2.887   6.278  16.916 -0.0399  0.1551 -0.1297
 2314TIP3   OH231136   6.659   6.786  18.603 -0.7187  0.2995  0.3456
 2314TIP3    H131137   6.572   6.825  18.611 -0.8395  0.6388 -2.0190
 2314TIP3    H231138   6.648   6.713  18.542  0.8234  1.0126 -0.8586
 2315TIP3   OH231139   1.559   2.920  17.400  0.2566 -0.2836 -0.1824
 2315TIP3    H131140   1.553   3.000  17.452  1.4907  2.0321 -3.3105
 2315TIP3    H231141   1.477   2.917  17.351  1.0873  0.3495 -1.6765
 2316TIP3   OH231142   1.754   3.210  18.436 -0.1766 -0.2893 -0.1990
 2316TIP3    H131143   1.693   3.141  18.411  0.8555 -1.7162  1.0438
 2316TIP3    H231144   1.797   3.234  18.354 -0.6621 -1.0154 -0.6840
 2317TIP3   OH231145   5.890   1.830  17.739 -0.4468  0.3727  0.4131
 2317TIP3    H131146   5.926   1.793  17.658 -0.8291  1.0479 -0.0742
 2317TIP3    H231147   5.813   1.880  17.710 -1.7081 -0.8940  1.3945
 2318TIP3   OH231148   6.111   5.348  19.061  0.5580 -0.5310  0.4324
 2318TIP3    H131149   6.103   5.256  19.035  0.1511 -0.1860 -0.7444
 2318TIP3    H231150   6.174   5.348  19.133  2.2920 -1.4957 -1.0084
 2319TIP3   OH231151   5.084   6.501  18.755  0.3520 -0.6097 -0.6022
 2319TIP3    H131152   5.152   6.474  18.816  0.2346  2.5993  1.1629
 2319TIP3    H231153   5.113   6.587  18.723 -1.1174 -0.8159 -2.7193
 2320TIP3   OH231154   0.044   2.680  19.010 -0.3169 -0.4984 -0.1255
 2320TIP3    H131155   0.119   2.656  18.956 -0.7926  0.9853 -1.5298
 2320TIP3    H231156   0.077   2.678  19.100  0.9277 -1.5115 -0.5747
 2321TIP3   OH231157   2.716   3.930  17.099 -0.2516 -0.8928 -0.1479
 2321TIP3    H131158   2.784   3.869  17.127  0.6852 -0.5252 -1.4996
 2321TIP3    H231159   2.654   3.932  17.171  1.1040 -1.3568  1.0847
 2322TIP3   OH231160   1.304   4.125  18.385  0.3831 -0.0431 -0.6862
 2322TIP3    H131161   1.379   4.179  18.406  0.1545  0.3873 -0.9526
 2322TIP3    H231162   1.228   4.176  18.414  0.2633 -1.5419  1.9032
 2323TIP3   OH231163   4.124   7.167  17.135 -0.1494  0.4190 -0.2606
 2323TIP3    H131164   4.187   7.205  17.196  1.3755  1.2045 -2.2121
 2323TIP3    H231165   4.122   7.074  17.157  1.4624  0.4334  0.0751
 2324TIP3   OH231166   2.241   4.707  18.954 -0.4693  0.1064  0.2436
 2324TIP3    H131167   2.252   4.625  18.906 -0.8828 -0.3993  0.9773
 2324TIP3    H231168   2.204   4.768  18.891 -2.2648 -0.9269  0.2410
 2325TIP3   OH231169   7.141   6.745  16.904  0.5398 -0.4455  0.2938
 2325TIP3    H131170   7.150   6.820  16.962  0.0527 -0.3604  0.2657
 2325TIP3    H231171   7.086   6.684  16.953  0.2567 -0.4375 -0.0105
 2326TIP3   OH231172   2.388   1.294  18.705 -0.6292  1.1149  0.3080
 2326TIP3    H131173   2.338   1.375  18.715  1.2814  2.7979 -2.4096
 2326TIP3    H231174   2.374   1.269  18.614 -0.1832 -0.9673  0.7758
 2327TIP3   OH231175   6.710   2.257  19.453  0.0191 -0.9263  0.2151
 2327TIP3    H131176   6.739   2.348  19.445  0.7550 -0.9623  1.9311
 2327TIP3    H231177   6.789   2.205  19.433 -0.4813 -1.2266 -1.0893
 2328TIP3   OH231178   3.957   7.185  17.705 -0.2714  0.2920 -0.0646
 2328TIP3    H131179   3.953   7.268  17.752 -0.7925  1.3885 -1.9846
 2328TIP3    H231180   3.872   7.177  17.662  0.3669 -0.4502 -1.2285
 2329TIP3   OH231181   6.808   2.088  18.946 -0.2202 -0.1408 -0.0666
 2329TIP3    H131182   6.815   2.072  18.852  1.0541 -3.0544  0.4150
 2329TIP3    H231183   6.717   2.070  18.967 -0.8864  1.9596 -0.8839
 2330TIP3   OH231184   3.317   5.458  16.990  0.1316  0.3382 -0.2343
 2330TIP3    H131185   3.370   5.423  16.918  1.1998  1.2084  0.1071
 2330TIP3    H231186   3.227   5.450  16.960  0.2115 -3.2968  0.0530
 2331TIP3   OH231187   4.255   2.330  18.031 -0.0103  0.2970 -0.5204
 2331TIP3    H131188   4.237   2.240  18.059  0.2850  0.2189 -0.5811
 2331TIP3    H231189   4.177   2.379  18.058 -0.2415 -0.0059 -0.6275
 2332TIP3   OH231190   3.592   5.267  18.443  0.3282  0.7120 -0.4453
 2332TIP3    H131191   3.650   5.286  18.517 -1.3293  0.5689  0.9502
 2332TIP3    H231192   3.551   5.351  18.422 -0.8652  0.3276  0.2916
 2333TIP3   OH231193   1.677   4.810  17.431 -0.3573 -0.0279  0.3367
 2333TIP3    H131194   1.673   4.734  17.374  1.8292  0.3410 -0.3765
 2333TIP3    H231195   1.732   4.784  17.504 -0.6901  0.4564  0.7722
 2334TIP3   OH231196   7.112   3.845  16.952 -0.8663 -0.9918  0.4679
 2334TIP3    H131197   7.191   3.871  16.906 -1.5053 -1.5135 -0.9930
 2334TIP3    H231198   7.143   3.810  17.036  0.3617 -0.3338  0.3012
 2335TIP3   OH231199   0.354   0.336  18.094 -0.4015 -0.7017  0.1939
 2335TIP3    H131200   0.291   0.407  18.103 -0.9969 -1.3338  1.3817
 2335TIP3    H231201   0.432   0.366  18.140 -0.4935 -0.6384  0.3070
 2336TIP3   OH231202   7.412   7.489  18.256  0.1574 -0.3092  0.6050
 2336TIP3    H131203   7.413   7.541  18.336 -0.3056  0.3322  0.2036
 2336TIP3    H231204   7.499   7.449  18.252  0.0907 -0.5902  1.5762
 2337TIP3   OH231205   0.349   4.443  18.643 -0.1109  0.2820 -0.0113
 2337TIP3    H131206   0.407   4.504  18.689  0.4192  1.1430 -1.7368
 2337TIP3    H231207   0.262   4.483  18.649 -0.4512 -0.6281  1.9177
 2338TIP3   OH231208   0.714   6.442  18.435  0.2368 -0.5946 -0.2241
 2338TIP3    H131209   0.680   6.353  18.431 -0.0583 -0.5438  0.9065
 2338TIP3    H231210   0.659   6.492  18.375 -0.1111 -1.0062 -0.2493
 2339TIP3   OH231211   3.342   1.125  18.079  0.3895  0.1720  0.6424
 2339TIP3    H131212   3.297   1.041  18.073  1.1227 -0.1530 -1.0787
 2339TIP3    H231213   3.278   1.188  18.047 -0.2492  0.3375  2.1722
 2340TIP3   OH231214   0.162   1.485  17.546 -0.3836  0.2604  0.1044
 2340TIP3    H131215   0.138   1.399  17.513 -2.3972  0.0787  1.8453
 2340TIP3    H231216   0.141   1.545  17.474 -0.7261 -0.5105 -0.4552
 2341TIP3   OH231217   0.802   5.310  19.258  0.3789 -0.0053 -0.2530
 2341TIP3    H131218   0.730   5.371  19.244  1.3251  1.3204  0.4346
 2341TIP3    H231219   0.791   5.280  19.348  0.6611  0.1683 -0.1605
 2342TIP3   OH231220   4.275   3.543  19.181 -0.3054  0.3680  0.2980
 2342TIP3    H131221   4.269   3.507  19.093  0.1899 -0.0935  0.4480
 2342TIP3    H231222   4.368   3.539  19.203 -0.2222  1.7808  0.3103
 2343TIP3   OH231223   2.617   5.550  19.079 -0.4065 -0.5665 -0.3982
 2343TIP3    H131224   2.613   5.610  19.153 -0.0648  0.1839 -0.9705
 2343TIP3    H231225   2.569   5.472  19.108 -1.6782  0.3477  0.0197
 2344TIP3   OH231226   0.137   4.385  19.347  0.1430 -0.6030  0.1385
 2344TIP3    H131227   0.222   4.427  19.334  0.7664 -1.9690 -0.3585
 2344TIP3    H231228   0.118   4.342  19.264 -1.4782  0.4032 -0.0533
 2345TIP3   OH231229   1.584   1.564  18.158  0.0402 -0.3989  0.6704
 2345TIP3    H131230   1.524   1.608  18.097  0.1770 -0.7524  0.2707
 2345TIP3    H231231   1.552   1.587  18.245 -0.2685 -0.0320  0.4614
 2346TIP3   OH231232   4.532   2.460  18.051  0.0526  0.0280 -0.1631
 2346TIP3    H131233   4.599   2.405  18.092  2.1685  1.4659 -1.4370
 2346TIP3    H231234   4.461   2.400  18.029  1.4323 -1.8249  0.1640
 2347TIP3   OH231235   2.524   2.018  18.218  0.1165 -0.0765  0.0075
 2347TIP3    H131236   2.490   2.029  18.130  1.2551  0.2794 -0.4173
 2347TIP3    H231237   2.520   1.924  18.235 -2.6665  0.0932  0.6833
 2348TIP3   OH231238   1.995   2.756  17.721  0.1435 -0.2532  0.3512
 2348TIP3    H131239   2.032   2.835  17.761  1.7156 -0.8633  0.1686
 2348TIP3    H231240   2.048   2.685  17.757 -0.5981 -1.1275 -0.2621
 2349TIP3   OH231241   7.167   3.078  17.337  0.4630 -0.1693  0.1255
 2349TIP3    H131242   7.139   3.130  17.261  0.2957  0.4991  0.6306
 2349TIP3    H231243   7.101   3.097  17.404  1.0250 -0.1523  0.6808
 2350TIP3   OH231244   3.311   7.076  17.921  0.5359  0.1026  0.6643
 2350TIP3    H131245   3.376   7.138  17.890  1.3559 -1.5944 -1.2344
 2350TIP3    H231246   3.230   7.102  17.878  0.8452 -0.0428 -0.0084
 2351TIP3   OH231247   1.058   0.827  17.444  0.1163 -0.3322 -0.4186
 2351TIP3    H131248   1.052   0.790  17.356 -0.9909 -0.6176 -0.2352
 2351TIP3    H231249   1.114   0.767  17.492 -0.9249 -1.3178 -0.3793
 2352TIP3   OH231250   2.297   7.253  17.494  0.3178 -0.3251 -0.4129
 2352TIP3    H131251   2.261   7.322  17.550  0.3476 -0.6371 -0.0034
 2352TIP3    H231252   2.381   7.288  17.465  1.0743 -0.7990  1.0676
 2353TIP3   OH231253   0.007   5.432  17.832 -0.3487  0.5164 -0.2520
 2353TIP3    H131254  -0.017   5.351  17.787 -0.3142 -1.0211  2.2691
 2353TIP3    H231255  -0.063   5.446  17.895  1.4633  0.2248  1.9804
 2354TIP3   OH231256   4.706   5.697  18.929 -0.7583  0.8097 -0.9731
 2354TIP3    H131257   4.656   5.672  19.007  1.3961  1.6875  0.8114
 2354TIP3    H231258   4.648   5.756  18.881 -2.3561 -0.2133 -0.3647
 2355TIP3   OH231259   2.182   0.022  17.282 -0.4886 -0.5788  0.0394
 2355TIP3    H131260   2.093   0.045  17.255  0.1355 -0.2926 -1.8846
 2355TIP3    H231261   2.238   0.087  17.239  0.7876 -1.7344 -0.1088
 2356TIP3   OH231262   1.664   5.795  19.258 -0.1593 -0.5722  0.0845
 2356TIP3    H131263   1.732   5.734  19.228 -0.6388 -0.4406 -1.3294
 2356TIP3    H231264   1.586   5.770  19.210 -0.8790 -0.0840  0.9635
 2357TIP3   OH231265   0.470   5.768  17.182 -0.4494 -0.2812  0.4709
 2357TIP3    H131266   0.460   5.682  17.223  0.7992  0.1312  1.7138
 2357TIP3    H231267   0.416   5.763  17.103 -1.5830 -1.6849  1.2855
 2358TIP3   OH231268   6.799   3.393  17.879 -0.5112 -0.1030 -0.3082
 2358TIP3    H131269   6.840   3.431  17.957 -2.3463  1.6394 -0.1140
 2358TIP3    H231270   6.863   3.405  17.809  0.1306  0.6638  0.3969
 2359TIP3   OH231271   0.534   0.534  18.456 -0.2075  1.0736  0.2550
 2359TIP3    H131272   0.555   0.617  18.413 -1.8631  0.7063 -1.4351
 2359TIP3    H231273   0.526   0.471  18.384 -0.8059 -0.1284  1.3277
 2360TIP3   OH231274   2.930   0.406  16.674  0.3945 -0.3092 -0.3743
 2360TIP3    H131275   2.961   0.457  16.749 -0.7442 -0.5410  0.2804
 2360TIP3    H231276   2.843   0.441  16.655 -0.7116 -2.3920  0.5242
 2361TIP3   OH231277   4.213   0.277  18.149 -0.6564  0.2847 -0.0007
 2361TIP3    H131278   4.180   0.214  18.085 -2.1328  0.6253  0.3911
 2361TIP3    H231279   4.220   0.359  18.101 -2.5587  0.7377  0.4386
 2362TIP3   OH231280   2.171   2.138  19.179  0.5259 -0.0964 -0.2403
 2362TIP3    H131281   2.178   2.144  19.084  2.5754  0.3335 -0.1164
 2362TIP3    H231282   2.173   2.044  19.197  0.9590 -0.1583 -0.5889
 2363TIP3   OH231283   1.466   0.918  19.147 -0.2551 -0.2003  0.5593
 2363TIP3    H131284   1.417   0.989  19.187  0.5733  0.3212  0.6852
 2363TIP3    H231285   1.547   0.959  19.117  0.3098 -1.1238  0.7727
 2364TIP3   OH231286   6.588   5.948  18.157  0.4786 -0.6866 -0.8162
 2364TIP3    H131287   6.635   5.870  18.188  0.2952 -0.1726  0.8750
 2364TIP3    H231288   6.496   5.923  18.163  0.3687  0.0507  0.9389
 2365TIP3   OH231289   0.338   1.077  16.951  0.1402 -0.7033 -0.1898
 2365TIP3    H131290   0.349   1.148  16.888  0.6319  1.0920  1.8057
 2365TIP3    H231291   0.428   1.049  16.970 -0.0205 -1.4143 -0.4525
 2366TIP3   OH231292   4.021   0.999  18.000 -0.1033  0.4458 -0.0736
 2366TIP3    H131293   4.057   0.994  17.911  0.3022  0.5291  0.0840
 2366TIP3    H231294   3.959   1.073  17.996  0.5518  1.0065 -0.0691
 2367TIP3   OH231295   5.726   2.269  17.383  0.3757 -0.4421  0.5312
 2367TIP3    H131296   5.658   2.319  17.429  0.6476  1.2016 -0.7560
 2367TIP3    H231297   5.696   2.266  17.292  0.8623 -1.8122  0.3998
 2368TIP3   OH231298   5.515   1.055  17.520  0.3857 -0.1906 -0.2081
 2368TIP3    H131299   5.443   1.013  17.473  2.1746 -1.5502 -1.9546
 2368TIP3    H231300   5.535   0.996  17.593  0.8896 -0.7978 -0.8231
 2369TIP3   OH231301   2.661   4.526  18.323 -0.2208 -0.4483 -0.5016
 2369TIP3    H131302   2.576   4.538  18.366  0.8573  0.6647  1.4763
 2369TIP3    H231303   2.671   4.431  18.318 -0.6832 -0.6193  1.1948
 2370TIP3   OH231304   5.701   1.807  19.099 -0.0537 -0.2025  0.2341
 2370TIP3    H131305   5.657   1.840  19.021 -1.0536  2.5661  1.8256
 2370TIP3    H231306   5.774   1.868  19.113  0.2187 -0.7564  1.3511
 2371TIP3   OH231307   4.155   7.235  19.562  0.0542 -0.6653  0.1128
 2371TIP3    H131308   4.069   7.207  19.529  0.0658  0.6278 -1.1482
 2371TIP3    H231309   4.170   7.319  19.518  1.3091 -0.1557  1.4667
 2372TIP3   OH231310   2.976   5.527  17.745 -0.4294  0.2557  0.3622
 2372TIP3    H131311   2.933   5.610  17.722 -1.3850 -0.0936  0.8239
 2372TIP3    H231312   3.029   5.506  17.668 -1.6622  0.3377 -0.5504
 2373TIP3   OH231313   5.327   4.238  16.951  0.4553 -0.2916 -0.3436
 2373TIP3    H131314   5.355   4.296  16.880 -0.1155  1.2941  0.6691
 2373TIP3    H231315   5.408   4.202  16.987  0.8359  0.0239 -0.8733
 2374TIP3   OH231316   0.472   5.738  18.489  0.6634 -0.0554 -0.1308
 2374TIP3    H131317   0.509   5.826  18.477 -1.6314  1.5039  2.8096
 2374TIP3    H231318   0.547   5.684  18.512  1.7445  2.1784  2.2017
 2375TIP3   OH231319   6.489   3.663  17.590  0.1045  0.2232 -0.1690
 2375TIP3    H131320   6.396   3.645  17.572  0.8620 -1.9150 -2.5275
 2375TIP3    H231321   6.496   3.660  17.685 -1.9800 -1.1321  0.0086
 2376TIP3   OH231322   0.599   3.948  18.264 -0.4854 -0.0150 -0.3090
 2376TIP3    H131323   0.690   3.970  18.284 -0.9574  0.0944  1.9981
 2376TIP3    H231324   0.604   3.875  18.202  1.1783 -0.1681 -0.0234
 2377TIP3   OH231325   2.467   0.043  18.597  0.8764 -0.0700  0.6335
 2377TIP3    H131326   2.418  -0.035  18.623  1.9869 -0.8608  0.4116
 2377TIP3    H231327   2.443   0.058  18.506  1.5432 -0.8584  0.3163
 2378TIP3   OH231328   4.106   5.771  18.094 -0.0512 -0.3942 -0.4767
 2378TIP3    H131329   4.191   5.798  18.061  1.1098  0.2584  2.7798
 2378TIP3    H231330   4.088   5.688  18.048  1.6049  0.1721 -2.2775
 2379TIP3   OH231331   4.263   6.434  18.618 -0.2075  0.2798  0.1007
 2379TIP3    H131332   4.199   6.395  18.559  0.8157 -1.8250  0.2802
 2379TIP3    H231333   4.347   6.423  18.573  0.2905  0.9973  0.8146
 2380TIP3   OH231334   3.348   6.973  18.596  0.3882  0.5679 -0.0751
 2380TIP3    H131335   3.297   6.985  18.515 -0.6069 -0.5422  0.3524
 2380TIP3    H231336   3.426   7.027  18.583  0.6291 -0.1517 -2.0971
 2381TIP3   OH231337   6.070   6.826  18.323  0.6924 -0.3148  0.1090
 2381TIP3    H131338   5.987   6.831  18.371 -0.2048  1.5669 -1.5187
 2381TIP3    H231339   6.045   6.809  18.232  2.0555  0.7640 -0.5003
 2382TIP3   OH231340   2.073   2.502  17.118 -0.8536 -0.5250  0.1625
 2382TIP3    H131341   2.037   2.461  17.040  0.5564 -2.7866  0.5810
 2382TIP3    H231342   2.162   2.527  17.093 -0.5965 -0.7258  0.8427
 2383TIP3   OH231343   6.530   4.586  18.084  0.3944 -0.7420 -1.0794
 2383TIP3    H131344   6.608   4.533  18.096  0.6433  0.2622  2.9070
 2383TIP3    H231345   6.458   4.531  18.114  0.3578  0.2313  0.7393
 2384TIP3   OH231346   4.335   3.993  18.675  0.2259  0.2906  0.0269
 2384TIP3    H131347   4.402   4.008  18.609  0.7712  2.1410  0.9064
 2384TIP3    H231348   4.382   3.993  18.758 -0.6381 -0.3258  0.5417
 2385TIP3   OH231349   2.024   3.481  17.372  0.6115  0.2153  0.0064
 2385TIP3    H131350   1.978   3.538  17.434  0.1094 -0.8884  0.6891
 2385TIP3    H231351   1.955   3.445  17.316  0.8798  0.0206 -0.2009
 2386TIP3   OH231352   1.310   0.514  18.737  0.2525  0.0648  0.4896
 2386TIP3    H131353   1.348   0.438  18.693  1.6117  0.6235  0.6514
 2386TIP3    H231354   1.304   0.581  18.669  1.6663  0.6894  0.9393
 2387TIP3   OH231355   0.231   1.807  18.676  0.3787  0.2714 -0.2732
 2387TIP3    H131356   0.303   1.774  18.730  0.2843 -3.4752 -2.0777
 2387TIP3    H231357   0.152   1.780  18.722  0.2425  0.0615 -0.6249
 2388TIP3   OH231358   1.126   7.456  18.009 -0.0191 -0.2104  0.1463
 2388TIP3    H131359   1.184   7.388  18.043 -0.8763 -0.8320  0.3888
 2388TIP3    H231360   1.102   7.508  18.086  0.1339 -0.0133  0.0623
 2389TIP3   OH231361   4.006   2.689  17.080  0.3552 -0.1234  0.6998
 2389TIP3    H131362   4.084   2.692  17.024  0.9121 -2.0595  1.2556
 2389TIP3    H231363   4.005   2.598  17.112 -2.8390 -0.5342 -0.2665
 2390TIP3   OH231364   6.251   6.619  17.068  0.1579  0.0420  0.3324
 2390TIP3    H131365   6.167   6.621  17.021  0.4665  1.0918 -0.2013
 2390TIP3    H231366   6.313   6.582  17.005  0.5485  1.3497 -0.0880
 2391TIP3   OH231367   1.953   5.745  19.094  0.4544 -0.3201 -0.0258
 2391TIP3    H131368   2.030   5.799  19.113  2.2074 -2.1063 -1.4970
 2391TIP3    H231369   1.928   5.769  19.005 -1.1061  0.6683  0.6593
 2392TIP3   OH231370   1.541   3.329  17.099 -0.0512 -0.1065  0.2382
 2392TIP3    H131371   1.490   3.362  17.026  0.3503 -0.4879 -0.2233
 2392TIP3    H231372   1.488   3.349  17.177 -1.4022 -1.4152 -0.2973
 2393TIP3   OH231373   3.850   4.697  17.685  0.3172  0.4530  0.5808
 2393TIP3    H131374   3.865   4.740  17.601  0.8015 -1.5054 -0.3843
 2393TIP3    H231375   3.761   4.663  17.680  0.4447  0.0821  0.7289
 2394TIP3   OH231376   0.326   0.851  19.263 -0.3466  0.1151 -0.0794
 2394TIP3    H131377   0.389   0.800  19.314 -0.4580 -1.7808 -1.7297
 2394TIP3    H231378   0.350   0.835  19.172 -2.3391  0.5023 -0.7187
 2395TIP3   OH231379   7.199   5.025  17.696  0.0344 -0.2010  0.0355
 2395TIP3    H131380   7.224   5.113  17.725  2.0109 -1.1114  1.3435
 2395TIP3    H231381   7.137   4.995  17.762  1.1620 -0.6075  0.9665
 2396TIP3   OH231382   5.760   6.780  18.673 -0.1859 -0.0834  0.1123
 2396TIP3    H131383   5.793   6.797  18.584 -0.4642  1.1538  0.2253
 2396TIP3    H231384   5.798   6.695  18.696 -1.0994 -1.0524 -1.6530
 2397TIP3   OH231385   0.808   4.923  18.007 -1.0926 -0.5271  0.0071
 2397TIP3    H131386   0.759   4.935  17.925 -1.4995  0.7500  0.4124
 2397TIP3    H231387   0.740   4.918  18.074 -0.7498 -1.3175  0.2920
 2398TIP3   OH231388   4.519   6.414  18.469  0.5448 -0.0914 -0.3772
 2398TIP3    H131389   4.476   6.394  18.386  0.3009 -0.2932 -0.2024
 2398TIP3    H231390   4.580   6.484  18.448 -0.8679  1.1867 -0.3380
 2399TIP3   OH231391   0.492   0.265  18.782  0.6451 -0.2457 -0.0236
 2399TIP3    H131392   0.564   0.327  18.792  0.6238 -0.2116 -0.0811
 2399TIP3    H231393   0.445   0.268  18.865  0.6522 -0.1948 -0.0224
 2400TIP3   OH231394   5.880   5.404  18.646 -0.1670  0.3339 -0.4832
 2400TIP3    H131395   5.837   5.352  18.578  1.0867 -2.0911  0.4297
 2400TIP3    H231396   5.848   5.366  18.728  1.6434  0.1984  0.2159
 2401TIP3   OH231397   2.550   7.565  17.187  0.2133 -0.0443  0.6362
 2401TIP3    H131398   2.616   7.539  17.123 -1.4790 -0.8046 -0.8565
 2401TIP3    H231399   2.467   7.536  17.150 -1.1232  1.9749  1.8580
 2402TIP3   OH231400   7.566   4.007  16.769 -0.4495  0.5363 -0.1223
 2402TIP3    H131401   7.654   4.002  16.731 -0.5864  0.9954 -0.5095
 2402TIP3    H231402   7.554   4.099  16.791 -0.6913  0.4140  0.2877
 2403TIP3   OH231403   6.731   2.974  19.549 -0.1841 -0.5549 -0.2204
 2403TIP3    H131404   6.799   2.926  19.596 -0.5307 -0.8618 -0.0166
 2403TIP3    H231405   6.659   2.911  19.541 -0.2195 -0.4346 -0.9647
 2404TIP3   OH231406   6.571   6.049  17.844  0.0723 -0.1864 -0.5663
 2404TIP3    H131407   6.512   6.063  17.919  1.2464 -1.0369  0.5603
 2404TIP3    H231408   6.604   5.960  17.857  0.1796 -0.4098 -2.2043
 2405TIP3   OH231409   6.280   6.816  18.945 -0.2460  0.0295  0.6395
 2405TIP3    H131410   6.344   6.745  18.942  0.2022  0.4552 -1.0058
 2405TIP3    H231411   6.333   6.895  18.932 -1.1552  0.3100 -1.8670
 2406TIP3   OH231412   1.242   4.714  19.113  0.1599 -0.1564  0.6318
 2406TIP3    H131413   1.280   4.748  19.194 -0.6240 -1.2426  1.4730
 2406TIP3    H231414   1.147   4.720  19.127 -0.0700 -3.4723  1.2271
 2407TIP3   OH231415   2.524   5.177  17.272 -0.3985 -0.3334 -0.2636
 2407TIP3    H131416   2.477   5.204  17.352  1.4514  0.9355  0.4585
 2407TIP3    H231417   2.505   5.246  17.209 -0.6242 -0.5385 -0.4193
 2408TIP3   OH231418   4.816   6.738  18.747 -0.1398 -0.0183  0.0725
 2408TIP3    H131419   4.855   6.776  18.668 -0.4419  0.5415  0.1856
 2408TIP3    H231420   4.807   6.645  18.728  1.0651 -0.1312 -0.0365
 2409TIP3   OH231421   1.502   3.365  19.310 -0.2093 -0.2378  0.4633
 2409TIP3    H131422   1.591   3.360  19.276 -0.4040 -2.9982  0.1423
 2409TIP3    H231423   1.508   3.425  19.385  1.2142  2.0946 -1.3966
 2410TIP3   OH231424   3.758   2.854  18.667 -0.1894 -0.2502  0.3878
 2410TIP3    H131425   3.815   2.780  18.646 -0.8728 -1.1823  1.7156
 2410TIP3    H231426   3.669   2.821  18.650 -0.5060  0.2364  1.0629
 2411TIP3   OH231427   3.145   7.404  17.018  0.0909  0.0086 -0.0103
 2411TIP3    H131428   3.093   7.368  16.946 -0.4445  1.5608 -0.4459
 2411TIP3    H231429   3.231   7.422  16.979  0.8774 -2.1288  0.5950
 2412TIP3   OH231430   2.006   6.408  18.248  0.0993  1.0838 -0.2500
 2412TIP3    H131431   1.987   6.469  18.176  0.3330  0.8386 -0.5211
 2412TIP3    H231432   2.005   6.322  18.207 -2.2225  0.6938  0.4888
 2413TIP3   OH231433   3.989   6.342  18.952  0.1044 -0.1671 -0.4453
 2413TIP3    H131434   3.990   6.413  19.017  2.2515  0.8454 -1.4891
 2413TIP3    H231435   4.081   6.325  18.933 -0.4174 -2.0164 -1.5762
 2414TIP3   OH231436   1.230   1.864  17.233  0.0531  0.5349 -0.3182
 2414TIP3    H131437   1.148   1.833  17.271 -0.2755 -0.7082 -1.8954
 2414TIP3    H231438   1.204   1.936  17.176 -0.3273 -1.1544 -2.4105
 2415TIP3   OH231439   2.277   6.845  16.851 -0.0713  0.9218  0.0462
 2415TIP3    H131440   2.294   6.939  16.850 -0.0297  0.9153  0.1395
 2415TIP3    H231441   2.364   6.805  16.848 -0.0966  0.8842 -0.2171
 2416TIP3   OH231442   0.039   4.925  18.538  0.0825 -0.0048  0.3147
 2416TIP3    H131443  -0.022   4.999  18.538  0.9325  0.7695 -1.5557
 2416TIP3    H231444   0.119   4.962  18.575 -0.5529 -1.0569  2.9113
 2417TIP3   OH231445   2.618   4.791  19.058  0.7007 -0.0684  0.1137
 2417TIP3    H131446   2.589   4.731  18.989 -1.2438 -0.0442  0.8221
 2417TIP3    H231447   2.710   4.770  19.071  0.3792 -2.1149 -0.4685
 2418TIP3   OH231448   7.481   1.289  17.770 -0.2884  0.1736 -0.0535
 2418TIP3    H131449   7.572   1.303  17.796  0.4164 -1.8705 -1.1951
 2418TIP3    H231450   7.456   1.206  17.810 -2.2660  1.4645  1.6007
 2419TIP3   OH231451   2.002   5.080  19.397  0.5489  0.1345  0.4282
 2419TIP3    H131452   1.941   5.149  19.370  0.3045  0.1015  0.8883
 2419TIP3    H231453   2.075   5.127  19.438  1.2756  0.2356 -0.9249
 2420TIP3   OH231454   7.399   0.984  17.376 -0.0214 -0.1410  0.1664
 2420TIP3    H131455   7.415   1.076  17.395  1.0333 -0.3104  0.1156
 2420TIP3    H231456   7.482   0.940  17.392 -0.9349 -1.3746  1.9119
 2421TIP3   OH231457   3.385   6.797  18.176 -0.0733  0.0005 -0.3852
 2421TIP3    H131458   3.293   6.812  18.153 -0.0856 -0.0828 -0.3894
 2421TIP3    H231459   3.382   6.741  18.253 -0.0294  0.2205 -0.2218
 2422TIP3   OH231460   6.236   3.029  18.572  0.4075 -0.4018  0.0620
 2422TIP3    H131461   6.294   2.985  18.509  1.7938  1.0640  0.2363
 2422TIP3    H231462   6.148   3.006  18.543  1.0172 -0.5243 -1.8860
 2423TIP3   OH231463   4.741   2.519  16.695  0.1561  0.0915  0.1386
 2423TIP3    H131464   4.719   2.568  16.775  0.9209  1.0895 -0.2472
 2423TIP3    H231465   4.814   2.568  16.656 -0.7611  0.1244 -1.6337
 2424TIP3   OH231466   2.398   0.464  19.339  0.1852 -0.4185  0.7948
 2424TIP3    H131467   2.375   0.541  19.391 -0.2254 -1.3117  1.9795
 2424TIP3    H231468   2.469   0.422  19.388  0.7237 -0.5494 -0.0834
 2425TIP3   OH231469   3.621   3.951  17.670 -0.6323 -0.4572 -0.2838
 2425TIP3    H131470   3.622   4.039  17.632 -1.2961 -0.2662  0.1219
 2425TIP3    H231471   3.698   3.908  17.633 -0.6476  0.0866 -0.9689
 2426TIP3   OH231472   7.605   7.202  16.909  0.3720 -0.0987 -0.3785
 2426TIP3    H131473   7.559   7.232  16.988  0.3298 -1.3703  0.1067
 2426TIP3    H231474   7.668   7.271  16.890  1.2118 -0.2781  1.4924
 2427TIP3   OH231475   6.479   2.672  18.400  0.1777 -0.6631  0.1438
 2427TIP3    H131476   6.542   2.684  18.328 -0.2325 -2.4400 -0.5755
 2427TIP3    H231477   6.496   2.583  18.431 -0.3799 -0.2944  1.5551
 2428TIP3   OH231478   1.793   4.787  18.954 -0.4387 -0.3325 -0.1763
 2428TIP3    H131479   1.720   4.848  18.946 -0.2050 -0.1259 -0.8613
 2428TIP3    H231480   1.752   4.701  18.950 -0.6453 -0.2193 -0.6940
 2429TIP3   OH231481   0.306   7.549  17.731 -0.4299  0.7474 -0.5677
 2429TIP3    H131482   0.368   7.561  17.659 -0.4125  0.3024 -0.6286
 2429TIP3    H231483   0.326   7.462  17.766  0.7867  1.6607  1.1627
 2430TIP3   OH231484   4.919   7.633  16.931  0.0100  0.4946  0.1800
 2430TIP3    H131485   4.904   7.569  16.861  0.1702 -0.3036  0.8580
 2430TIP3    H231486   4.996   7.682  16.902 -0.9548  1.3746 -1.0260
 2431TIP3   OH231487   0.873   2.769  18.378  0.0940  0.0269 -0.0671
 2431TIP3    H131488   0.843   2.742  18.464 -1.0836  1.5771  0.0433
 2431TIP3    H231489   0.935   2.841  18.395  0.9101 -0.5595 -0.4761
 2432TIP3   OH231490   3.996   3.608  19.279 -0.1684 -0.2729  0.4632
 2432TIP3    H131491   4.040   3.547  19.339  1.2672  0.3105  0.0338
 2432TIP3    H231492   4.025   3.581  19.192 -1.3627 -0.4103  0.0884
 2433TIP3   OH231493   4.171   7.667  19.112  0.5110  0.4309 -0.4163
 2433TIP3    H131494   4.252   7.680  19.063 -0.9982  2.1147 -2.6801
 2433TIP3    H231495   4.170   7.739  19.175  1.5482 -0.6305  0.8784
 2434TIP3   OH231496   6.472   4.827  18.212 -0.0552 -0.4965 -0.3900
 2434TIP3    H131497   6.419   4.774  18.272  0.0838  0.1839  0.3441
 2434TIP3    H231498   6.505   4.764  18.148 -1.7930 -0.9332 -0.9188
 2435TIP3   OH231499   3.578   3.344  17.823  0.0427  0.1002 -0.8601
 2435TIP3    H131500   3.489   3.306  17.822  0.5227 -1.2024  0.8048
 2435TIP3    H231501   3.577   3.406  17.896  0.8917 -1.0707  0.1984
 2436TIP3   OH231502   1.799   0.176  18.350  0.1878 -0.1014  0.1172
 2436TIP3    H131503   1.706   0.193  18.363  0.0403  0.8787 -1.8223
 2436TIP3    H231504   1.834   0.259  18.315  1.6490 -0.6488  0.2107
 2437TIP3   OH231505   7.265   5.863  19.069 -0.0841  0.4629  0.5469
 2437TIP3    H131506   7.197   5.804  19.102  1.0314 -1.2200 -0.0414
 2437TIP3    H231507   7.228   5.901  18.989 -1.2727  1.5415  1.5576
 2438TIP3   OH231508   3.489   7.472  18.173  0.5281 -0.3795 -0.3326
 2438TIP3    H131509   3.428   7.422  18.227  0.7670 -3.8383 -2.9185
 2438TIP3    H231510   3.479   7.563  18.203 -1.9766 -1.5146  2.8552
 2439TIP3   OH231511   7.674   2.139  19.333  0.0901  0.1897 -0.1811
 2439TIP3    H131512   7.720   2.055  19.330  0.6122  0.4647  0.1036
 2439TIP3    H231513   7.581   2.115  19.341  0.2398 -0.3594 -0.0568
 2440TIP3   OH231514   5.890   6.759  17.613  0.2679  0.8260  0.6705
 2440TIP3    H131515   5.803   6.755  17.575  0.8357  0.0036 -0.6321
 2440TIP3    H231516   5.893   6.844  17.658 -1.7800  0.1244  2.2988
 2441TIP3   OH231517   4.257   6.186  17.974 -0.3243  0.5793 -0.2121
 2441TIP3    H131518   4.164   6.171  17.960 -0.3821 -1.3088  1.6003
 2441TIP3    H231519   4.280   6.256  17.914 -2.7768  0.6947 -1.1176
 2442TIP3   OH231520   7.005   7.383  18.957 -0.6203 -0.6110 -0.1520
 2442TIP3    H131521   6.991   7.289  18.973  0.2957 -0.9722 -1.3296
 2442TIP3    H231522   6.954   7.426  19.025 -3.1707 -1.9021 -1.1155
 2443TIP3   OH231523   6.228   4.334  17.296 -0.6018 -0.0686 -0.2897
 2443TIP3    H131524   6.316   4.297  17.296 -0.0192  0.9955  3.0780
 2443TIP3    H231525   6.238   4.422  17.261 -0.4125 -0.0888 -0.2838
 2444TIP3   OH231526   4.254   5.173  18.587 -0.2465  0.4401 -0.3314
 2444TIP3    H131527   4.295   5.208  18.508 -0.5374  1.3257 -0.1025
 2444TIP3    H231528   4.169   5.218  18.591 -0.6672 -0.3567 -0.0659
 2445TIP3   OH231529   6.461   6.541  17.625  1.0236 -0.7741  0.7197
 2445TIP3    H131530   6.407   6.606  17.580 -0.3275 -2.3990 -0.1115
 2445TIP3    H231531   6.526   6.514  17.560  1.8332 -0.0083  1.1906
 2446TIP3   OH231532   6.465   1.786  18.519  0.0578 -0.4356  0.3564
 2446TIP3    H131533   6.471   1.868  18.567 -1.0509 -0.0661 -0.1073
 2446TIP3    H231534   6.548   1.742  18.537  1.1804  1.2867 -0.3033
 2447TIP3   OH231535   0.901   0.857  16.884 -0.0764  0.1181 -0.1981
 2447TIP3    H131536   0.836   0.835  16.817  0.7079 -0.3062 -0.8344
 2447TIP3    H231537   0.954   0.778  16.894 -0.4919 -0.0104  1.3231
 2448TIP3   OH231538   6.471   7.598  17.462 -0.4974 -0.1045 -0.1630
 2448TIP3    H131539   6.472   7.590  17.367 -1.1607  1.1722 -0.3067
 2448TIP3    H231540   6.516   7.681  17.480  0.6945 -0.9148  0.7309
 2449TIP3   OH231541   2.048   1.249  18.952 -0.0846 -0.5821 -0.0068
 2449TIP3    H131542   2.138   1.216  18.943 -0.1210 -0.5563 -0.4846
 2449TIP3    H231543   2.051   1.338  18.918 -0.0644 -0.2020  0.9623
 2450TIP3   OH231544   6.965   4.033  19.651  0.0990 -0.3280  0.1569
 2450TIP3    H131545   6.886   4.032  19.704 -0.4905  0.9349 -0.6616
 2450TIP3    H231546   6.973   4.123  19.620  0.5738 -0.9512 -1.6527
 2451TIP3   OH231547   6.628   2.593  18.752  0.7077  0.1531 -0.2498
 2451TIP3    H131548   6.716   2.555  18.746  1.2819  1.5103 -1.0050
 2451TIP3    H231549   6.644   2.687  18.763 -0.6422  0.6563 -2.1432
 2452TIP3   OH231550   0.661   0.144  17.833  0.4329  0.5786 -0.1853
 2452TIP3    H131551   0.704   0.062  17.858 -1.5542 -2.0515 -4.2137
 2452TIP3    H231552   0.694   0.163  17.745 -2.6918  1.2229 -1.3724
 2453TIP3   OH231553   7.653   6.553  18.942 -0.0986  0.3539  0.3398
 2453TIP3    H131554   7.630   6.536  19.033 -0.9372  0.9259  0.2511
 2453TIP3    H231555   7.617   6.479  18.893  0.2636  0.0973  0.4623
 2454TIP3   OH231556   5.550   5.060  17.762  0.2447  1.0515 -0.3139
 2454TIP3    H131557   5.589   5.132  17.812 -0.5329  0.4253  1.2846
 2454TIP3    H231558   5.557   4.985  17.820  0.2774  0.0228 -1.6228
 2455TIP3   OH231559   0.092   1.110  18.530  0.1469  0.1851 -0.2020
 2455TIP3    H131560   0.001   1.103  18.559 -0.2742  0.6948 -1.3330
 2455TIP3    H231561   0.091   1.177  18.462  1.4764  0.5978  0.1508
 2456TIP3   OH231562   2.397   1.904  19.095  0.6614  0.0651 -0.4440
 2456TIP3    H131563   2.476   1.850  19.088  0.4060 -0.3467 -0.2308
 2456TIP3    H231564   2.428   1.989  19.126  0.7705 -0.8260  2.1438
 2457TIP3   OH231565   1.031   6.743  19.178  0.3120  0.2720  0.1719
 2457TIP3    H131566   0.939   6.716  19.175  0.3535 -0.2512  2.0823
 2457TIP3    H231567   1.059   6.743  19.087 -1.1927 -0.9780 -0.3390
 2458TIP3   OH231568   7.179   5.345  17.446 -0.3531 -0.1835  0.0855
 2458TIP3    H131569   7.104   5.379  17.495 -1.2399 -0.8574 -0.7819
 2458TIP3    H231570   7.153   5.351  17.354  0.7041 -0.3277 -0.2404
 2459TIP3   OH231571   6.241   0.145  17.582  0.3590  0.1585  0.2148
 2459TIP3    H131572   6.322   0.096  17.601  1.2364  1.5686  0.2912
 2459TIP3    H231573   6.242   0.156  17.487  0.6218  0.7655  0.2849
 2460TIP3   OH231574   7.139   2.260  19.055  0.0560  0.2108  0.1762
 2460TIP3    H131575   7.167   2.328  19.116  1.7737 -0.4144  0.1347
 2460TIP3    H231576   7.068   2.215  19.100 -1.0782  1.9555  0.2373
 2461TIP3   OH231577   0.441   4.569  18.948 -0.0891 -0.0857  0.0996
 2461TIP3    H131578   0.398   4.541  19.029 -1.1197  0.6119 -0.1920
 2461TIP3    H231579   0.530   4.591  18.975 -0.2060 -0.5723  0.9107
 2462TIP3   OH231580   2.154   3.477  17.772 -0.0244 -0.5348  0.2764
 2462TIP3    H131581   2.237   3.435  17.751  0.5563  0.9028 -0.4751
 2462TIP3    H231582   2.173   3.571  17.767 -1.6702 -0.1806  0.1457
 2463TIP3   OH231583   1.350   0.299  17.714  0.1040  0.1578 -0.1838
 2463TIP3    H131584   1.280   0.236  17.697 -0.3381  0.7133 -0.4508
 2463TIP3    H231585   1.317   0.355  17.784  1.3221 -1.1688  1.5381
 2464TIP3   OH231586   4.315   7.451  18.465 -0.1475 -0.2322 -0.2572
 2464TIP3    H131587   4.333   7.361  18.492 -0.6743 -0.5962 -1.0670
 2464TIP3    H231588   4.220   7.455  18.458 -0.2416  0.8040  1.1099
 2465TIP3   OH231589   7.259   6.948  18.457 -0.8088 -0.1823 -0.1555
 2465TIP3    H131590   7.181   7.000  18.479 -0.8702 -0.6450  0.7654
 2465TIP3    H231591   7.318   6.962  18.531  0.4179  0.9713 -1.3081
 2466TIP3   OH231592   0.085   2.611  17.549 -0.2449 -0.4520  0.1834
 2466TIP3    H131593   0.065   2.653  17.466 -0.0364  1.7606  1.1734
 2466TIP3    H231594   0.142   2.539  17.527  1.4090  1.2610 -1.4602
 2467TIP3   OH231595   2.441   1.929  17.944 -0.0570 -0.2310 -0.6966
 2467TIP3    H131596   2.431   1.988  17.869  0.5701 -1.4835 -1.8074
 2467TIP3    H231597   2.466   1.845  17.905  1.1237 -0.7005  0.9701
 2468TIP3   OH231598   6.024   6.221  19.116  0.3684  0.7359  0.0006
 2468TIP3    H131599   6.014   6.298  19.060  0.9013  1.8828  1.4185
 2468TIP3    H231600   5.962   6.157  19.080 -1.3617  2.4381 -0.1900
 2469TIP3   OH231601   3.024   3.835  19.573 -0.3532  0.4268  0.2094
 2469TIP3    H131602   3.065   3.919  19.551  1.4378 -1.2591 -3.9326
 2469TIP3    H231603   2.931   3.851  19.562 -0.1608  2.1782  0.7702
 2470TIP3   OH231604   3.138   3.973  19.130 -0.2240  0.2152  0.2613
 2470TIP3    H131605   3.091   3.907  19.182 -0.9614  0.1410 -0.4710
 2470TIP3    H231606   3.180   3.923  19.060 -0.2842  0.4442  0.0582
 2471TIP3   OH231607   1.946   0.461  17.222  0.7696  0.4834 -0.0753
 2471TIP3    H131608   1.864   0.462  17.174  1.4520  1.1319 -1.2699
 2471TIP3    H231609   1.931   0.399  17.294 -0.4884 -0.0148 -0.7363
 2472TIP3   OH231610   4.805   3.790  19.393  0.2573  0.3669  0.0129
 2472TIP3    H131611   4.841   3.792  19.482 -1.2721 -2.7894  0.8528
 2472TIP3    H231612   4.715   3.819  19.403 -0.2096 -0.9138 -0.2790
 2473TIP3   OH231613   1.440   1.263  19.060 -0.0768  0.2599 -0.2473
 2473TIP3    H131614   1.482   1.278  18.975  0.9466 -1.1645 -0.0359
 2473TIP3    H231615   1.509   1.280  19.124  0.0682 -1.5382  0.1370
 2474TIP3   OH231616   5.186   7.628  18.190  0.4208 -0.2857  0.6916
 2474TIP3    H131617   5.238   7.703  18.220  2.3920 -0.7769 -1.2941
 2474TIP3    H231618   5.138   7.661  18.114  0.6884 -0.8195  0.2844
 2475TIP3   OH231619   0.490   1.674  19.120 -0.6197  0.1368  0.4680
 2475TIP3    H131620   0.471   1.588  19.157 -0.0240 -0.1630  0.0931
 2475TIP3    H231621   0.493   1.733  19.195 -0.1638 -0.3282  0.8156
 2476TIP3   OH231622   2.517   5.836  18.318  0.4218 -0.2898 -0.4984
 2476TIP3    H131623   2.581   5.884  18.370  0.2457  1.2184 -1.6171
 2476TIP3    H231624   2.552   5.747  18.314 -0.2780 -0.9219  3.3498
 2477TIP3   OH231625   6.672   2.513  17.510  0.2112  0.1536 -0.1414
 2477TIP3    H131626   6.617   2.590  17.524  1.0659  0.4966  1.5053
 2477TIP3    H231627   6.664   2.495  17.416 -0.4483  1.9048 -0.4566
 2478TIP3   OH231628   2.235   5.118  18.062 -0.1014 -0.6288  0.3016
 2478TIP3    H131629   2.233   5.213  18.074  0.8010 -0.5052 -0.3450
 2478TIP3    H231630   2.253   5.083  18.149  0.1956 -0.1575  0.4331
 2479TIP3   OH231631   4.428   3.520  17.442 -0.4497 -0.3755 -0.1635
 2479TIP3    H131632   4.336   3.523  17.416 -0.4910 -0.7603 -0.0786
 2479TIP3    H231633   4.427   3.484  17.531 -0.2162 -0.4226 -0.1787
 2480TIP3   OH231634   3.852   5.598  18.337 -0.5789 -0.1654  0.5153
 2480TIP3    H131635   3.892   5.685  18.336 -2.1631  0.5860  0.0896
 2480TIP3    H231636   3.796   5.599  18.415  0.4126 -1.3254  1.2932
 2481TIP3   OH231637   6.749   3.273  18.523  0.0587  0.0595 -0.7373
 2481TIP3    H131638   6.745   3.197  18.464 -0.7220 -0.4585 -0.0418
 2481TIP3    H231639   6.670   3.323  18.503  0.1176  0.2171 -0.5768
 2482TIP3   OH231640   4.149   0.625  17.099  0.0501 -0.2584  0.1020
 2482TIP3    H131641   4.087   0.651  17.031  0.4191 -1.6710 -0.8304
 2482TIP3    H231642   4.096   0.616  17.178 -0.6257  0.1692 -0.2909
 2483TIP3   OH231643   7.147   3.082  18.833 -0.1868 -0.6995  0.0537
 2483TIP3    H131644   7.088   3.051  18.764  1.2473 -3.0721 -0.2255
 2483TIP3    H231645   7.224   3.026  18.826  0.1893 -0.8136  3.3549
 2484TIP3   OH231646   0.602   5.454  19.753  0.3387 -0.6436  0.1061
 2484TIP3    H131647   0.575   5.411  19.672  1.1782  0.1856 -0.6397
 2484TIP3    H231648   0.617   5.545  19.728  0.4269 -0.3347  1.2383
 2485TIP3   OH231649   7.276   4.713  18.505 -0.8156 -0.4695  0.3359
 2485TIP3    H131650   7.278   4.774  18.579  0.7148  0.2012 -0.2209
 2485TIP3    H231651   7.253   4.768  18.430 -0.9450 -0.8796  0.0771
 2486TIP3   OH231652   0.445   1.938  17.008  0.4408 -0.3772  0.0041
 2486TIP3    H131653   0.472   1.982  17.089 -2.2688 -1.0547  1.4186
 2486TIP3    H231654   0.446   2.007  16.942  0.2571  0.8471  1.2292
 2487TIP3   OH231655   6.653   4.689  18.539  0.0317 -0.1765 -0.6762
 2487TIP3    H131656   6.679   4.643  18.459 -0.2845 -0.7527 -0.4509
 2487TIP3    H231657   6.599   4.626  18.586 -0.1406  0.3157 -0.2098
 2488TIP3   OH231658   0.805   4.241  18.595  0.2532  0.3486  0.3414
 2488TIP3    H131659   0.866   4.233  18.669  0.6491  2.0960  0.2387
 2488TIP3    H231660   0.843   4.185  18.527  2.4414  2.2173 -0.1179
 2489TIP3   OH231661   4.425   4.593  19.220 -0.1179  0.2233  0.0882
 2489TIP3    H131662   4.459   4.505  19.209 -0.1453  0.0865  1.0166
 2489TIP3    H231663   4.330   4.584  19.217 -0.1185  0.2405  0.0444
 2490TIP3   OH231664   7.265   5.062  19.274 -0.3139  0.4162 -0.3147
 2490TIP3    H131665   7.229   5.063  19.363  0.5251  2.1544  0.0484
 2490TIP3    H231666   7.207   5.003  19.225 -1.7214  0.6412  1.0072
 2491TIP3   OH231667   5.283   2.131  18.369 -0.2001 -0.6118  0.0696
 2491TIP3    H131668   5.357   2.120  18.429 -0.1069  0.1453  0.1012
 2491TIP3    H231669   5.315   2.097  18.286  0.2387 -0.1715  0.0512
 2492TIP3   OH231670   7.529   7.173  19.120  0.2023  0.6653  0.1395
 2492TIP3    H131671   7.571   7.242  19.068  2.2270 -0.4223  0.2561
 2492TIP3    H231672   7.566   7.092  19.087 -1.3058 -0.3213  0.7691
 2493TIP3   OH231673   3.488   5.289  16.781 -0.4637  0.8866  0.6202
 2493TIP3    H131674   3.544   5.212  16.784 -2.0322 -0.3572 -0.1260
 2493TIP3    H231675   3.545   5.359  16.749  0.7953 -0.1749  0.4467
 2494TIP3   OH231676   1.580   4.260  17.398  0.0912  0.1243 -0.6014
 2494TIP3    H131677   1.629   4.315  17.338  1.5187 -0.4828 -0.0407
 2494TIP3    H231678   1.594   4.171  17.366  1.4389 -0.2827  0.9355
 2495TIP3   OH231679   3.092   5.296  18.705  0.1970  0.2124  0.1904
 2495TIP3    H131680   3.017   5.304  18.646 -0.0764  0.0100  0.5087
 2495TIP3    H231681   3.098   5.381  18.748  1.0390  0.7217 -0.8809
 2496TIP3   OH231682   6.707   2.682  18.238 -0.0927 -0.3397  0.3487
 2496TIP3    H131683   6.662   2.643  18.164  1.6711 -0.6851 -0.5860
 2496TIP3    H231684   6.695   2.777  18.226 -1.1697 -0.4356  0.5428
 2497TIP3   OH231685   5.643   6.748  18.149 -0.5248  0.2424 -0.2015
 2497TIP3    H131686   5.595   6.680  18.195  0.5734  0.3403  1.1410
 2497TIP3    H231687   5.598   6.829  18.171  0.9679  0.5006  2.1511
 2498TIP3   OH231688   0.103   5.668  18.318  0.2636 -0.4821 -0.3356
 2498TIP3    H131689   0.066   5.708  18.239 -1.7090  2.1323  1.7382
 2498TIP3    H231690   0.063   5.581  18.322 -2.2098  0.5770 -0.5475
 2499TIP3   OH231691   0.877   3.936  16.464  0.2713 -0.1037  0.4245
 2499TIP3    H131692   0.878   4.031  16.475  0.5266 -0.1526  0.8419
 2499TIP3    H231693   0.965   3.908  16.487 -0.3126 -0.6332  2.1557
 2500TIP3   OH231694   3.288   3.831  18.932 -0.1084 -0.0806 -0.2439
 2500TIP3    H131695   3.356   3.892  18.906  0.4246 -0.5697 -0.0080
 2500TIP3    H231696   3.241   3.812  18.851  1.0334 -0.9715 -0.7127
 2501TIP3   OH231697   6.329   6.306  17.724 -0.2688 -0.2786  0.2755
 2501TIP3    H131698   6.369   6.273  17.804  0.4559  1.5568  0.7110
 2501TIP3    H231699   6.353   6.399  17.721 -2.4589  0.3164 -0.7219
 2502TIP3   OH231700   0.535   6.011  16.827  0.3100 -0.1410  0.2477
 2502TIP3    H131701   0.553   6.020  16.921 -0.3142  0.7383  0.2998
 2502TIP3    H231702   0.619   5.985  16.789  0.6425 -0.2118  1.0134
 2503TIP3   OH231703   3.813   1.570  18.300  0.3514 -0.0511  0.0767
 2503TIP3    H131704   3.879   1.543  18.365  0.3959 -2.1669 -0.7792
 2503TIP3    H231705   3.735   1.519  18.322 -0.2574  0.6661 -0.3681
 2504TIP3   OH231706   4.482   0.349  19.455 -1.0052 -0.0004 -0.4416
 2504TIP3    H131707   4.481   0.298  19.374 -1.4035 -0.6977 -0.0061
 2504TIP3    H231708   4.442   0.433  19.431  0.2495  0.3705 -1.3171
 2505TIP3   OH231709   4.975   1.840  18.140  0.3891 -0.4324 -0.2590
 2505TIP3    H131710   4.984   1.932  18.165  0.6802 -0.5608  0.1270
 2505TIP3    H231711   4.897   1.837  18.085  0.8856  0.1924 -1.0041
 2506TIP3   OH231712   4.533   1.827  17.341 -0.6510 -0.0603 -0.8172
 2506TIP3    H131713   4.502   1.737  17.351 -1.5694  0.3484  0.3230
 2506TIP3    H231714   4.606   1.822  17.280  1.4930 -2.0741  1.6782
 2507TIP3   OH231715   6.972   5.000  17.838 -0.2774  0.1312 -0.0436
 2507TIP3    H131716   6.877   5.008  17.847 -0.3725  1.4421 -1.7938
 2507TIP3    H231717   7.007   5.065  17.899 -0.5208  0.1828  0.0432
 2508TIP3   OH231718   4.096   6.328  18.442  0.0821  0.4175  0.6202
 2508TIP3    H131719   4.046   6.255  18.477 -0.1502  0.3089  0.0719
 2508TIP3    H231720   4.155   6.288  18.378  0.6591  0.5831  1.0449
 2509TIP3   OH231721   4.677   7.117  18.704  0.1712  0.4501 -0.2039
 2509TIP3    H131722   4.745   7.088  18.764  0.9238 -1.0862 -1.7349
 2509TIP3    H231723   4.626   7.038  18.685  0.3717  0.7240 -2.0756
 2510TIP3   OH231724   3.689   1.557  18.030  0.3860 -0.5397 -0.6198
 2510TIP3    H131725   3.652   1.503  18.099  0.4105 -0.5391 -0.6052
 2510TIP3    H231726   3.772   1.588  18.066 -0.4434  0.9781  0.0818
 2511TIP3   OH231727   4.497   4.188  17.776  0.1772  0.0653 -0.2023
 2511TIP3    H131728   4.449   4.171  17.695 -0.0169  1.2400 -0.3495
 2511TIP3    H231729   4.531   4.103  17.802  1.1101 -0.1896 -2.0694
 2512TIP3   OH231730   3.972   1.174  18.348 -0.4092  0.2963 -0.1996
 2512TIP3    H131731   4.058   1.216  18.343 -0.0142 -0.5490 -0.8286
 2512TIP3    H231732   3.949   1.156  18.257 -0.1207 -1.6909  0.0843
 2513TIP3   OH231733   1.575   7.077  18.838  0.2589  0.2299  0.2228
 2513TIP3    H131734   1.591   7.056  18.930  0.9074  1.9497  0.5402
 2513TIP3    H231735   1.566   6.992  18.795 -0.6786 -0.5944  1.9706
 2514TIP3   OH231736   3.999   2.445  18.069 -0.0425 -1.0510 -0.1995
 2514TIP3    H131737   3.958   2.408  18.147 -0.9004 -3.1308 -1.5307
 2514TIP3    H231738   3.954   2.401  17.996 -0.7008  2.2581 -1.9718
 2515TIP3   OH231739   3.994   6.160  17.945 -0.4336  0.2196 -0.3625
 2515TIP3    H131740   3.969   6.083  17.895  1.2722 -0.0633 -0.8716
 2515TIP3    H231741   3.946   6.232  17.904 -0.2611 -0.2421 -1.4126
 2516TIP3   OH231742   7.317   3.140  17.771  0.0741 -0.0017  0.0425
 2516TIP3    H131743   7.402   3.107  17.801  0.5448  1.0437 -0.0670
 2516TIP3    H231744   7.331   3.161  17.678 -0.1195  0.7277  0.1711
 2517TIP3   OH231745   0.622   3.261  18.194  0.2028 -0.3570 -0.4391
 2517TIP3    H131746   0.621   3.336  18.254 -0.1682  0.0334 -0.9312
 2517TIP3    H231747   0.576   3.291  18.116  1.8978 -0.3920 -1.5050
 2518TIP3   OH231748   6.023   3.296  18.499  0.3679  0.1820  0.0152
 2518TIP3    H131749   6.079   3.345  18.559  1.1607  0.6292 -1.0687
 2518TIP3    H231750   5.934   3.323  18.523  0.6383  0.1343  1.1654
 2519TIP3   OH231751   4.660   6.654  18.417  0.3763  0.0723 -0.0460
 2519TIP3    H131752   4.689   6.698  18.338  0.4905  0.1252  0.0250
 2519TIP3    H231753   4.638   6.724  18.478  1.8382  0.0486  0.5388
 2520TIP3   OH231754   1.552   6.731  18.938 -0.2627  0.0781  0.1543
 2520TIP3    H131755   1.496   6.791  18.987  0.4494  1.5250 -0.7078
 2520TIP3    H231756   1.494   6.660  18.911 -1.7118  1.5023 -0.6725
 2521TIP3   OH231757   0.400   1.013  18.951 -0.0223  0.6925 -0.1877
 2521TIP3    H131758   0.426   1.021  18.859  2.2671 -0.2794  0.3082
 2521TIP3    H231759   0.389   0.919  18.965 -1.7908  0.9207  0.2255
 2522TIP3   OH231760   3.279   1.163  19.314  0.1878 -0.0382 -0.1733
 2522TIP3    H131761   3.213   1.172  19.383 -0.3644 -0.8038 -0.5885
 2522TIP3    H231762   3.342   1.232  19.332 -1.4478  1.6172 -0.5714
 2523TIP3   OH231763   3.222   2.699  18.183  0.1427 -0.2418 -0.0595
 2523TIP3    H131764   3.183   2.642  18.250  0.3027 -0.0523  0.1969
 2523TIP3    H231765   3.299   2.652  18.153  2.0369  1.1327  2.3089
 2524TIP3   OH231766   2.485   7.439  17.788  0.1597 -0.3560  0.0003
 2524TIP3    H131767   2.503   7.372  17.854 -0.1731  1.4573  2.0771
 2524TIP3    H231768   2.395   7.421  17.760  0.6878 -1.8189 -0.8475
 2525TIP3   OH231769   1.951   7.375  17.717 -0.6297  0.7941  0.1383
 2525TIP3    H131770   1.903   7.457  17.715 -0.9971  0.5644 -1.2910
 2525TIP3    H231771   1.894   7.313  17.671  0.7701  0.3801 -1.0886
 2526TIP3   OH231772   0.220   6.456  18.107  0.4603 -0.1395  0.1241
 2526TIP3    H131773   0.306   6.416  18.097  1.5997  2.2143 -0.2418
 2526TIP3    H231774   0.184   6.457  18.018  0.6876  0.1834  0.0347
 2527TIP3   OH231775   5.397   2.955  19.300 -0.1612 -0.5600  0.3664
 2527TIP3    H131776   5.330   2.963  19.367  0.1250  0.8166  0.5225
 2527TIP3    H231777   5.476   2.992  19.340  0.0310  0.2363 -0.6894
 2528TIP3   OH231778   0.924   3.207  18.942  0.6080  0.0302  0.5567
 2528TIP3    H131779   0.946   3.168  18.857  0.5489 -1.0793  1.0437
 2528TIP3    H231780   0.999   3.187  18.998  0.0736 -0.4075  1.1335
 2529TIP3   OH231781   4.141   3.095  19.824  0.0716  0.4434 -0.5280
 2529TIP3    H131782   4.188   3.146  19.890  0.2759  1.5389 -1.4977
 2529TIP3    H231783   4.210   3.051  19.775 -0.1193 -2.2523  1.3493
 2530TIP3   OH231784   3.903   2.186  19.060  0.4122 -0.0690  0.2900
 2530TIP3    H131785   3.812   2.209  19.045  0.4562 -0.7617 -1.1370
 2530TIP3    H231786   3.903   2.091  19.069  0.8920  0.0004  1.1866
 2531TIP3   OH231787   0.318   6.186  18.110 -0.0728 -0.2932  0.2381
 2531TIP3    H131788   0.391   6.210  18.168 -1.1508  1.4028  0.9595
 2531TIP3    H231789   0.360   6.148  18.033  1.5651  0.3647  0.7695
 2532TIP3   OH231790   2.692   2.618  18.254  0.0005 -0.6139  0.0575
 2532TIP3    H131791   2.728   2.672  18.324  0.7154 -1.1945  0.1435
 2532TIP3    H231792   2.611   2.582  18.290 -0.7668  0.8108 -0.1829
 2533TIP3   OH231793   5.957   7.240  18.260 -0.6131 -0.1910 -0.5734
 2533TIP3    H131794   5.940   7.318  18.312 -0.4615 -1.4667  1.5033
 2533TIP3    H231795   6.052   7.237  18.250 -0.7371  1.2039 -2.9117
 2534TIP3   OH231796   3.355   2.754  17.155 -0.1123  0.5403 -0.0353
 2534TIP3    H131797   3.265   2.720  17.159  0.3468 -0.6105  2.5391
 2534TIP3    H231798   3.346   2.847  17.177 -0.7080  0.5519 -0.3040
 2535TIP3   OH231799   7.601   2.449  17.327  0.1676  0.2830 -0.2821
 2535TIP3    H131800   7.535   2.434  17.395 -0.6548 -0.0495 -1.1326
 2535TIP3    H231801   7.592   2.542  17.306  1.1981  0.6529  0.8376
 2536TIP3   OH231802   6.550   5.118  17.673 -0.1719  0.0807  0.0021
 2536TIP3    H131803   6.456   5.124  17.692 -0.0034 -0.3099  1.0301
 2536TIP3    H231804   6.586   5.069  17.746  0.7970 -0.0501 -0.5439
 2537TIP3   OH231805   2.663   1.571  18.089 -0.0245  0.4003  0.8148
 2537TIP3    H131806   2.731   1.636  18.105  0.2426 -0.2648  2.5980
 2537TIP3    H231807   2.669   1.553  17.995  2.6641 -0.0816  1.0056
 2538TIP3   OH231808   7.104   3.133  17.950  0.4864  0.1926 -0.2358
 2538TIP3    H131809   7.029   3.154  17.895 -0.3374 -0.2336  0.6974
 2538TIP3    H231810   7.179   3.139  17.891 -0.2210  1.0711 -1.0810
 2539TIP3   OH231811   2.889   5.577  19.217  0.0736  0.2750 -0.8550
 2539TIP3    H131812   2.877   5.487  19.190  2.0464  0.1836 -1.5622
 2539TIP3    H231813   2.802   5.616  19.210 -0.7637 -1.4842 -0.7525
 2540TIP3   OH231814   4.082   2.564  19.641  0.2369  0.0280 -0.1009
 2540TIP3    H131815   4.026   2.642  19.639 -0.1522 -0.2301  0.4297
 2540TIP3    H231816   4.163   2.594  19.682 -0.1567  0.0094  0.7174
 2541TIP3   OH231817   1.233   3.756  17.511  0.1239  0.1741  0.4081
 2541TIP3    H131818   1.257   3.663  17.515 -0.6194 -0.0454 -0.0031
 2541TIP3    H231819   1.159   3.764  17.571 -1.3902 -0.0291 -1.3283
 2542TIP3   OH231820   3.783   2.007  17.138 -0.1512 -0.2213  0.3421
 2542TIP3    H131821   3.783   2.006  17.042 -1.1407  0.9086  0.3156
 2542TIP3    H231822   3.825   2.089  17.162  2.9114 -1.8224  0.9809
 2543TIP3   OH231823   5.075   4.257  16.696  0.1849  0.5412 -0.4228
 2543TIP3    H131824   5.118   4.211  16.623 -0.5954  0.3304 -0.7502
 2543TIP3    H231825   4.991   4.286  16.660 -1.2696 -1.5842  1.0306
 2544TIP3   OH231826   5.653   1.516  18.874  0.0097 -0.6634 -0.1284
 2544TIP3    H131827   5.583   1.500  18.937 -0.1698  0.2218 -0.0837
 2544TIP3    H231828   5.690   1.600  18.902  0.1945 -0.4622 -0.9656
 2545TIP3   OH231829   2.090   5.756  17.180  0.1029  0.1458 -0.0184
 2545TIP3    H131830   2.065   5.664  17.173  0.6844 -0.0039 -0.2038
 2545TIP3    H231831   2.093   5.786  17.089  1.6166 -0.1287 -0.0854
 2546TIP3   OH231832   1.638   0.424  18.245 -0.3353 -0.2972  0.2965
 2546TIP3    H131833   1.573   0.355  18.257  0.2392 -0.6941  1.3004
 2546TIP3    H231834   1.680   0.403  18.162 -0.7318 -0.6861  0.1893
 2547TIP3   OH231835   3.898   0.193  19.115 -0.4543  0.0700  0.3322
 2547TIP3    H131836   3.835   0.235  19.056 -1.1187 -0.6317  0.5318
 2547TIP3    H231837   3.911   0.106  19.077 -1.1877 -0.5333  1.4280
 2548TIP3   OH231838   1.365   5.304  18.981  0.4953 -0.3208 -0.4959
 2548TIP3    H131839   1.339   5.219  18.947  2.2621 -0.2801 -2.1424
 2548TIP3    H231840   1.435   5.285  19.044  1.1028 -0.1121 -1.0891
 2549TIP3   OH231841   0.490   4.137  19.089 -0.8972 -0.5983  0.0104
 2549TIP3    H131842   0.553   4.104  19.026 -0.8081  0.7356 -0.6270
 2549TIP3    H231843   0.431   4.063  19.105  0.5421 -1.7227  0.2847
 2550TIP3   OH231844   3.591   7.603  17.427 -0.1475 -0.5854  0.2688
 2550TIP3    H131845   3.517   7.577  17.483 -0.9151  0.8909 -0.0027
 2550TIP3    H231846   3.571   7.694  17.403  2.7634  0.5875  1.8179
 2551TIP3   OH231847   3.087   6.511  19.384  0.2058  0.1726  0.1144
 2551TIP3    H131848   3.081   6.596  19.427 -0.2965  0.2590 -0.1195
 2551TIP3    H231849   3.129   6.454  19.448  0.7200  0.6449  0.1983
 2552TIP3   OH231850   5.274   0.036  18.665 -0.3446 -0.2825 -0.0625
 2552TIP3    H131851   5.367   0.023  18.643 -0.5389 -0.8399 -0.5955
 2552TIP3    H231852   5.266   0.006  18.755 -0.0186 -0.3003 -0.0388
 2553TIP3   OH231853   4.602   4.088  18.832  0.1696  0.0875 -0.0198
 2553TIP3    H131854   4.531   4.030  18.859  0.3174 -0.0463  0.0822
 2553TIP3    H231855   4.650   4.107  18.913 -1.2027  2.2080  0.4031
 2554TIP3   OH231856   2.935   5.790  18.901  0.0303 -0.1198  0.0834
 2554TIP3    H131857   2.871   5.839  18.952  0.1107  0.7230 -0.5937
 2554TIP3    H231858   3.008   5.774  18.961  0.3210  1.2479  0.1301
 2555TIP3   OH231859   0.346   3.788  18.660 -0.0342  0.0608 -0.1165
 2555TIP3    H131860   0.358   3.865  18.605  0.1150  0.1179 -0.0077
 2555TIP3    H231861   0.407   3.801  18.733 -0.8904  0.4233  0.5429
 2556TIP3   OH231862   3.210   4.946  19.482  0.0745 -0.1464 -0.1617
 2556TIP3    H131863   3.132   4.894  19.502 -0.4479  0.6441 -0.0676
 2556TIP3    H231864   3.176   5.033  19.462  0.9809  0.3972  0.5569
 2557TIP3   OH231865   7.630   3.332  17.039 -0.2982  0.5396 -0.2305
 2557TIP3    H131866   7.606   3.425  17.034  4.6629  2.1373  0.1010
 2557TIP3    H231867   7.716   3.327  16.997  1.4546 -3.0811  3.0824
 2558TIP3   OH231868   4.875   0.554  18.982  0.4405 -0.0388 -0.0563
 2558TIP3    H131869   4.897   0.617  18.914  0.5816 -1.5925 -1.5145
 2558TIP3    H231870   4.904   0.596  19.063  2.6961  0.8032 -1.2084
 2559TIP3   OH231871   7.550   5.367  17.252 -0.3341 -0.0603  0.4145
 2559TIP3    H131872   7.637   5.326  17.258 -0.6645 -1.0213 -0.8422
 2559TIP3    H231873   7.511   5.328  17.173 -0.8094  2.4495 -0.6945
 2560TIP3   OH231874   1.577   3.776  18.540  0.4388 -0.0332 -0.3080
 2560TIP3    H131875   1.537   3.860  18.561  0.2148 -0.2741  0.2316
 2560TIP3    H231876   1.649   3.767  18.602  0.6143 -0.1316 -0.5246
 2561TIP3   OH231877   0.825   5.503  17.724 -0.1420  0.0499 -0.0168
 2561TIP3    H131878   0.876   5.441  17.775 -0.5054 -2.7287 -2.7713
 2561TIP3    H231879   0.887   5.540  17.661 -0.6901 -0.3265 -0.7885
 2562TIP3   OH231880   6.203   1.410  18.622  0.1072 -0.3895 -0.3338
 2562TIP3    H131881   6.159   1.394  18.538 -0.1982 -1.5030  0.0204
 2562TIP3    H231882   6.294   1.428  18.599 -0.2575  0.7062 -0.9933
 2563TIP3   OH231883   2.849   5.212  18.956 -0.0349 -0.8126 -0.2157
 2563TIP3    H131884   2.841   5.292  18.904  1.2583 -0.8059 -0.4259
 2563TIP3    H231885   2.850   5.243  19.047  0.9432 -0.5370 -0.3137
 2564TIP3   OH231886   0.582   2.851  19.263  0.3796  0.0839 -0.4440
 2564TIP3    H131887   0.579   2.791  19.188  0.4791 -1.0564  0.4189
 2564TIP3    H231888   0.675   2.856  19.285  0.2672 -0.3704  0.1767
 2565TIP3   OH231889   1.672   3.992  17.626  0.2599  0.3064  0.0802
 2565TIP3    H131890   1.589   3.949  17.607  0.9958 -1.1785  0.0469
 2565TIP3    H231891   1.722   3.983  17.544  1.5026 -1.4535  0.9468
 2566TIP3   OH231892   4.840   7.081  17.129  0.1422 -0.3866 -0.1556
 2566TIP3    H131893   4.835   7.170  17.092  0.5927 -0.1122  0.4336
 2566TIP3    H231894   4.790   7.088  17.211  2.4704  0.0594  1.2975
 2567TIP3   OH231895   5.731   2.002  17.611 -0.2792  0.7283 -0.0313
 2567TIP3    H131896   5.787   2.030  17.540  0.6231 -0.3237  0.2411
 2567TIP3    H231897   5.716   2.081  17.663  1.0095  1.0145 -0.0714
 2568TIP3   OH231898   6.734   2.141  17.856  0.0876 -0.2977  0.2446
 2568TIP3    H131899   6.688   2.161  17.937 -0.5708  0.3010 -0.2522
 2568TIP3    H231900   6.766   2.226  17.825 -2.8946  0.1805 -2.0005
 2569TIP3   OH231901   5.219   7.204  16.981  0.2660 -0.4101 -0.5643
 2569TIP3    H131902   5.249   7.293  17.002  1.0314 -1.2293  2.3432
 2569TIP3    H231903   5.264   7.182  16.900  0.5498  1.6071 -1.0220
 2570TIP3   OH231904   3.287   3.518  19.295 -0.5263 -0.6829  0.0008
 2570TIP3    H131905   3.321   3.596  19.339 -1.1379 -0.8859  0.8621
 2570TIP3    H231906   3.365   3.467  19.273 -0.0585  0.5084 -1.2666
 2571TIP3   OH231907   4.647   4.612  19.054  0.1958  0.2713 -0.2434
 2571TIP3    H131908   4.569   4.619  19.109  0.2056  0.4483 -0.2506
 2571TIP3    H231909   4.634   4.531  19.005  1.0185 -0.8504  1.3141
 2572TIP3   OH231910   7.410   7.594  18.533  0.3975  0.2168  0.6275
 2572TIP3    H131911   7.485   7.653  18.520  0.7934 -0.6962 -1.6205
 2572TIP3    H231912   7.447   7.517  18.575  0.3840  0.4257  1.0343
 2573TIP3   OH231913   5.152   2.053  17.906  0.3491  0.0917  0.3787
 2573TIP3    H131914   5.152   1.957  17.912  1.3555 -0.0480 -1.1150
 2573TIP3    H231915   5.119   2.071  17.818 -1.4875  1.2339  1.2371
 2574TIP3   OH231916   4.270   4.972  18.786  0.0185 -0.1911 -0.1862
 2574TIP3    H131917   4.252   5.046  18.729 -0.5641 -0.0133  0.2174
 2574TIP3    H231918   4.359   4.945  18.763  0.1078  0.4112 -0.5771
 2575TIP3   OH231919   3.390   2.821  16.898 -0.2624  0.2978  0.0747
 2575TIP3    H131920   3.360   2.773  16.975 -0.0541  0.7478  0.4394
 2575TIP3    H231921   3.319   2.882  16.878 -0.0726  0.5800  0.2579
 2576TIP3   OH231922   3.047   0.703  17.695  0.1002  0.1122 -0.1815
 2576TIP3    H131923   2.972   0.760  17.710  0.8402  0.8354  0.8956
 2576TIP3    H231924   3.053   0.695  17.600 -0.9522  0.5473 -0.2987
 2577TIP3   OH231925   3.093   7.198  18.120 -0.0313 -0.0889 -0.6503
 2577TIP3    H131926   3.103   7.110  18.084  2.1724 -0.4292  0.6425
 2577TIP3    H231927   3.074   7.184  18.213  1.2357  0.7601 -0.2349
 2578TIP3   OH231928   3.077   6.468  18.301 -0.0989 -0.4370 -0.3159
 2578TIP3    H131929   3.033   6.458  18.216  0.3836  1.6879 -0.8776
 2578TIP3    H231930   3.011   6.441  18.365 -1.0836 -0.4029 -1.2882
 2579TIP3   OH231931   4.515   5.360  17.714 -0.8378 -0.3504 -0.1476
 2579TIP3    H131932   4.507   5.293  17.782 -1.1323 -2.6035 -2.2681
 2579TIP3    H231933   4.442   5.420  17.730 -0.9856 -0.9000  1.3926
 2580TIP3   OH231934   0.769   7.331  16.611  0.0307 -0.7146  0.3251
 2580TIP3    H131935   0.792   7.283  16.531 -0.9054 -0.1082 -0.3322
 2580TIP3    H231936   0.691   7.382  16.587  0.9621  1.1100  0.9889
 2581TIP3   OH231937   4.708   1.169  19.112 -0.3043 -0.4984 -0.0432
 2581TIP3    H131938   4.624   1.174  19.157 -0.1148 -1.2861  0.4215
 2581TIP3    H231939   4.731   1.076  19.115 -0.0431 -0.5039 -1.3352
 2582TIP3   OH231940   7.197   0.222  17.260  0.0420 -0.0241  0.0602
 2582TIP3    H131941   7.163   0.141  17.222  0.5336  0.3826 -1.3312
 2582TIP3    H231942   7.276   0.241  17.209  0.6170  0.6917  1.1692
 2583TIP3   OH231943   2.595   3.274  18.301 -0.2684 -0.4975 -0.1239
 2583TIP3    H131944   2.603   3.338  18.230  2.3119  0.2786  0.7483
 2583TIP3    H231945   2.664   3.298  18.363 -0.4717 -2.9700  1.1892
 2584TIP3   OH231946   6.379   0.559  18.723 -0.0681 -0.2017  0.5283
 2584TIP3    H131947   6.320   0.484  18.732 -2.2253  1.3870  0.5754
 2584TIP3    H231948   6.366   0.590  18.634  0.4088  0.4166  0.6640
 2585TIP3   OH231949   1.960   0.566  18.523 -0.2427 -0.4575  0.0765
 2585TIP3    H131950   2.055   0.555  18.529 -0.3922 -1.7631  0.2820
 2585TIP3    H231951   1.939   0.626  18.595  0.3973 -0.3240  0.1574
 2586TIP3   OH231952   2.076   3.214  17.487  0.0355 -0.0782 -0.2729
 2586TIP3    H131953   2.079   3.301  17.527 -1.5523 -0.5363  0.9656
 2586TIP3    H231954   2.048   3.230  17.397 -1.6626  0.6340  0.3414
 2587TIP3   OH231955   2.926   0.439  18.723 -0.5482 -0.1308 -0.5090
 2587TIP3    H131956   2.833   0.417  18.714 -0.2654 -1.8737  0.5336
 2587TIP3    H231957   2.945   0.427  18.816  0.2200  2.4694 -0.2421
 2588TIP3   OH231958   1.973   0.971  16.750  0.0176 -0.5061  0.3330
 2588TIP3    H131959   1.982   1.028  16.826 -0.2360  0.0823 -0.0648
 2588TIP3    H231960   1.883   0.939  16.755 -0.3287  0.3251 -0.2417
 2589TIP3   OH231961   2.585   0.148  17.297  0.4351 -0.0116 -0.4793
 2589TIP3    H131962   2.578   0.065  17.249  1.9726 -1.2617  1.3015
 2589TIP3    H231963   2.660   0.191  17.256  0.1811  0.1076 -0.8294
 2590TIP3   OH231964   1.025   3.954  19.135  0.1221  0.2632  0.4884
 2590TIP3    H131965   0.942   3.912  19.156  0.3442 -0.9573 -0.9613
 2590TIP3    H231966   1.090   3.883  19.137  1.1436  1.1816  1.5445
 2591TIP3   OH231967   1.378   2.074  18.153  0.1669 -0.1582  0.5395
 2591TIP3    H131968   1.456   2.019  18.164 -0.4015 -1.1065 -0.0448
 2591TIP3    H231969   1.304   2.015  18.168 -0.4579  0.3783 -0.3070
 2592TIP3   OH231970   3.005   5.709  16.532  0.1793  0.1466  0.3066
 2592TIP3    H131971   3.005   5.768  16.457 -0.7054  0.4189  0.5103
 2592TIP3    H231972   2.912   5.691  16.548  0.3720 -0.0742  1.1985
 2593TIP3   OH231973   6.517   3.576  18.166  0.3793 -0.6108 -0.1535
 2593TIP3    H131974   6.523   3.482  18.151  1.6245 -0.4433 -0.8075
 2593TIP3    H231975   6.594   3.597  18.220  0.5906  0.1568 -0.7365
 2594TIP3   OH231976   3.608   5.919  19.322  0.4782 -0.4560  0.6694
 2594TIP3    H131977   3.667   5.985  19.287 -0.8995 -0.1192 -1.1826
 2594TIP3    H231978   3.615   5.845  19.262 -1.1080 -0.3164  0.2538
 2595TIP3   OH231979   3.701   7.459  17.093  0.0337 -0.3707  0.9069
 2595TIP3    H131980   3.742   7.452  17.007 -1.3980  0.9117  0.0868
 2595TIP3    H231981   3.759   7.410  17.151  0.5934 -1.9920 -0.9233
 2596TIP3   OH231982   7.504   3.187  18.957 -0.5347  0.0657  0.1717
 2596TIP3    H131983   7.558   3.255  18.916 -0.4367 -0.1005  0.0217
 2596TIP3    H231984   7.458   3.232  19.027  0.0507  0.1381  0.5166
 2597TIP3   OH231985   0.736   1.779  19.018  0.1199  0.6604 -0.1665
 2597TIP3    H131986   0.708   1.837  19.089  0.4297  0.5239  0.0757
 2597TIP3    H231987   0.671   1.710  19.017  1.1723 -0.4335  1.3506
 2598TIP3   OH231988   5.721   5.008  18.605 -0.0394 -0.2972  0.2081
 2598TIP3    H131989   5.740   4.943  18.537  1.3451  1.1214 -0.8104
 2598TIP3    H231990   5.688   5.084  18.557 -1.2285 -0.0609  1.3454
 2599TIP3   OH231991   0.477   6.503  16.232 -0.3926 -0.2587  0.4216
 2599TIP3    H131992   0.403   6.504  16.171  0.5514 -1.9687 -0.8292
 2599TIP3    H231993   0.448   6.448  16.304 -0.7565  0.0449  0.5137
 2600TIP3   OH231994   7.587   6.404  17.520  0.2977 -0.2282  0.0534
 2600TIP3    H131995   7.505   6.428  17.564  1.2417  0.7716  1.3125
 2600TIP3    H231996   7.652   6.401  17.589  1.6585  0.5619 -1.1537
 2601TIP3   OH231997   2.150   3.412  19.072 -0.4654  0.6913 -0.4229
 2601TIP3    H131998   2.092   3.337  19.082  1.7002 -1.0327  0.0519
 2601TIP3    H231999   2.184   3.428  19.160 -0.3218  1.7544 -0.6579
 2602TIP3   OH232000   4.415   4.578  17.119 -0.0782 -0.9475 -0.7308
 2602TIP3    H132001   4.442   4.494  17.157  0.5724 -1.2914 -1.9003
 2602TIP3    H232002   4.337   4.557  17.068 -1.6098 -0.2846  1.2167
 2603TIP3   OH232003   5.313   7.253  18.757  0.4413 -0.1973 -0.0318
 2603TIP3    H132004   5.373   7.238  18.684  1.6041  0.2401  0.7974
 2603TIP3    H232005   5.366   7.238  18.835 -0.3282  0.9344  0.7371
 2604TIP3   OH232006   2.299   0.587  18.890  0.1587  0.9601 -0.3395
 2604TIP3    H132007   2.305   0.547  18.977 -0.0856 -1.3432 -1.3115
 2604TIP3    H232008   2.388   0.616  18.870  0.1751  1.7097  0.7427
 2605TIP3   OH232009   0.681   0.984  18.756  0.6393  0.7095 -0.1010
 2605TIP3    H132010   0.719   1.048  18.817 -2.0590  1.9131  0.4484
 2605TIP3    H232011   0.680   1.030  18.672 -0.0301  0.8874 -0.0011
 2606TIP3   OH232012   2.876   4.119  18.658 -0.0636  0.7209 -0.2789
 2606TIP3    H132013   2.841   4.049  18.713  1.1399 -0.4830 -0.9768
 2606TIP3    H232014   2.908   4.074  18.580 -0.1287  2.1805 -1.1919
 2607TIP3   OH232015   5.484   2.171  18.826  0.2387  0.3501 -0.0669
 2607TIP3    H132016   5.389   2.167  18.832  0.3297 -0.7178  1.2881
 2607TIP3    H232017   5.506   2.116  18.751 -0.1802  0.0779  0.0103
 2608TIP3   OH232018   0.358   4.535  17.845  0.0719 -0.9136 -0.3060
 2608TIP3    H132019   0.433   4.475  17.851  0.8551  0.1904  2.4048
 2608TIP3    H232020   0.300   4.509  17.916 -0.4533  0.3929 -0.2312
 2609TIP3   OH232021   3.585   1.661  19.455 -0.4419  0.5855  0.2695
 2609TIP3    H132022   3.567   1.646  19.362  1.6302  0.6850 -0.2054
 2609TIP3    H232023   3.525   1.731  19.480 -1.1900  0.4074 -0.9311
 2610TIP3   OH232024   2.253   5.051  18.364  0.1419  0.7648  0.2455
 2610TIP3    H132025   2.191   5.122  18.378 -0.9059 -0.1737  0.5341
 2610TIP3    H232026   2.317   5.060  18.434 -1.0237  0.3523  1.4058
 2611TIP3   OH232027   3.962   5.841  17.861  0.9966 -0.2254  0.1513
 2611TIP3    H132028   3.941   5.751  17.835  3.0449 -0.2941 -1.5309
 2611TIP3    H232029   4.013   5.831  17.942  4.1936 -0.9780 -1.7745
 2612TIP3   OH232030   1.507   6.510  17.352 -0.6370 -0.6739  0.1522
 2612TIP3    H132031   1.599   6.483  17.342 -0.0946 -0.4613  3.4099
 2612TIP3    H232032   1.504   6.597  17.311  0.6041 -0.6932 -0.0380
 2613TIP3   OH232033   5.745   0.402  17.458  0.4072  0.1383  0.1670
 2613TIP3    H132034   5.814   0.466  17.469  2.0609 -1.6474  0.6766
 2613TIP3    H232035   5.778   0.322  17.500 -2.3079 -0.5752  1.1740
 2614TIP3   OH232036   5.820   5.762  17.792 -0.1601  0.4440  0.1614
 2614TIP3    H132037   5.867   5.834  17.750  2.6504 -1.6226 -0.5077
 2614TIP3    H232038   5.847   5.765  17.883 -1.3047  1.1239  0.5043
 2615TIP3   OH232039   2.535   5.456  17.696  0.7541 -0.5448 -0.2420
 2615TIP3    H132040   2.446   5.482  17.718  1.1207  0.4908  0.0699
 2615TIP3    H232041   2.529   5.362  17.675 -0.5056 -0.3396 -0.8353
 2616TIP3   OH232042   5.151   3.680  17.581  0.0849  0.5817  0.2467
 2616TIP3    H132043   5.133   3.616  17.513 -0.2826  0.7263  0.2046
 2616TIP3    H232044   5.064   3.710  17.609  0.2465  0.9088  0.4052
 2617TIP3   OH232045   7.132   0.368  19.365 -0.0908 -0.4106  0.1775
 2617TIP3    H132046   7.190   0.378  19.290  1.0331 -0.1055  1.0564
 2617TIP3    H232047   7.083   0.450  19.368  0.4279 -0.0960  0.2353
 2618TIP3   OH232048   4.633   3.787  18.298  0.0204  0.7669 -0.4971
 2618TIP3    H132049   4.712   3.797  18.245  0.9753  2.6450  1.1074
 2618TIP3    H232050   4.588   3.711  18.262  1.9318  0.3959 -2.2605
 2619TIP3   OH232051   7.392   1.810  17.684  0.0664 -0.0213  0.6649
 2619TIP3    H132052   7.306   1.773  17.665  0.1229  0.3273 -0.3369
 2619TIP3    H232053   7.386   1.841  17.774 -1.4334  1.5762  0.0725
 2620TIP3   OH232054   5.786   1.300  18.319 -0.2969 -0.4231  0.0497
 2620TIP3    H132055   5.705   1.319  18.272  0.3344  0.0902 -0.8754
 2620TIP3    H232056   5.758   1.261  18.401 -1.5223  0.9565  0.3302
 2621TIP3   OH232057   7.280   6.184  17.553 -0.4812  0.3095  0.1495
 2621TIP3    H132058   7.308   6.219  17.637  0.7051 -0.4635  0.0972
 2621TIP3    H232059   7.190   6.216  17.543 -0.2447  1.3770  1.1554
 2622TIP3   OH232060   2.202   2.783  18.779 -0.0767  0.3356 -0.1704
 2622TIP3    H132061   2.272   2.844  18.756  1.5470 -0.7236  1.6783
 2622TIP3    H232062   2.206   2.776  18.874 -2.8715  0.3556  0.0442
 2623TIP3   OH232063   2.050   0.071  19.363 -0.4237 -0.2943  0.2766
 2623TIP3    H132064   2.136   0.106  19.340 -0.3920 -0.8943 -0.5182
 2623TIP3    H232065   2.039  -0.005  19.307 -1.4431 -0.2665  0.4301
 2624TIP3   OH232066   3.160   5.795  19.045 -0.5286 -0.1216  0.3123
 2624TIP3    H132067   3.214   5.875  19.045  0.5022 -0.7297 -1.9105
 2624TIP3    H232068   3.217   5.729  19.083 -0.3999 -0.3347 -0.2351
 2625TIP3   OH232069   1.023   5.653  17.588 -0.4362 -0.4493 -0.3191
 2625TIP3    H132070   1.074   5.583  17.547 -0.5349 -0.4711 -0.4044
 2625TIP3    H232071   1.082   5.690  17.654  0.4621  0.8890 -1.7945
 2626TIP3   OH232072   1.351   2.881  18.141  0.3457 -0.3582 -0.4054
 2626TIP3    H132073   1.444   2.872  18.121  0.2872 -0.5266 -0.6169
 2626TIP3    H232074   1.333   2.975  18.132  0.6175 -0.2449  0.2093
 2627TIP3   OH232075   0.970   2.902  19.093 -0.4960 -0.3675 -0.1144
 2627TIP3    H132076   1.062   2.918  19.117 -0.3240 -2.5629  0.9257
 2627TIP3    H232077   0.957   2.955  19.014  1.4022  0.6721  0.1953
 2628TIP3   OH232078   3.079   5.710  18.697  0.5839 -0.0689 -0.6234
 2628TIP3    H132079   3.020   5.735  18.769  1.0643 -1.8662  0.4420
 2628TIP3    H232080   3.020   5.697  18.623  0.0833  1.8713 -0.6240
 2629TIP3   OH232081   5.082   6.484  19.325 -0.0030 -0.7438 -0.3675
 2629TIP3    H132082   5.167   6.516  19.354 -0.2907  0.1731 -0.4993
 2629TIP3    H232083   5.101   6.402  19.278  0.6766 -1.1264  0.5521
 2630TIP3   OH232084   5.881   2.339  18.378 -0.1974 -0.2168 -0.2210
 2630TIP3    H132085   5.789   2.362  18.367 -0.6505 -1.4003  0.8385
 2630TIP3    H232086   5.884   2.244  18.371  1.0553 -0.1506 -0.8981
 2631TIP3   OH232087   2.353   0.947  18.976  0.1166  0.2777 -0.8987
 2631TIP3    H132088   2.409   0.884  18.931  0.2538  0.0365 -0.3986
 2631TIP3    H232089   2.393   1.032  18.958  1.3252  0.0241  0.3934
 2632TIP3   OH232090   5.621   3.450  19.481  0.1669  0.1574 -0.1089
 2632TIP3    H132091   5.592   3.507  19.409  0.7611  0.7858  0.1400
 2632TIP3    H232092   5.575   3.482  19.558  0.4071  0.2301  0.0072
 2633TIP3   OH232093   5.141   4.796  18.232 -0.0681  0.0589  0.5546
 2633TIP3    H132094   5.094   4.862  18.182 -1.5818 -0.0447  1.7654
 2633TIP3    H232095   5.116   4.812  18.323  2.1891 -0.0843  1.2752
 2634TIP3   OH232096   1.945   1.614  18.940 -0.2072  0.1359 -0.5293
 2634TIP3    H132097   1.885   1.689  18.946 -0.3043 -0.0454  1.4723
 2634TIP3    H232098   2.031   1.651  18.960  0.1689  0.1322 -2.0044
 2635TIP3   OH232099   3.517   0.433  16.889  0.5885 -0.1415  0.2037
 2635TIP3    H132100   3.612   0.431  16.895  0.6441  0.8331 -0.2402
 2635TIP3    H232101   3.499   0.449  16.796  0.0549  2.2340  0.6622
 2636TIP3   OH232102   0.694   3.417  17.229  0.1825  0.0526  0.3548
 2636TIP3    H132103   0.722   3.368  17.306  1.8152 -1.1111 -0.9071
 2636TIP3    H232104   0.768   3.474  17.208  0.7874 -1.2993 -1.6030
 2637TIP3   OH232105   3.172   6.690  18.830  0.0270 -0.2771 -0.4842
 2637TIP3    H132106   3.214   6.623  18.776 -0.3130 -1.5389  0.7694
 2637TIP3    H232107   3.120   6.641  18.894 -0.0952  1.1835  0.5896
 2638TIP3   OH232108   5.710   2.357  19.534 -0.1732 -0.6716  0.1547
 2638TIP3    H132109   5.780   2.336  19.596 -0.2746  1.0878  0.9501
 2638TIP3    H232110   5.740   2.438  19.492 -0.8260 -1.0047 -0.9811
 2639TIP3   OH232111   0.521   1.446  17.874  0.4290  0.4059  0.2185
 2639TIP3    H132112   0.606   1.490  17.882  0.2260  0.6784  1.0303
 2639TIP3    H232113   0.466   1.509  17.828  0.9429 -0.1852 -1.2334
 2640TIP3   OH232114   0.940   3.194  18.630 -0.2696  0.2659  0.0742
 2640TIP3    H132115   0.850   3.227  18.639 -1.0628 -1.7016 -0.0224
 2640TIP3    H232116   0.974   3.237  18.552 -1.0931  1.1156  0.1646
 2641TIP3   OH232117   4.522   0.753  17.725 -0.2318  0.0508  0.3297
 2641TIP3    H132118   4.540   0.788  17.638 -1.3129  1.6107  0.6961
 2641TIP3    H232119   4.520   0.658  17.713 -1.6792  0.2687 -1.6390
 2642TIP3   OH232120   2.496   4.636  18.865 -0.6040  0.1037 -0.2255
 2642TIP3    H132121   2.497   4.702  18.797 -1.6559  0.3999  0.0362
 2642TIP3    H232122   2.506   4.553  18.818  1.8485  0.4480 -0.4732
 2643TIP3   OH232123   1.644   3.442  18.506  0.5504  0.0098  0.2388
 2643TIP3    H132124   1.693   3.360  18.504  0.8861  0.2189 -1.5174
 2643TIP3    H232125   1.664   3.484  18.423  0.2649  1.8253  1.0372
 2644TIP3   OH232126   0.510   3.842  18.857  0.5769 -0.5132 -0.5457
 2644TIP3    H132127   0.553   3.928  18.860  1.9621 -1.1868  0.1034
 2644TIP3    H232128   0.539   3.799  18.938 -1.7304 -0.8597  0.1527
 2645TIP3   OH232129   3.094   3.414  17.776  0.1313 -0.1414 -0.2770
 2645TIP3    H132130   3.132   3.502  17.775 -1.3947  0.5508 -0.7858
 2645TIP3    H232131   3.022   3.419  17.713 -1.0093 -1.2795  0.8835
 2646TIP3   OH232132   6.196   0.632  18.021 -0.3384 -0.0610  0.2793
 2646TIP3    H132133   6.185   0.706  17.963  1.2203  0.1541  0.2288
 2646TIP3    H232134   6.149   0.560  17.978  0.2527  0.2563 -0.9196
 2647TIP3   OH232135   5.335   6.949  18.054  0.0873 -0.0506  0.3475
 2647TIP3    H132136   5.426   6.979  18.065  0.3626 -1.0453  0.8645
 2647TIP3    H232137   5.341   6.878  17.989 -0.5257  0.8092 -0.6883
 2648TIP3   OH232138   4.544   7.483  16.654  0.2296 -0.1344 -0.0990
 2648TIP3    H132139   4.600   7.530  16.592 -0.1203  0.6064  0.1388
 2648TIP3    H232140   4.584   7.396  16.660  2.0686  0.7085  0.9430
 2649TIP3   OH232141   3.554   1.414  18.238 -0.8086 -0.3072 -0.2441
 2649TIP3    H132142   3.472   1.457  18.214 -1.6890 -1.9757 -0.3903
 2649TIP3    H232143   3.528   1.343  18.297  0.4280 -1.3818 -0.9318
 2650TIP3   OH232144   2.337   4.335  18.319  0.5401  0.0388  0.6031
 2650TIP3    H132145   2.396   4.331  18.395  1.5212 -1.5803 -0.1873
 2650TIP3    H232146   2.381   4.284  18.251 -1.4407 -0.6415 -0.2639
 2651TIP3   OH232147   6.504   4.218  19.224  0.9189  0.1535  0.3715
 2651TIP3    H132148   6.537   4.132  19.248  0.0493 -0.2003  0.3380
 2651TIP3    H232149   6.472   4.207  19.135 -0.7916  0.0359  0.9692
 2652TIP3   OH232150   0.331   3.136  19.008  0.4463 -0.0368 -0.1633
 2652TIP3    H132151   0.353   3.042  19.011  1.6581  0.1530 -1.6152
 2652TIP3    H232152   0.369   3.172  19.088 -0.1650 -0.7872  0.4916
 2653TIP3   OH232153   2.170   6.036  17.157  0.0704  0.0270 -0.4033
 2653TIP3    H132154   2.112   5.971  17.197  0.7548 -0.7932 -0.7184
 2653TIP3    H232155   2.126   6.062  17.076 -0.4056  0.2779 -0.0700
 2654TIP3   OH232156   7.620   5.761  18.091  0.4675 -0.1225  0.0541
 2654TIP3    H132157   7.644   5.732  18.003  1.5248 -0.0443  0.3026
 2654TIP3    H232158   7.543   5.816  18.078  0.9993  0.4354 -0.9072
 2655TIP3   OH232159   1.660   5.766  17.869 -0.5701  0.1116 -0.2551
 2655TIP3    H132160   1.753   5.757  17.889 -0.8759  0.0998  1.2703
 2655TIP3    H232161   1.656   5.839  17.807  0.4606  0.0871 -0.3683
 2656TIP3   OH232162   4.273   0.236  16.819 -0.5905  0.3026  0.1634
 2656TIP3    H132163   4.319   0.300  16.874 -1.8713 -0.0242  1.6978
 2656TIP3    H232164   4.338   0.168  16.801  0.2589  1.1208  0.0545
 2657TIP3   OH232165   2.146   1.927  17.496 -0.1672  0.6359  0.2374
 2657TIP3    H132166   2.213   1.932  17.428 -1.5144  2.3306 -1.0429
 2657TIP3    H232167   2.112   1.838  17.489  1.0381  0.1788  0.0158
 2658TIP3   OH232168   5.651   4.516  19.050  0.2362  0.8917 -0.2087
 2658TIP3    H132169   5.712   4.489  18.981 -0.4670  1.0419 -0.9034
 2658TIP3    H232170   5.566   4.485  19.019  0.0641 -0.0675  1.1608
 2659TIP3   OH232171   0.340   0.340  18.552  0.2036  0.5354 -0.6519
 2659TIP3    H132172   0.411   0.400  18.529  0.4125  1.0717  1.2514
 2659TIP3    H232173   0.370   0.295  18.630 -0.8255 -0.5569 -0.8554
 2660TIP3   OH232174   0.333   0.854  18.323 -0.1198 -0.5429  0.3877
 2660TIP3    H132175   0.251   0.827  18.365 -0.4539  3.2376  2.6435
 2660TIP3    H232176   0.313   0.853  18.230 -2.2741 -1.1038  0.7850
 2661TIP3   OH232177   6.147   1.628  19.785  0.4177  0.0921  0.2049
 2661TIP3    H132178   6.156   1.637  19.880 -0.5033 -2.7972  0.6574
 2661TIP3    H232179   6.061   1.586  19.773  0.9830 -0.5821 -1.8325
 2662TIP3   OH232180   1.949   6.606  18.618  0.1311 -0.3875  0.2673
 2662TIP3    H132181   1.886   6.539  18.590  0.1397 -0.5731  0.6965
 2662TIP3    H232182   1.986   6.638  18.536  0.6586 -1.4218  0.0835
 2663TIP3   OH232183   4.135   6.601  18.298 -0.2071 -0.0688 -0.5314
 2663TIP3    H132184   4.096   6.561  18.375  0.2015  1.5676  0.5729
 2663TIP3    H232185   4.076   6.673  18.275 -0.0557 -0.2172 -1.4382
 2664TIP3   OH232186   1.599   1.414  17.573 -0.5589 -0.2845  0.2790
 2664TIP3    H132187   1.646   1.394  17.492  0.6953 -0.2813  0.9802
 2664TIP3    H232188   1.657   1.384  17.643  0.1229  3.0089  1.2991
 2665TIP3   OH232189   7.103   3.216  19.714  0.4479  0.0023  0.3172
 2665TIP3    H132190   7.040   3.266  19.663  0.6920  1.5012  1.4475
 2665TIP3    H232191   7.056   3.191  19.793  0.5218 -1.0821  0.0474
 2666TIP3   OH232192   4.505   5.549  19.541  0.0887 -0.2344  0.6517
 2666TIP3    H132193   4.578   5.580  19.488  0.0931  0.1404  0.8668
 2666TIP3    H232194   4.431   5.546  19.481 -0.0806  0.8950  0.7680
 2667TIP3   OH232195   2.784   5.800  18.629  0.1613 -0.2729  0.2201
 2667TIP3    H132196   2.736   5.873  18.590 -0.2795 -1.5467 -1.7415
 2667TIP3    H232197   2.717   5.744  18.668  0.1382 -1.2837 -1.2002
 2668TIP3   OH232198   1.187   7.313  19.317  0.0319 -0.5043  0.1029
 2668TIP3    H132199   1.101   7.356  19.319  1.0768  1.7230  1.2750
 2668TIP3    H232200   1.168   7.220  19.330 -2.3152 -0.3694 -1.7346
 2669TIP3   OH232201   2.472   1.736  17.707  0.3949  0.4658 -0.2018
 2669TIP3    H132202   2.466   1.757  17.614 -0.9788 -0.6124 -0.3849
 2669TIP3    H232203   2.384   1.705  17.730  0.4088  1.6555  1.6950
 2670TIP3   OH232204   1.346   6.873  19.093  0.5615 -0.4438  0.4492
 2670TIP3    H132205   1.293   6.859  19.172  0.5636 -0.7043  0.4034
 2670TIP3    H232206   1.356   6.968  19.088 -0.0068 -0.3817  0.3908
 2671TIP3   OH232207   2.086   5.387  16.854  0.1001  0.2431 -0.0821
 2671TIP3    H132208   2.078   5.318  16.921  0.6145  2.2243  2.1554
 2671TIP3    H232209   2.180   5.391  16.835  0.1280  0.6272  0.1352
 2672TIP3   OH232210   6.886   6.791  17.504 -0.3411  0.0219 -0.1893
 2672TIP3    H132211   6.841   6.869  17.538 -0.9191 -1.0520  1.6663
 2672TIP3    H232212   6.877   6.798  17.409 -0.6668  2.0345 -0.0614
 2673TIP3   OH232213   3.200   2.377  19.227 -0.4225  0.2694 -0.1311
 2673TIP3    H132214   3.110   2.394  19.200 -1.0229  1.5538  2.3723
 2673TIP3    H232215   3.212   2.432  19.305  2.0793 -0.9192  0.4112
 2674TIP3   OH232216   1.448   5.685  17.621  0.4390 -0.0789 -0.3300
 2674TIP3    H132217   1.479   5.656  17.535 -2.2936 -1.7982 -0.8349
 2674TIP3    H232218   1.485   5.621  17.682 -0.0715 -0.6623 -0.6201
 2675TIP3   OH232219   6.135   0.156  18.099 -0.2385  0.0690  0.1424
 2675TIP3    H132220   6.068   0.099  18.138  0.4870 -0.6965  0.2881
 2675TIP3    H232221   6.116   0.243  18.135  0.7192 -0.6821  2.6794
 2676TIP3   OH232222   1.038   6.658  18.098  0.3598 -0.0315  0.1797
 2676TIP3    H132223   1.006   6.712  18.025  2.1702  1.3914  0.3595
 2676TIP3    H232224   1.106   6.603  18.059  0.6230 -0.0006  0.5883
 2677TIP3   OH232225   6.448   5.733  17.616 -0.0525 -0.0526 -0.3779
 2677TIP3    H132226   6.382   5.773  17.672 -1.1255  1.0618 -2.3499
 2677TIP3    H232227   6.417   5.643  17.604  0.0914 -0.2476  0.6258
 2678TIP3   OH232228   0.844   2.442  17.956 -0.7107 -0.3265  0.2743
 2678TIP3    H132229   0.930   2.442  17.913 -0.7187 -0.4454  0.2587
 2678TIP3    H232230   0.858   2.489  18.038 -0.2581 -1.7173  1.0219
 2679TIP3   OH232231   6.681   2.945  16.607  0.5437  0.0534  0.4302
 2679TIP3    H132232   6.675   3.020  16.547 -1.3003  0.7536  1.4153
 2679TIP3    H232233   6.594   2.938  16.645  0.6967 -2.5316  0.4950
 2680TIP3   OH232234   4.075   3.705  17.035  0.6304 -0.3092  0.2787
 2680TIP3    H132235   3.999   3.746  17.075 -0.3660 -1.6417 -0.2104
 2680TIP3    H232236   4.096   3.762  16.960 -0.0356 -0.0809  0.2655
 2681TIP3   OH232237   5.143   4.683  18.907  0.3876 -0.2444 -0.2266
 2681TIP3    H132238   5.198   4.705  18.832  0.5070  0.0348 -0.0561
 2681TIP3    H232239   5.093   4.762  18.925 -0.8634 -0.8274 -1.0558
 2682TIP3   OH232240   5.627   3.900  17.387  0.0352 -0.0138  0.5067
 2682TIP3    H132241   5.687   3.846  17.438 -0.8712 -2.1120 -0.5452
 2682TIP3    H232242   5.585   3.839  17.327 -1.8956  1.6843  0.0317
 2683TIP3   OH232243   4.808   0.182  17.528 -0.2288 -0.2177 -0.5602
 2683TIP3    H132244   4.766   0.218  17.450 -0.2974 -0.1357 -0.4852
 2683TIP3    H232245   4.740   0.184  17.595  0.4451  1.8655  0.1601
 2684TIP3   OH232246   0.161   5.318  18.070 -0.2629 -0.4639  0.1349
 2684TIP3    H132247   0.184   5.305  17.978  1.7277  0.6484  0.4091
 2684TIP3    H232248   0.228   5.379  18.103 -1.1058 -0.5928  2.2395
 2685TIP3   OH232249   5.651   5.234  18.023 -0.4560  0.4876  0.7284
 2685TIP3    H132250   5.715   5.171  18.056  0.1169  0.3628 -0.5753
 2685TIP3    H232251   5.665   5.313  18.075  2.0095  1.0770 -0.6943
 2686TIP3   OH232252   2.755   3.122  17.149  0.5379 -0.4340  0.4622
 2686TIP3    H132253   2.700   3.047  17.130  0.1275 -0.6929  2.4242
 2686TIP3    H232254   2.762   3.169  17.066 -2.0110 -0.7911 -0.0359
 2687TIP3   OH232255   4.572   1.787  18.741 -0.3291  0.3547  0.0077
 2687TIP3    H132256   4.651   1.746  18.776 -0.0334  0.4443 -0.5411
 2687TIP3    H232257   4.545   1.730  18.669 -0.8202  0.2755  0.2516
 2688TIP3   OH232258   3.596   6.936  16.973 -0.3897 -0.3661  0.1163
 2688TIP3    H132259   3.638   6.868  17.026  1.0150 -0.0352 -0.5405
 2688TIP3    H232260   3.655   7.011  16.978 -1.7973  0.7527  0.6163
 2689TIP3   OH232261   2.769   2.133  18.139 -0.1682 -0.1984 -0.8154
 2689TIP3    H132262   2.813   2.089  18.066 -0.6285  0.3071 -1.4053
 2689TIP3    H232263   2.699   2.073  18.164 -0.6659  0.0850 -1.4835
 2690TIP3   OH232264   3.351   5.728  18.624 -0.0819  0.1267  0.1845
 2690TIP3    H132265   3.362   5.799  18.686 -1.3926  0.3164  0.2411
 2690TIP3    H232266   3.256   5.712  18.622  0.2631 -2.6559  1.3317
 2691TIP3   OH232267   2.665   6.002  17.451  0.5094 -0.3368  0.5804
 2691TIP3    H132268   2.654   5.978  17.543  1.6363  0.7685  1.0404
 2691TIP3    H232269   2.608   6.078  17.439  0.7854 -0.1389  0.5176
 2692TIP3   OH232270   1.176   1.912  18.154  0.1360 -0.3774  0.2894
 2692TIP3    H132271   1.115   1.976  18.119  0.8759  0.5436  0.6571
 2692TIP3    H232272   1.147   1.897  18.244  0.4959  0.1216  0.4904
 2693TIP3   OH232273   4.619   1.281  18.827 -0.6333 -0.3242 -0.4703
 2693TIP3    H132274   4.679   1.345  18.787  0.7241 -0.6563  0.9103
 2693TIP3    H232275   4.577   1.330  18.898 -1.2036 -0.3961 -0.7557
 2694TIP3   OH232276   1.157   2.715  17.100 -0.0390 -0.1194  0.0502
 2694TIP3    H132277   1.086   2.692  17.040 -0.6607  0.2110  0.6525
 2694TIP3    H232278   1.169   2.809  17.087 -2.2395  0.6164  2.5692
 2695TIP3   OH232279   0.672   4.615  19.056 -0.2932 -0.0936  0.8520
 2695TIP3    H132280   0.695   4.549  19.121  0.6259 -0.3494  0.2862
 2695TIP3    H232281   0.736   4.685  19.069 -1.8244  1.1616  2.0768
 2696TIP3   OH232282   5.753   7.092  18.719 -0.0612  0.5077 -0.2573
 2696TIP3    H132283   5.694   7.044  18.661  0.3155 -2.3315  1.4920
 2696TIP3    H232284   5.835   7.042  18.716  0.0285  0.3370  2.5081
 2697TIP3   OH232285   3.189   6.085  19.036  0.0964  0.8093 -0.5619
 2697TIP3    H132286   3.111   6.103  18.985 -0.0340  3.3654  0.3601
 2697TIP3    H232287   3.259   6.131  18.990  0.4232  1.1823  0.2844
 2698TIP3   OH232288   4.177   1.458  18.501  0.0575  0.2541 -0.6614
 2698TIP3    H132289   4.187   1.380  18.556  1.7427  0.0342 -1.2461
 2698TIP3    H232290   4.183   1.426  18.411  0.2902  0.9953 -0.9179
 2699TIP3   OH232291   3.053   0.921  18.253  0.6297 -0.4017 -0.7401
 2699TIP3    H132292   3.146   0.916  18.234  0.4349  1.8985 -2.6696
 2699TIP3    H232293   3.017   0.978  18.186 -2.0321 -0.4635  0.4942
 2700TIP3   OH232294   7.513   5.696  17.188  0.0089  0.0881  0.0940
 2700TIP3    H132295   7.442   5.691  17.124 -0.4315  0.5899  0.5276
 2700TIP3    H232296   7.546   5.607  17.194 -2.3685 -0.8072  1.8464
 2701TIP3   OH232297   3.906   5.214  17.313 -0.5288 -0.1043 -0.7128
 2701TIP3    H132298   3.945   5.288  17.267  1.7222 -1.5754 -1.3190
 2701TIP3    H232299   3.898   5.145  17.246 -0.6940 -1.0660  0.2631
 2702TIP3   OH232300   1.440   5.848  18.742 -0.2084 -0.2593  0.1151
 2702TIP3    H132301   1.470   5.757  18.736 -0.3060 -0.4027  1.4061
 2702TIP3    H232302   1.359   5.850  18.691  1.1132 -0.2393 -2.1127
 2703TIP3   OH232303   5.841   1.469  19.411 -0.0346  0.4476  0.2751
 2703TIP3    H132304   5.778   1.508  19.350 -0.1500  1.6771  1.1416
 2703TIP3    H232305   5.926   1.502  19.381  0.2652 -1.3754 -1.0196
 2704TIP3   OH232306   3.622   2.403  18.951  0.1924  0.3395 -0.3050
 2704TIP3    H132307   3.555   2.393  19.019 -0.2717 -0.4862 -0.8626
 2704TIP3    H232308   3.596   2.481  18.903  0.4626  0.8675  0.3758
 2705TIP3   OH232309   3.830   4.075  18.606 -0.3166 -0.1062 -0.4499
 2705TIP3    H132310   3.885   4.153  18.601 -1.1988  0.6027  0.7222
 2705TIP3    H232311   3.833   4.048  18.698 -1.9691 -0.0164 -0.3464
 2706TIP3   OH232312   1.546   2.904  17.817  0.2160  0.1000  0.3520
 2706TIP3    H132313   1.595   2.847  17.877  0.0124  1.7663  2.1723
 2706TIP3    H232314   1.498   2.843  17.761  0.2843 -1.5460  1.9820
 2707TIP3   OH232315   1.281   3.393  17.146 -0.1596 -0.0019  0.1159
 2707TIP3    H132316   1.233   3.377  17.227  0.9211 -1.2843  0.5468
 2707TIP3    H232317   1.253   3.323  17.087 -0.0609  0.2201 -0.1958
 2708TIP3   OH232318   3.723   5.358  17.925  0.0971 -0.4053  0.4863
 2708TIP3    H132319   3.732   5.453  17.919  1.7493 -0.5799 -0.7553
 2708TIP3    H232320   3.664   5.344  17.999 -1.2684  1.6022 -0.1147
 2709TIP3   OH232321   1.492   6.231  18.516 -0.8528 -0.5139 -0.1325
 2709TIP3    H132322   1.551   6.202  18.446  0.3065  0.3672  0.4590
 2709TIP3    H232323   1.539   6.212  18.597 -0.8791  1.1840  0.3218
 2710TIP3   OH232324   7.099   3.615  18.453 -0.4636  0.4289 -0.6909
 2710TIP3    H132325   7.092   3.626  18.547  1.6179  0.3860 -0.4858
 2710TIP3    H232326   7.017   3.572  18.427 -2.2881  2.9001  0.6452
 2711TIP3   OH232327   2.110   2.339  18.429  0.2327  0.2090 -0.8273
 2711TIP3    H132328   2.150   2.411  18.379  1.4146  0.2700  0.1721
 2711TIP3    H232329   2.177   2.313  18.492 -0.1365 -1.8452 -1.2144
 2712TIP3   OH232330   4.725   2.768  17.676 -0.1541 -0.6045 -0.3918
 2712TIP3    H132331   4.666   2.734  17.744 -2.1402  0.3385 -1.5377
 2712TIP3    H232332   4.752   2.692  17.626 -1.3876 -0.9661 -0.5451
 2713TIP3   OH232333   5.985   3.369  18.143  0.4059  0.5010 -0.3816
 2713TIP3    H132334   6.020   3.289  18.183 -0.0609 -0.1807 -1.2819
 2713TIP3    H232335   5.915   3.397  18.202  0.4256  0.1108 -0.1697
 2714TIP3   OH232336   3.076   7.162  18.686 -0.0193  0.4253  0.0036
 2714TIP3    H132337   3.118   7.217  18.752  0.7292 -0.2539  0.1028
 2714TIP3    H232338   3.145   7.106  18.653 -1.0733 -1.6453  1.1170
 2715TIP3   OH232339   6.754   1.807  18.161  0.4694 -0.3986  0.7043
 2715TIP3    H132340   6.786   1.845  18.079 -1.5804 -0.2892 -0.1129
 2715TIP3    H232341   6.775   1.714  18.154 -0.9386 -0.6570 -0.6477
 2716TIP3   OH232342   1.477   0.926  18.051  0.3095 -0.2954 -0.9028
 2716TIP3    H132343   1.384   0.949  18.040  0.0747 -1.5037 -1.6022
 2716TIP3    H232344   1.481   0.833  18.028  1.7625 -0.1632 -1.2232
 2717TIP3   OH232345   5.307   6.468  18.913 -0.2300 -0.3660 -0.2293
 2717TIP3    H132346   5.366   6.402  18.952 -0.2756 -0.5295 -0.4363
 2717TIP3    H232347   5.345   6.552  18.940  0.5213 -0.4540 -0.9687
 2718TIP3   OH232348   5.539   4.383  17.525 -0.2026 -0.0150 -0.6666
 2718TIP3    H132349   5.536   4.288  17.540  0.1933  0.1815  0.7907
 2718TIP3    H232350   5.577   4.419  17.605  0.2961  1.3226 -1.4673
 2719TIP3   OH232351   1.710   2.015  18.650  0.0603 -0.2858  0.3214
 2719TIP3    H132352   1.778   2.049  18.592 -0.2515  1.7233  1.0395
 2719TIP3    H232353   1.752   2.014  18.737 -0.2146 -0.9485  0.4475
 2720TIP3   OH232354   2.818   3.294  16.928  0.1251  0.2554  0.2094
 2720TIP3    H132355   2.848   3.291  16.837  0.0167 -0.8852  0.1902
 2720TIP3    H232356   2.893   3.330  16.976  0.8308 -0.7409 -0.1092
 2721TIP3   OH232357   6.598   5.486  18.898  0.1228 -0.0003 -0.1131
 2721TIP3    H132358   6.673   5.434  18.928 -0.4834 -0.4012  0.7303
 2721TIP3    H232359   6.636   5.546  18.834  1.1648 -0.2260  0.2603
 2722TIP3   OH232360   3.629   2.021  17.549 -0.0280  0.1741  0.9945
 2722TIP3    H132361   3.594   1.997  17.463 -0.6381  0.7282  1.0792
 2722TIP3    H232362   3.572   2.092  17.579 -0.1121 -0.3393  2.0701
 2723TIP3   OH232363   3.717   0.408  19.504  0.5117 -0.6050  0.0848
 2723TIP3    H132364   3.660   0.335  19.481 -2.6709  1.3906  0.8289
 2723TIP3    H232365   3.732   0.399  19.598 -0.4284 -0.0356  0.3073
 2724TIP3   OH232366   0.470   2.143  17.207  0.1514  0.0411  0.1321
 2724TIP3    H132367   0.533   2.157  17.278 -1.2152 -0.8335  1.5947
 2724TIP3    H232368   0.402   2.209  17.222 -0.6453 -0.7772  0.2894
 2725TIP3   OH232369   5.334   4.829  18.756 -0.0045  0.0698  0.1587
 2725TIP3    H132370   5.390   4.884  18.812  0.4789  0.1442 -0.3866
 2725TIP3    H232371   5.393   4.797  18.688 -0.2263 -1.2900  0.5684
 2726TIP3   OH232372   3.681   6.059  18.452  0.2089 -0.1525 -0.2393
 2726TIP3    H132373   3.760   6.100  18.486  0.5300 -0.5900 -0.4540
 2726TIP3    H232374   3.650   6.002  18.523 -0.0808  0.2421 -0.0454
 2727TIP3   OH232375   0.878   3.353  17.731  0.1289 -0.1922 -0.5087
 2727TIP3    H132376   0.842   3.433  17.769  1.7923  1.5210 -2.3837
 2727TIP3    H232377   0.800   3.301  17.709 -1.0043  1.0551  0.3509
 2728TIP3   OH232378   6.838   0.279  17.450  0.0001  0.1702 -0.1346
 2728TIP3    H132379   6.828   0.248  17.360  1.9477  0.4552 -0.5063
 2728TIP3    H232380   6.922   0.325  17.449 -0.4489  1.0783  1.5917
 2729TIP3   OH232381   5.193   3.769  18.807  0.2925  0.3368 -0.7758
 2729TIP3    H132382   5.272   3.824  18.806 -0.1056  0.9967  0.7838
 2729TIP3    H232383   5.223   3.682  18.782  1.6283  0.4716  0.2658
 2730TIP3   OH232384   5.470   2.589  18.146  0.4209 -0.0555  0.1254
 2730TIP3    H132385   5.423   2.509  18.124  2.0067 -0.2747 -2.9277
 2730TIP3    H232386   5.409   2.639  18.201 -1.2730 -2.5300  0.6341
 2731TIP3   OH232387   3.596   6.524  17.883 -0.0277 -0.3797 -0.1665
 2731TIP3    H132388   3.544   6.521  17.803  1.9278  0.7014 -1.5571
 2731TIP3    H232389   3.552   6.589  17.938 -1.9313 -1.8148  0.1214
 2732TIP3   OH232390   5.455   3.366  17.913 -0.1847 -0.6193  0.2018
 2732TIP3    H132391   5.512   3.406  17.979 -0.0457 -1.3313  0.5199
 2732TIP3    H232392   5.505   3.373  17.832 -0.1127 -0.2511  0.2734
 2733TIP3   OH232393   5.678   0.755  18.465 -0.1896 -0.0828 -0.0293
 2733TIP3    H132394   5.587   0.785  18.469 -2.0273 -4.9240  0.7043
 2733TIP3    H232395   5.686   0.714  18.379  1.8717  1.4915 -0.6579
 2734TIP3   OH232396   2.222   1.475  19.392 -0.3940 -0.2426 -0.2284
 2734TIP3    H132397   2.201   1.538  19.461 -1.2043 -0.4560 -0.2641
 2734TIP3    H232398   2.202   1.390  19.431 -1.8440 -0.3130 -1.0336
 2735TIP3   OH232399   1.560   7.599  18.444  0.5820  0.2873  0.4950
 2735TIP3    H132400   1.507   7.658  18.391 -1.4159 -1.1788  0.7499
 2735TIP3    H232401   1.589   7.531  18.383  0.2502 -0.1335  0.7989
 2736TIP3   OH232402   3.895   6.255  19.199  0.0699 -0.1222  0.2764
 2736TIP3    H132403   3.841   6.281  19.124  0.1520 -0.6519  0.0279
 2736TIP3    H232404   3.921   6.337  19.239 -0.8271  0.1444  0.3359
 2737TIP3   OH232405   3.137   4.921  17.188  0.0184  0.1694  0.5362
 2737TIP3    H132406   3.076   4.862  17.143 -0.4196  0.9982  0.0284
 2737TIP3    H232407   3.206   4.938  17.124 -0.3987  1.0334  0.3066
 2738TIP3   OH232408   6.962   6.033  19.030 -0.3992  0.0964  0.3706
 2738TIP3    H132409   6.920   5.947  19.030  1.3232 -0.7935  0.2238
 2738TIP3    H232410   7.034   6.024  18.967  0.5821  1.2306  1.2813
 2739TIP3   OH232411   1.437   4.997  17.377  0.0968 -0.1486 -0.1519
 2739TIP3    H132412   1.513   4.957  17.420  0.7457 -1.3116 -2.2360
 2739TIP3    H232413   1.368   4.931  17.384  0.0086 -0.0714 -0.2934
 2740TIP3   OH232414   7.229   4.072  18.755 -0.1882 -1.0354  0.1600
 2740TIP3    H132415   7.247   4.153  18.707  1.3300 -0.9252  0.8491
 2740TIP3    H232416   7.135   4.057  18.742  0.0082 -0.6141 -2.1704
 2741TIP3   OH232417   6.439   1.855  19.249 -0.2383 -0.0060 -0.4536
 2741TIP3    H132418   6.441   1.811  19.334 -0.0830  1.7381  0.4959
 2741TIP3    H232419   6.355   1.901  19.247 -0.8649 -1.1172 -1.8697
 2742TIP3   OH232420   3.940   6.173  18.216  0.1761  0.2618 -0.3536
 2742TIP3    H132421   3.849   6.182  18.188 -0.2289  0.0804  0.8490
 2742TIP3    H232422   3.988   6.158  18.135 -1.2467 -2.6125 -0.8310
 2743TIP3   OH232423   5.296   6.789  18.313  0.0782 -0.2829  0.3989
 2743TIP3    H132424   5.277   6.882  18.321 -4.2035 -0.9588  0.1894
 2743TIP3    H232425   5.377   6.777  18.363  1.0533  3.5386  0.0446
 2744TIP3   OH232426   6.872   3.536  18.099 -0.0134 -0.2549  0.5561
 2744TIP3    H132427   6.890   3.510  18.189 -2.1673  0.2826  1.2137
 2744TIP3    H232428   6.858   3.631  18.104  0.3879 -0.1223 -0.4653
 2745TIP3   OH232429   5.540   1.346  18.211 -0.2523 -0.2653 -0.3038
 2745TIP3    H132430   5.500   1.287  18.147 -3.4666  2.7006 -1.3697
 2745TIP3    H232431   5.493   1.329  18.292  0.7532 -0.9704  0.1597
 2746TIP3   OH232432   6.063   4.345  18.881  0.5338  0.1187 -0.8219
 2746TIP3    H132433   6.065   4.264  18.933 -0.4579  0.4191 -0.2930
 2746TIP3    H232434   6.126   4.402  18.925 -0.0689  0.2588 -0.1146
 2747TIP3   OH232435   2.967   2.535  17.442 -0.0278  0.3517  0.1927
 2747TIP3    H132436   2.959   2.442  17.465 -1.6590  0.9370  2.2662
 2747TIP3    H232437   2.906   2.547  17.369  3.3375 -0.9881 -3.1893
 2748TIP3   OH232438   2.511   4.334  18.556 -0.1405  1.5607  0.2660
 2748TIP3    H132439   2.464   4.287  18.625 -0.9491  1.6949 -0.1805
 2748TIP3    H232440   2.577   4.385  18.603 -0.1506  1.0297  0.8699
 2749TIP3   OH232441   0.196   3.593  17.440  0.3276 -0.0311 -0.3121
 2749TIP3    H132442   0.169   3.561  17.526  1.0461  0.4347  0.0922
 2749TIP3    H232443   0.285   3.625  17.452  0.1714  0.7434 -1.0507
 2750TIP3   OH232444   5.952   7.663  17.535  0.3295  0.0166  0.4646
 2750TIP3    H132445   6.041   7.697  17.532  0.0973  0.7191  1.2316
 2750TIP3    H232446   5.958   7.584  17.589  0.2398  0.9046  1.8142
 2751TIP3   OH232447   4.376   4.959  18.402  0.4110 -0.1537  0.1019
 2751TIP3    H132448   4.378   5.052  18.426  0.8423 -0.0786 -0.2348
 2751TIP3    H232449   4.283   4.936  18.411  0.5022 -0.0815  1.6462
 2752TIP3   OH232450   1.373   6.756  17.815  0.2793 -0.4137  0.6056
 2752TIP3    H132451   1.362   6.690  17.884  0.7045 -0.6807  0.4195
 2752TIP3    H232452   1.438   6.817  17.850 -0.1442 -0.0619  0.7930
 2753TIP3   OH232453   7.456   4.527  18.572 -0.0354 -0.4720  0.3246
 2753TIP3    H132454   7.376   4.580  18.564 -0.1420 -0.4034  1.6574
 2753TIP3    H232455   7.526   4.584  18.541 -0.1705  0.4100  1.5925
 2754TIP3   OH232456   2.677   3.071  18.645  0.1032 -0.1639 -0.1979
 2754TIP3    H132457   2.712   3.105  18.727  0.2269  0.3560 -0.4569
 2754TIP3    H232458   2.727   2.991  18.629  1.1254  0.5048 -0.5048
 2755TIP3   OH232459   4.883   5.480  19.338  0.7342 -0.5885 -0.2959
 2755TIP3    H132460   4.920   5.407  19.289  1.1430 -1.2298  0.9248
 2755TIP3    H232461   4.831   5.438  19.407  0.4410  0.2794  0.0229
 2756TIP3   OH232462   5.296   7.045  18.400 -0.4122 -0.2003  0.6818
 2756TIP3    H132463   5.226   7.014  18.458 -0.9719  0.7753  0.5452
 2756TIP3    H232464   5.315   7.134  18.431  1.0055 -0.5587  0.9240
 2757TIP3   OH232465   4.827   1.995  18.535  0.6709  0.1507  0.1265
 2757TIP3    H132466   4.800   1.924  18.478 -0.0378  1.4055 -1.1725
 2757TIP3    H232467   4.920   2.007  18.518  0.6226  0.0255 -0.2244
 2758TIP3   OH232468   2.647   5.539  18.377 -0.2781 -0.0125  0.7404
 2758TIP3    H132469   2.711   5.468  18.375 -0.8841 -0.5501  0.1038
 2758TIP3    H232470   2.628   5.552  18.470  0.4848 -0.0883  0.9166
 2759TIP3   OH232471   2.646   7.031  17.657  0.0622 -0.4333 -0.3129
 2759TIP3    H132472   2.693   7.097  17.707 -0.2785 -0.4227 -0.0044
 2759TIP3    H232473   2.557   7.065  17.649  0.0281 -0.5944 -0.6316
 2760TIP3   OH232474   1.423   6.620  18.229  0.2504 -0.4664  0.0901
 2760TIP3    H132475   1.383   6.706  18.215 -1.8178 -1.0484  1.9038
 2760TIP3    H232476   1.395   6.568  18.153  0.9751  0.2552 -0.6865
 2761TIP3   OH232477   2.294   6.354  19.013  0.7991  0.3872  0.2178
 2761TIP3    H132478   2.209   6.339  18.971  2.1748 -0.4647 -2.5537
 2761TIP3    H232479   2.286   6.440  19.054 -1.3327  0.3910 -0.0992
 2762TIP3   OH232480   2.200   5.751  17.863 -0.2038 -0.0507 -0.5712
 2762TIP3    H132481   2.136   5.711  17.921 -0.0697  0.1439 -0.2871
 2762TIP3    H232482   2.226   5.680  17.803 -0.0189 -0.3701 -0.1175
 2763TIP3   OH232483   2.799   5.272  19.229  0.3983 -0.8882  0.3362
 2763TIP3    H132484   2.724   5.243  19.281  0.4234  0.3945  1.1266
 2763TIP3    H232485   2.874   5.228  19.270  0.5080  0.6408  1.8878
 2764TIP3   OH232486   6.221   6.085  17.633 -0.5538  0.5738  0.0805
 2764TIP3    H132487   6.312   6.102  17.610  0.1818 -1.1852  1.5549
 2764TIP3    H232488   6.188   6.170  17.664  0.9054  0.9692  0.6120
 2765TIP3   OH232489   0.492   3.302  18.618  0.4015 -0.6090 -0.5882
 2765TIP3    H132490   0.541   3.243  18.676 -0.8332  0.2800  1.4623
 2765TIP3    H232491   0.558   3.363  18.585  1.1518 -1.1698 -0.1625
 2766TIP3   OH232492   5.807   6.630  17.109 -0.6749  0.0339 -0.0336
 2766TIP3    H132493   5.897   6.618  17.076 -0.4166 -0.1177  0.7030
 2766TIP3    H232494   5.753   6.633  17.031  0.2033  2.3087 -0.6283
 2767TIP3   OH232495   7.447   7.348  17.369  0.3930  0.3034 -0.1340
 2767TIP3    H132496   7.410   7.424  17.324 -0.5144  1.3384  2.1777
 2767TIP3    H232497   7.382   7.327  17.436  1.5272 -1.3224  0.5080
 2768TIP3   OH232498   3.902   2.761  19.693  0.4591 -0.1340 -0.4337
 2768TIP3    H132499   3.881   2.853  19.707 -0.4921 -0.5431  1.1006
 2768TIP3    H232500   3.819   2.720  19.668  1.2317 -0.2869 -2.9525
 2769TIP3   OH232501   2.067   3.203  18.862 -0.1060  0.2455  0.2037
 2769TIP3    H132502   2.124   3.280  18.862 -0.3581  0.4633  1.6008
 2769TIP3    H232503   2.045   3.189  18.770  3.8885 -1.1509 -0.7237
 2770TIP3   OH232504   2.992   7.619  18.976  0.1138  0.2203  0.4507
 2770TIP3    H132505   2.969   7.704  18.940  1.8394 -0.2232 -1.9423
 2770TIP3    H232506   2.912   7.568  18.971 -0.9426  1.6554  1.9240
 2771TIP3   OH232507   0.616   2.056  17.743  0.0153  0.1404 -0.1532
 2771TIP3    H132508   0.691   2.006  17.774  0.2391  0.9278  0.5828
 2771TIP3    H232509   0.576   1.999  17.676  0.2433 -1.0373  0.6794
 2772TIP3   OH232510   6.015   2.413  16.350 -0.1338  0.3104 -0.1709
 2772TIP3    H132511   6.097   2.457  16.370 -0.0323 -0.1855  0.5665
 2772TIP3    H232512   5.961   2.427  16.428 -0.0721 -0.9000  0.1119
 2773TIP3   OH232513   0.869   4.660  18.241 -0.3008 -0.2399  0.5913
 2773TIP3    H132514   0.900   4.715  18.313  1.2836 -0.7347  0.3223
 2773TIP3    H232515   0.854   4.721  18.169 -1.2828  0.1718  1.1194
 2774TIP3   OH232516   5.590   3.829  17.673 -0.1342  0.4655  0.3933
 2774TIP3    H132517   5.536   3.888  17.620  0.6237  0.7103 -0.1317
 2774TIP3    H232518   5.528   3.773  17.719 -0.8096  0.3152 -0.6883
 2775TIP3   OH232519   1.990   5.112  18.751 -0.1586 -0.2761  0.3996
 2775TIP3    H132520   1.930   5.141  18.820 -0.0997  1.3262 -0.1859
 2775TIP3    H232521   2.068   5.166  18.762  0.5101 -1.1405  0.0718
 2776TIP3   OH232522   0.964   2.686  18.896  0.0796  0.4883 -0.0246
 2776TIP3    H132523   0.962   2.763  18.839  1.1029  0.5002 -0.0559
 2776TIP3    H232524   0.942   2.720  18.983 -0.4768  0.6419 -0.2213
 2777TIP3   OH232525   1.169   0.196  16.706 -0.0585  0.2509  0.7473
 2777TIP3    H132526   1.208   0.150  16.780 -1.6821 -0.9279  0.9199
 2777TIP3    H232527   1.219   0.165  16.630  1.0893  0.8540  1.2331
 2778TIP3   OH232528   2.901   3.718  18.554  0.0399  0.0063  0.1320
 2778TIP3    H132529   2.917   3.630  18.586  1.6881  0.0843 -0.4125
 2778TIP3    H232530   2.881   3.707  18.461 -1.0988  0.1118  0.3433
 2779TIP3   OH232531   5.412   0.898  16.817  0.4587  0.1616 -0.4030
 2779TIP3    H132532   5.476   0.838  16.779  1.6170  1.0837  0.0506
 2779TIP3    H232533   5.423   0.889  16.911  3.0077  3.3754 -0.2211
 2780TIP3   OH232534   5.414   2.920  17.115 -0.2308 -0.1649 -0.1025
 2780TIP3    H132535   5.483   2.979  17.083 -0.1262  0.3118  0.9579
 2780TIP3    H232536   5.332   2.967  17.097 -0.0803  1.1998  2.3708
 2781TIP3   OH232537   6.081   5.865  19.038  0.2738 -0.8611 -0.0680
 2781TIP3    H132538   6.020   5.922  18.992  0.2222 -1.0926 -0.2905
 2781TIP3    H232539   6.123   5.922  19.103 -0.4927 -0.7967  0.3918
 2782TIP3   OH232540   3.354   5.364  18.637 -0.9037  0.6564 -0.4955
 2782TIP3    H132541   3.353   5.391  18.546  0.6682  0.6300 -0.5574
 2782TIP3    H232542   3.291   5.293  18.642 -1.3488  0.9678 -1.4529
 2783TIP3   OH232543   6.853   6.044  17.466  0.9462 -0.5203  0.0037
 2783TIP3    H132544   6.800   6.116  17.500  1.6165 -0.8597  1.8967
 2783TIP3    H232545   6.880   5.995  17.543  2.1828 -1.6446 -1.0769
 2784TIP3   OH232546   7.631   3.423  17.638  0.1510  0.1022 -0.0593
 2784TIP3    H132547   7.673   3.463  17.715  0.3494 -0.3455  0.0684
 2784TIP3    H232548   7.634   3.491  17.571  0.4712  0.3104  0.1607
 2785TIP3   OH232549   1.617   0.629  17.971  0.1026 -0.8311  0.0269
 2785TIP3    H132550   1.665   0.651  17.891  0.7730 -1.1709  0.3338
 2785TIP3    H232551   1.628   0.535  17.981 -0.2099 -0.8323  0.3815
 2786TIP3   OH232552   6.322   2.900  18.356  0.2765  0.3634  0.3251
 2786TIP3    H132553   6.370   2.828  18.397 -0.1501  0.0096  0.2116
 2786TIP3    H232554   6.347   2.897  18.264  0.8695  0.8634  0.4591
 2787TIP3   OH232555   2.855   7.135  17.240  0.1799 -0.5332  0.0260
 2787TIP3    H132556   2.824   7.156  17.152  1.4449 -2.8613 -1.0542
 2787TIP3    H232557   2.948   7.157  17.239  0.6185 -2.2428  0.1521
 2788TIP3   OH232558   2.146   5.815  16.598 -0.2263 -0.1351 -0.2506
 2788TIP3    H132559   2.087   5.838  16.670 -0.9762 -2.6797  0.0415
 2788TIP3    H232560   2.093   5.831  16.519 -1.3904 -2.3415  0.0063
 2789TIP3   OH232561   3.098   1.440  19.507 -0.0571  0.2323 -0.4317
 2789TIP3    H132562   3.035   1.462  19.439 -1.1829 -1.2884  0.0711
 2789TIP3    H232563   3.109   1.521  19.556 -0.8138  0.7988 -1.1699
 2790TIP3   OH232564   6.871   6.702  18.019  0.5149 -0.8070  0.3299
 2790TIP3    H132565   6.829   6.768  18.074 -0.5489 -0.7197 -0.5457
 2790TIP3    H232566   6.800   6.644  17.993  0.9950 -0.8635 -0.9201
 2791TIP3   OH232567   2.534   4.327  17.874 -0.2468 -0.3956  0.1297
 2791TIP3    H132568   2.535   4.308  17.968 -1.8907  2.5396  0.8953
 2791TIP3    H232569   2.442   4.346  17.855  0.2711  0.4632 -1.7344
 2792TIP3   OH232570   0.789   7.456  17.307 -0.1377  0.4201 -0.6839
 2792TIP3    H132571   0.807   7.530  17.364  1.6994 -0.4369 -0.0849
 2792TIP3    H232572   0.860   7.456  17.243 -0.0554 -0.8443 -0.6282
 2793TIP3   OH232573   4.226   2.039  18.054 -0.2214  0.4192  0.4907
 2793TIP3    H132574   4.202   2.008  18.141  0.5926  1.3787  1.0793
 2793TIP3    H232575   4.321   2.050  18.058  0.0867 -1.3038 -1.1127
 2794TIP3   OH232576   6.788   3.173  18.784  0.2105  0.2695  0.1358
 2794TIP3    H132577   6.840   3.094  18.772 -0.7534 -0.3611 -0.0544
 2794TIP3    H232578   6.755   3.193  18.697  0.4621  0.8958  0.1823
 2795TIP3   OH232579   4.196   5.997  16.576 -0.1281 -0.2210 -0.1013
 2795TIP3    H132580   4.119   5.970  16.527 -0.9982 -0.5986  1.4043
 2795TIP3    H232581   4.163   6.019  16.663  1.2346  1.2284  0.1065
 2796TIP3   OH232582   0.152   3.201  17.457  0.0298  0.0271 -0.0508
 2796TIP3    H132583   0.166   3.218  17.550 -0.2997  1.0047 -0.1700
 2796TIP3    H232584   0.060   3.222  17.442 -0.0321 -0.5530 -0.5112
 2797TIP3   OH232585   5.139   1.818  19.236  0.4502  0.2873  0.3500
 2797TIP3    H132586   5.147   1.912  19.249  0.2174  0.3356  0.1553
 2797TIP3    H232587   5.228   1.789  19.215  0.7788  0.2529  1.6782
 2798TIP3   OH232588   5.893   3.309  18.981  0.6546  0.5368 -0.1295
 2798TIP3    H132589   5.894   3.401  18.955 -0.2240  0.0572 -2.0619
 2798TIP3    H232590   5.850   3.264  18.908 -1.2657 -1.0915  1.8730
 2799TIP3   OH232591   5.698   4.073  18.136  0.5776 -0.3261 -0.2623
 2799TIP3    H132592   5.688   4.114  18.222  1.0378  0.0224 -0.3715
 2799TIP3    H232593   5.686   4.145  18.073  0.3476 -0.5586 -0.4877
 2800TIP3   OH232594   3.685   4.116  18.158 -0.1382 -0.1074  0.5176
 2800TIP3    H132595   3.629   4.134  18.082  0.6266 -0.1735 -0.0757
 2800TIP3    H232596   3.649   4.035  18.195 -0.3746 -0.2088  0.0837
 2801TIP3   OH232597   5.596   3.099  18.228  0.3326  0.5773  0.1016
 2801TIP3    H132598   5.547   3.022  18.256  0.1553  0.0446 -1.5817
 2801TIP3    H232599   5.651   3.069  18.156 -0.7540  2.2879 -1.5316
 2802TIP3   OH232600   7.149   4.628  18.194 -0.3957  0.1659 -0.4830
 2802TIP3    H132601   7.188   4.688  18.131  0.6081  0.6637  0.5750
 2802TIP3    H232602   7.222   4.575  18.226 -0.8364  0.0633  0.3994
 2803TIP3   OH232603   4.735   5.140  18.753  0.2681  0.6645  0.2740
 2803TIP3    H132604   4.687   5.058  18.740  2.1891 -0.6061  0.8315
 2803TIP3    H232605   4.803   5.118  18.816  2.3305  2.0612 -1.3265
 2804TIP3   OH232606   5.481   7.245  17.372 -0.0036 -0.4844 -0.5554
 2804TIP3    H132607   5.471   7.221  17.464  3.1478  0.2636  0.1103
 2804TIP3    H232608   5.408   7.304  17.354 -0.3910 -0.2167  1.6389
 2805TIP3   OH232609   7.125   7.200  18.681 -0.0196  0.3663 -0.2781
 2805TIP3    H132610   7.209   7.209  18.726  0.2681 -1.7691 -0.2465
 2805TIP3    H232611   7.085   7.123  18.722 -2.3854  1.8137  0.2526
 2806TIP3   OH232612   5.733   6.457  18.498 -0.4881  0.1916  0.4448
 2806TIP3    H132613   5.762   6.366  18.502  0.3589  0.3451 -1.1969
 2806TIP3    H232614   5.790   6.503  18.560 -0.3544 -0.2644  0.6638
 2807TIP3   OH232615   6.501   2.833  19.451 -0.0778  0.4424 -0.0838
 2807TIP3    H132616   6.507   2.738  19.439  0.0267  0.3343  0.7859
 2807TIP3    H232617   6.408   2.852  19.436 -0.4896 -0.0839  1.6329
 2808TIP3   OH232618   1.003   4.764  17.890  0.1038  0.4453  0.3308
 2808TIP3    H132619   0.964   4.775  17.804 -0.1552  0.0128  0.3904
 2808TIP3    H232620   0.963   4.833  17.944  0.7803  1.1654 -0.0564
 2809TIP3   OH232621   6.555   0.469  16.870 -0.6803 -0.1526  0.0186
 2809TIP3    H132622   6.613   0.534  16.911 -2.5594  3.0363 -1.9937
 2809TIP3    H232623   6.590   0.457  16.782 -0.4651 -1.8740  0.2920
 2810TIP3   OH232624   4.189   5.281  19.568  0.1450  0.2443 -0.2997
 2810TIP3    H132625   4.182   5.344  19.639  2.4498  1.5185 -1.0787
 2810TIP3    H232626   4.104   5.283  19.524 -0.1361  2.1714  0.2410
 2811TIP3   OH232627   0.566   4.194  18.055 -0.3135 -0.0849  0.6369
 2811TIP3    H132628   0.589   4.148  17.975  0.1871  0.2335  0.5927
 2811TIP3    H232629   0.648   4.202  18.103 -0.6551 -0.4905  1.3027
 2812TIP3   OH232630   5.493   5.459  16.910  0.3047 -0.5673  0.2460
 2812TIP3    H132631   5.543   5.396  16.961  0.9020  0.7614  1.3476
 2812TIP3    H232632   5.422   5.487  16.969  0.8115  0.7409  0.2673
 2813TIP3   OH232633   1.500   2.614  18.001 -0.3024 -0.4690 -0.4741
 2813TIP3    H132634   1.459   2.563  18.071  0.2206 -1.5835 -0.9587
 2813TIP3    H232635   1.575   2.561  17.974 -0.6789 -0.2196 -2.0968
 2814TIP3   OH232636   0.183   5.858  18.511  0.0913 -0.0672 -0.1422
 2814TIP3    H132637   0.159   5.783  18.456 -0.3170 -0.3593  0.4164
 2814TIP3    H232638   0.249   5.905  18.461 -0.4184 -0.2120 -0.9649
 2815TIP3   OH232639   1.088   5.432  16.703 -0.3628 -0.3007  0.1036
 2815TIP3    H132640   1.141   5.353  16.715 -2.1542 -1.2228  2.5923
 2815TIP3    H232641   1.016   5.424  16.766  0.0748  3.9693  1.4751
 2816TIP3   OH232642   1.790   6.814  18.152 -0.8348 -0.6859  0.1415
 2816TIP3    H132643   1.729   6.819  18.079  0.9378 -2.0064 -1.5370
 2816TIP3    H232644   1.738   6.835  18.229 -2.3289  3.1911 -1.6699
 2817TIP3   OH232645   4.054   4.799  19.345  0.0989 -0.5112 -0.7456
 2817TIP3    H132646   4.001   4.812  19.266  0.1946 -1.3450 -0.9487
 2817TIP3    H232647   4.033   4.711  19.375  0.3402 -0.3375 -0.0419
 2818TIP3   OH232648   2.713   6.591  17.121 -0.2365 -0.2064 -0.3230
 2818TIP3    H132649   2.619   6.609  17.126  0.0965  2.1922 -1.1285
 2818TIP3    H232650   2.725   6.510  17.170 -2.8997 -1.3585 -1.3606
 2819TIP3   OH232651   6.750   2.021  18.685  0.8357 -0.4125 -0.1212
 2819TIP3    H132652   6.773   1.948  18.628 -0.1745 -1.6478  0.9906
 2819TIP3    H232653   6.654   2.020  18.689  0.7851  1.0668 -0.1721
 2820TIP3   OH232654   6.154   0.653  19.350 -0.1782 -0.5186 -0.3869
 2820TIP3    H132655   6.176   0.590  19.418 -0.4436  0.1092  0.2868
 2820TIP3    H232656   6.092   0.607  19.294 -0.0607 -0.9907 -0.1339
 2821TIP3   OH232657   1.635   3.479  17.828 -0.4555 -0.7249 -0.3439
 2821TIP3    H132658   1.722   3.516  17.814  0.4470 -1.9847  1.4179
 2821TIP3    H232659   1.586   3.548  17.873 -0.9545  0.5699 -2.7164
 2822TIP3   OH232660   3.045   3.802  17.937 -0.4419 -0.4557 -0.1564
 2822TIP3    H132661   3.054   3.835  17.848 -0.2191 -0.2874 -0.0733
 2822TIP3    H232662   3.011   3.877  17.987  0.0733 -0.3462  0.0340
 2823TIP3   OH232663   2.329   6.444  17.305  0.0928  0.3464 -0.0365
 2823TIP3    H132664   2.366   6.469  17.221 -1.6862  0.7551 -0.7310
 2823TIP3    H232665   2.252   6.393  17.283 -0.1565  0.0873  1.3580
 2824TIP3   OH232666   0.400   6.932  17.982 -0.4360 -0.0271  0.0925
 2824TIP3    H132667   0.459   6.995  18.025  0.8897  0.0324 -1.6894
 2824TIP3    H232668   0.457   6.882  17.924 -1.5266 -2.6660  1.1663
 2825TIP3   OH232669   4.099   2.630  19.052 -0.1996 -0.1391  0.1615
 2825TIP3    H132670   4.008   2.641  19.079 -0.3133  0.2022 -0.3530
 2825TIP3    H232671   4.108   2.684  18.974  0.4029 -0.2996  0.1120
 2826TIP3   OH232672   0.702   5.451  16.701 -0.0245 -0.0880 -0.4240
 2826TIP3    H132673   0.613   5.424  16.679 -0.4398  0.9109 -0.0093
 2826TIP3    H232674   0.702   5.546  16.687  0.3809  0.2341  1.5483
 2827TIP3   OH232675   1.611   4.213  18.923 -0.4756  0.2196  0.2072
 2827TIP3    H132676   1.615   4.229  19.017 -1.5610 -1.0252  0.4995
 2827TIP3    H232677   1.550   4.279  18.890  0.0804  0.8014  0.3389
 2828TIP3   OH232678   1.444   3.458  17.606 -0.3090 -0.5352 -0.3015
 2828TIP3    H132679   1.485   3.495  17.684  3.6253 -2.2100 -1.2926
 2828TIP3    H232680   1.460   3.522  17.537 -1.4083 -0.2360 -0.2968
 2829TIP3   OH232681   7.292   5.895  16.698  0.4289 -0.0766  0.2256
 2829TIP3    H132682   7.291   5.800  16.710  0.9737 -0.0291  0.7216
 2829TIP3    H232683   7.203   5.923  16.718  0.3861 -0.4312  0.5446
 2830TIP3   OH232684   1.992   6.989  18.101 -0.0621 -0.4509  0.3071
 2830TIP3    H132685   2.062   6.929  18.074 -0.2746 -0.2649 -0.6887
 2830TIP3    H232686   1.914   6.935  18.104 -0.3049 -0.1832 -0.8541
 2831TIP3   OH232687   1.860   4.151  18.787  0.5339 -0.1303 -0.4236
 2831TIP3    H132688   1.843   4.230  18.736 -1.0249 -0.8402 -1.0683
 2831TIP3    H232689   1.839   4.176  18.877 -0.5143  0.0539 -0.7046
 2832TIP3   OH232690   6.726   6.182  18.673  0.2258 -0.5415  0.0755
 2832TIP3    H132691   6.632   6.187  18.657  0.0179 -0.1247  1.2493
 2832TIP3    H232692   6.756   6.273  18.670  0.4708 -0.6102  0.2999
 2833TIP3   OH232693   3.628   6.538  16.887  0.5058  0.0898 -0.5103
 2833TIP3    H132694   3.577   6.510  16.963 -0.5681 -1.9904 -1.9087
 2833TIP3    H232695   3.690   6.602  16.923 -1.6455  1.1450  1.6202
 2834TIP3   OH232696   2.398   4.915  16.457  0.2595  0.1730 -0.2081
 2834TIP3    H132697   2.483   4.891  16.420 -0.7761 -2.7790 -0.9022
 2834TIP3    H232698   2.394   4.868  16.540 -0.4879  0.7145  0.0683
 2835TIP3   OH232699   4.237   2.294  17.553 -0.6778  0.0537  0.2679
 2835TIP3    H132700   4.171   2.231  17.583 -1.3205 -0.3573 -1.8476
 2835TIP3    H232701   4.218   2.306  17.460  1.1617  1.2819  0.0043
 2836TIP3   OH232702   1.460   0.626  17.620 -0.6049 -0.2805 -0.3942
 2836TIP3    H132703   1.373   0.605  17.584 -1.4743 -0.5494  1.7150
 2836TIP3    H232704   1.442   0.685  17.693  1.0038 -0.3820  0.1208
 2837TIP3   OH232705   3.301   0.798  18.200 -0.0842 -0.0843  0.0067
 2837TIP3    H132706   3.326   0.802  18.107 -0.2280  4.3327 -0.0487
 2837TIP3    H232707   3.384   0.788  18.246  0.0394 -1.7431 -0.4988
 2838TIP3   OH232708   5.053   0.969  17.184  0.3563 -0.0858  0.0685
 2838TIP3    H132709   5.049   0.920  17.102 -0.6816 -0.7966  0.5256
 2838TIP3    H232710   5.051   1.061  17.156  1.6837 -0.2877 -0.7624
 2839TIP3   OH232711   3.368   5.595  19.116 -0.1088  0.4698 -0.2236
 2839TIP3    H132712   3.319   5.529  19.166 -1.1317  1.3730  0.0196
 2839TIP3    H232713   3.364   5.565  19.026 -0.4306  0.1095 -0.0918
 2840TIP3   OH232714   6.024   1.467  17.240 -0.0020 -0.0031 -0.0814
 2840TIP3    H132715   5.958   1.484  17.173 -1.2420  0.8226  1.2944
 2840TIP3    H232716   6.056   1.553  17.265 -0.2224 -0.2229  1.0209
 2841TIP3   OH232717   0.981   1.115  19.117  0.4285 -0.8208  0.4994
 2841TIP3    H132718   1.011   1.068  19.039  0.6855  0.2838 -0.0869
 2841TIP3    H232719   0.910   1.171  19.084 -0.0259 -0.9560  1.2312
 2842TIP3   OH232720   2.893   6.833  18.985  0.6759  0.1403  0.9249
 2842TIP3    H132721   2.894   6.796  19.073 -3.0784  1.1694  1.5669
 2842TIP3    H232722   2.868   6.759  18.929  0.1696  0.1221  1.1709
 2843TIP3   OH232723   2.760   2.313  17.606 -0.1828  0.1475 -0.8120
 2843TIP3    H132724   2.845   2.294  17.567  0.7678  0.6974  0.8965
 2843TIP3    H232725   2.733   2.231  17.648  0.8269  0.6918  0.9739
 2844TIP3   OH232726   4.293   0.422  17.211  0.0061 -0.0778  0.2227
 2844TIP3    H132727   4.251   0.503  17.184  2.4911  1.0040 -0.7403
 2844TIP3    H232728   4.259   0.404  17.298 -1.6729  1.1966 -0.1307
 2845TIP3   OH232729   1.112   4.277  17.674  0.0352  0.0123  0.7021
 2845TIP3    H132730   1.204   4.289  17.653  0.3870 -1.6732  1.1302
 2845TIP3    H232731   1.088   4.355  17.724  2.0699 -0.8222  3.2256
 2846TIP3   OH232732   1.673   6.902  16.923 -0.0569 -0.2280 -0.0219
 2846TIP3    H132733   1.616   6.976  16.902  0.8975  0.8080  0.9543
 2846TIP3    H232734   1.615   6.826  16.921 -1.5768  0.8290  1.3097
 2847TIP3   OH232735   1.926   0.523  16.823  0.6063 -0.2066 -0.8441
 2847TIP3    H132736   1.862   0.495  16.757  1.7283 -1.2773 -1.5161
 2847TIP3    H232737   2.001   0.554  16.772  0.8987  0.4187 -0.0638
 2848TIP3   OH232738   7.290   6.469  19.412 -0.1366  0.3544  0.4146
 2848TIP3    H132739   7.377   6.483  19.450 -0.7512  0.2145  1.9397
 2848TIP3    H232740   7.270   6.378  19.433 -0.5636  0.3204 -0.1333
 2849TIP3   OH232741   0.043   6.045  18.705 -0.0090  0.7356 -0.2534
 2849TIP3    H132742   0.096   6.001  18.638  0.4627  1.1232 -0.1373
 2849TIP3    H232743   0.105   6.096  18.756 -0.6432  2.1764 -0.8714
 2850TIP3   OH232744   5.106   1.931  18.448  0.0689 -0.1107 -0.1516
 2850TIP3    H132745   5.146   1.880  18.378  0.0413 -0.2992 -0.0320
 2850TIP3    H232746   5.148   2.017  18.443  0.1131 -0.1455 -0.3569
 2851TIP3   OH232747   2.195   0.162  18.083 -0.2019 -0.6900 -0.2459
 2851TIP3    H132748   2.131   0.107  18.128  0.5117 -0.0227  1.6705
 2851TIP3    H232749   2.250   0.099  18.035 -0.5585 -1.5011  0.3823
 2852TIP3   OH232750   4.768   5.885  17.305 -0.2304  0.3874  0.9136
 2852TIP3    H132751   4.762   5.790  17.297 -0.5459  0.3284  1.8000
 2852TIP3    H232752   4.709   5.918  17.237  0.4260 -0.0314  0.1221
 2853TIP3   OH232753   6.888   3.439  18.343 -0.4051 -0.3227 -0.4503
 2853TIP3    H132754   6.844   3.394  18.415  0.9876  0.0150  0.6548
 2853TIP3    H232755   6.952   3.375  18.310  0.7557  0.3922  0.3469
 2854TIP3   OH232756   2.080   6.523  18.900 -0.0995 -0.6334  0.3108
 2854TIP3    H132757   2.129   6.593  18.944 -0.8132  0.4067 -0.4978
 2854TIP3    H232758   1.989   6.554  18.901 -0.1916 -0.7548 -1.5359
 2855TIP3   OH232759   3.432   2.941  17.416  0.3510  0.4067  0.2213
 2855TIP3    H132760   3.492   2.891  17.360  0.3254  1.1319 -0.4874
 2855TIP3    H232761   3.380   2.992  17.354 -0.5862  0.2426  0.8605
 2856TIP3   OH232762   6.958   4.585  18.598 -0.1327 -0.1384 -0.0165
 2856TIP3    H132763   6.987   4.593  18.688 -0.6364  1.8742  0.0390
 2856TIP3    H232764   6.974   4.672  18.560 -1.5826 -0.3947 -1.3331
 2857TIP3   OH232765   1.807   1.468  18.296  0.3937  0.0834 -0.3206
 2857TIP3    H132766   1.730   1.498  18.247 -0.3774  0.2612  0.9665
 2857TIP3    H232767   1.776   1.458  18.386  2.4152  2.4469  0.7655
 2858TIP3   OH232768   3.880   4.531  18.628  0.5292 -0.1975  0.3070
 2858TIP3    H132769   3.940   4.595  18.666 -1.8530  1.4640  1.4987
 2858TIP3    H232770   3.894   4.452  18.680  2.3954 -0.2285 -0.1535
 2859TIP3   OH232771   1.344   1.805  17.684  0.4034  0.0478 -0.6234
 2859TIP3    H132772   1.397   1.733  17.650 -1.7052 -1.2678 -1.2954
 2859TIP3    H232773   1.267   1.808  17.628 -1.4017  0.2951  1.7056
 2860TIP3   OH232774   0.773   0.861  18.374 -0.3221 -0.0425 -0.7319
 2860TIP3    H132775   0.866   0.848  18.359 -0.1327 -2.2485  1.6646
 2860TIP3    H232776   0.730   0.798  18.316 -0.2890  0.3418 -1.1776
 2861TIP3   OH232777   5.795   6.037  18.241  0.0186  0.1308  0.3261
 2861TIP3    H132778   5.704   6.068  18.243 -0.0495 -0.0935  0.9553
 2861TIP3    H232779   5.806   5.990  18.324  1.2192  1.6429  1.0920
 2862TIP3   OH232780   0.015   2.000  17.250  0.2613  0.1122  0.7183
 2862TIP3    H132781  -0.024   1.979  17.335  0.6265 -2.1012  0.3922
 2862TIP3    H232782   0.051   2.088  17.262  0.6495 -0.2850  3.0048
 2863TIP3   OH232783   6.337   6.890  19.212 -0.3750  0.5481  0.3542
 2863TIP3    H132784   6.412   6.835  19.235 -0.6512  0.3776  0.8680
 2863TIP3    H232785   6.312   6.862  19.124  0.9015  1.4282 -0.3281
 2864TIP3   OH232786   5.226   1.343  19.215  0.2038 -0.3062 -0.6353
 2864TIP3    H132787   5.137   1.378  19.218 -0.0386 -0.9581  1.4814
 2864TIP3    H232788   5.216   1.250  19.234  1.2622 -0.5789 -1.3257
 2865TIP3   OH232789   2.908   4.610  17.711  0.1741  0.0793 -0.4779
 2865TIP3    H132790   2.866   4.633  17.794 -1.8250 -1.0230 -1.1075
 2865TIP3    H232791   2.928   4.694  17.670  0.2542  0.6323  0.6526
 2866TIP3   OH232792   4.455   2.310  19.405  0.2468 -0.2292 -0.0554
 2866TIP3    H132793   4.366   2.344  19.418  0.3745 -0.7763  2.9026
 2866TIP3    H232794   4.509   2.389  19.396 -0.1173  0.2918  1.7831
 2867TIP3   OH232795   1.752   3.687  17.228 -0.6130  0.2406  0.1470
 2867TIP3    H132796   1.775   3.608  17.178 -1.1867 -0.0604  0.3503
 2867TIP3    H232797   1.765   3.759  17.166  0.2549  0.0219  0.0637
 2868TIP3   OH232798   3.040   1.150  17.736  0.2437  0.0587  0.2097
 2868TIP3    H132799   2.968   1.205  17.704  1.5021  1.3758 -0.4957
 2868TIP3    H232800   3.067   1.100  17.660  0.6962  0.2870  0.2200
 2869TIP3   OH232801   2.996   6.493  17.335  0.0078 -0.2528  0.3012
 2869TIP3    H132802   3.046   6.563  17.376 -0.0360 -0.1464  0.1731
 2869TIP3    H232803   3.042   6.476  17.252 -0.7890  0.5808 -0.3235
 2870TIP3   OH232804   5.842   5.226  17.135 -0.3949  0.1635 -0.3060
 2870TIP3    H132805   5.892   5.219  17.054  0.3129 -1.1552  0.2154
 2870TIP3    H232806   5.754   5.251  17.107 -0.2552 -0.6170 -1.5192
 2871TIP3   OH232807   5.041   2.251  17.078 -0.1588  0.4661 -0.4362
 2871TIP3    H132808   5.134   2.267  17.065  0.6626 -2.0971  1.4416
 2871TIP3    H232809   5.026   2.163  17.042 -1.6423  0.4585  0.1158
 2872TIP3   OH232810   4.873   3.325  17.083 -0.2984  0.1470  0.3162
 2872TIP3    H132811   4.911   3.253  17.032  0.6067  0.1661  0.9438
 2872TIP3    H232812   4.928   3.401  17.063 -1.8015  0.9362 -1.0792
 2873TIP3   OH232813   7.429   4.486  19.171  0.1600 -0.0342 -0.4104
 2873TIP3    H132814   7.462   4.445  19.091  0.2872  0.2653 -0.5125
 2873TIP3    H232815   7.466   4.434  19.242 -1.9138 -1.8516 -0.5447
 2874TIP3   OH232816   3.907   6.847  17.523  0.4727 -0.0918 -0.1129
 2874TIP3    H132817   3.880   6.860  17.433  0.6836 -3.1345 -0.7300
 2874TIP3    H232818   3.827   6.852  17.574  0.3256  1.4473 -0.4575
 2875TIP3   OH232819   2.287   7.470  17.155  0.7463 -0.2186  0.7137
 2875TIP3    H132820   2.255   7.381  17.140  1.5688 -0.3607 -0.3459
 2875TIP3    H232821   2.220   7.511  17.210 -0.2946 -1.0741  0.1197
 2876TIP3   OH232822   5.119   4.086  17.839  0.6990 -0.4154 -0.1599
 2876TIP3    H132823   5.049   4.066  17.777  0.0311 -0.0705  0.4532
 2876TIP3    H232824   5.113   4.017  17.905  1.4884 -0.8547 -0.5419
 2877TIP3   OH232825   1.324   4.572  19.386  0.5823  0.6048 -0.0807
 2877TIP3    H132826   1.344   4.665  19.377 -2.6989  1.4512  0.0373
 2877TIP3    H232827   1.282   4.565  19.472  1.8072 -1.2492  0.4254
 2878TIP3   OH232828   4.748   6.617  17.268  0.6076  0.1779 -0.0171
 2878TIP3    H132829   4.776   6.529  17.244  0.3554  0.2625 -0.6489
 2878TIP3    H232830   4.702   6.650  17.191 -1.2651  0.0233  0.9721
 2879TIP3   OH232831   6.245   7.448  17.081 -0.2738 -0.1641  0.7990
 2879TIP3    H132832   6.219   7.503  17.155 -2.4420 -1.8610  1.4108
 2879TIP3    H232833   6.262   7.362  17.120 -0.0826 -0.7484 -0.5205
 2880TIP3   OH232834   5.137   1.003  18.031  0.1821  0.0241 -0.1402
 2880TIP3    H132835   5.113   0.936  17.967 -2.4703 -0.1943  0.9349
 2880TIP3    H232836   5.105   0.968  18.115  0.6558  1.6880  0.7782
 2881TIP3   OH232837   6.476   4.492  18.591  0.1078 -0.1484 -0.2517
 2881TIP3    H132838   6.469   4.404  18.555 -2.6793 -0.8872  1.7626
 2881TIP3    H232839   6.391   4.533  18.571 -0.3228  0.5149  2.5026
 2882TIP3   OH232840   7.169   1.219  19.193 -0.3641 -0.0008  0.3477
 2882TIP3    H132841   7.245   1.253  19.146  0.0225  2.6374  2.5900
 2882TIP3    H232842   7.121   1.297  19.221 -2.9665 -1.5487  0.5507
 2883TIP3   OH232843   5.496   5.922  17.984 -0.2988 -0.2250 -0.2503
 2883TIP3    H132844   5.425   5.926  18.048 -0.4060 -1.4005 -0.2832
 2883TIP3    H232845   5.485   5.838  17.940  0.5902 -0.0383 -0.8671
 2884TIP3   OH232846   0.088   1.303  17.820 -0.1903 -0.4396 -0.1046
 2884TIP3    H132847   0.110   1.269  17.733  0.0529 -1.2187  0.2434
 2884TIP3    H232848   0.126   1.239  17.881  0.6204  0.6722  0.6008
 2885TIP3   OH232849   4.923   5.851  18.339  0.8250  0.1016 -0.0589
 2885TIP3    H132850   4.904   5.920  18.403  1.7329 -0.4975  0.8917
 2885TIP3    H232851   4.909   5.769  18.387  0.6964 -0.3698 -0.8869
 2886TIP3   OH232852   0.465   5.516  18.106  0.2670 -0.4134  0.2214
 2886TIP3    H132853   0.551   5.494  18.141  0.3356 -0.3575  0.0900
 2886TIP3    H232854   0.462   5.474  18.020 -0.3646 -1.5577  0.7805
 2887TIP3   OH232855   5.958   1.346  16.810  0.0341  0.1592 -0.0533
 2887TIP3    H132856   5.863   1.346  16.807 -0.0889  0.3911  2.0727
 2887TIP3    H232857   5.984   1.436  16.791 -0.2967  0.4784  0.9269
 2888TIP3   OH232858   3.224   2.188  18.995 -0.0273  0.4679 -0.0111
 2888TIP3    H132859   3.272   2.109  19.020 -0.5606 -0.4700 -1.7736
 2888TIP3    H232860   3.255   2.255  19.056 -0.0428 -1.2333  1.9757
 2889TIP3   OH232861   2.378   7.386  18.360  0.2810 -0.1697  0.0005
 2889TIP3    H132862   2.350   7.346  18.277  2.5058 -1.5152 -0.1968
 2889TIP3    H232863   2.305   7.370  18.420 -0.0794 -2.0850 -0.8630
 2890TIP3   OH232864   3.833   0.363  17.375  0.2575  0.0343 -0.0443
 2890TIP3    H132865   3.863   0.319  17.455  1.6885  0.9352 -0.0576
 2890TIP3    H232866   3.741   0.383  17.393  0.0964 -1.2264  0.7130
 2891TIP3   OH232867   4.321   7.194  17.296 -0.0254 -0.3970 -0.2108
 2891TIP3    H132868   4.353   7.211  17.384  0.7274 -0.7005 -0.4185
 2891TIP3    H232869   4.387   7.137  17.257 -0.3993 -0.3418 -0.9394
 2892TIP3   OH232870   7.228   1.492  18.808  0.3060  0.0946  0.0910
 2892TIP3    H132871   7.201   1.530  18.891 -1.4928  1.0518 -0.8763
 2892TIP3    H232872   7.323   1.486  18.814  0.2103 -0.0108  2.2502
 2893TIP3   OH232873   1.478   2.652  17.103 -0.2523 -0.1039  0.6322
 2893TIP3    H132874   1.548   2.646  17.038 -1.4697  0.6344 -0.8139
 2893TIP3    H232875   1.404   2.606  17.063 -0.8643 -0.1600  1.7689
 2894TIP3   OH232876   2.471   3.530  18.347 -0.4165 -0.5709  0.0843
 2894TIP3    H132877   2.550   3.568  18.308 -0.1597 -1.8656 -0.7051
 2894TIP3    H232878   2.503   3.483  18.424 -0.8931  1.7786  1.8459
 2895TIP3   OH232879   4.647   3.019  17.807 -0.2177  0.0201  0.1395
 2895TIP3    H132880   4.667   2.968  17.886  1.3350 -1.6281 -1.2322
 2895TIP3    H232881   4.611   2.955  17.746  0.6678  0.7893 -1.2228
 2896TIP3   OH232882   4.670   1.092  17.923  0.2922 -0.0695 -0.5927
 2896TIP3    H132883   4.707   1.029  17.861  1.2090 -0.7424  0.5796
 2896TIP3    H232884   4.663   1.043  18.005 -1.2917  0.6677 -0.2405
 2897TIP3   OH232885   6.492   1.399  18.611  0.6313  0.0436  0.3804
 2897TIP3    H132886   6.496   1.454  18.533  0.3420  0.4414  0.6454
 2897TIP3    H232887   6.584   1.383  18.634  0.7228  0.8571  0.6087
 2898TIP3   OH232888   5.156   2.424  17.477 -0.2386  0.0915 -0.1583
 2898TIP3    H132889   5.214   2.383  17.541 -1.3854 -0.3312  0.6431
 2898TIP3    H232890   5.211   2.436  17.399  1.1158  0.3893  0.8019
 2899TIP3   OH232891   5.983   4.457  17.019  0.1463  0.5043  0.2931
 2899TIP3    H132892   6.026   4.536  16.986  1.1002 -1.0152 -2.4709
 2899TIP3    H232893   6.039   4.428  17.091  1.7066  0.6230 -0.8041
 2900TIP3   OH232894   0.448   3.238  16.922  0.3954 -0.1520  0.2913
 2900TIP3    H132895   0.452   3.324  16.879  1.0045  0.3009  1.2295
 2900TIP3    H232896   0.509   3.183  16.872 -0.0232 -0.0582 -0.3336
 2901TIP3   OH232897   3.953   7.423  17.878 -0.5304  0.4734  0.4822
 2901TIP3    H132898   3.899   7.360  17.926 -1.6617  0.2283 -1.0338
 2901TIP3    H232899   4.043   7.398  17.898 -0.9153 -2.1851 -0.7472
 2902TIP3   OH232900   7.638   5.016  17.248  0.0081 -0.6150 -0.0820
 2902TIP3    H132901   7.553   5.017  17.205 -1.4260 -1.3641  2.5096
 2902TIP3    H232902   7.702   5.020  17.177 -1.9585 -6.4806 -2.7498
 2903TIP3   OH232903   2.560   6.148  17.961  0.2022  0.0945 -0.3315
 2903TIP3    H132904   2.560   6.138  18.056  0.9120  1.6414 -0.1364
 2903TIP3    H232905   2.498   6.082  17.930 -0.9134  0.3216  1.2858
 2904TIP3   OH232906   5.306   3.151  17.969 -0.0512  0.4705  0.5026
 2904TIP3    H132907   5.347   3.235  17.948  2.2904 -0.6999  0.0304
 2904TIP3    H232908   5.233   3.143  17.908 -0.0401  1.9336  0.2641
 2905TIP3   OH232909   4.779   3.838  16.827  0.5161  0.4477  0.5016
 2905TIP3    H132910   4.729   3.770  16.875  2.5012 -0.7540  0.9718
 2905TIP3    H232911   4.791   3.801  16.739  1.6530  0.1217  0.7752
 2906TIP3   OH232912   5.157   7.388  19.214 -0.9240  0.2546 -0.0763
 2906TIP3    H132913   5.089   7.367  19.150 -1.6074  1.2104  0.3114
 2906TIP3    H232914   5.110   7.432  19.285  0.0334  0.5012  0.4207
 2907TIP3   OH232915   1.053   0.968  18.894  0.5258 -0.6721 -0.3129
 2907TIP3    H132916   1.144   0.938  18.887 -0.0855 -2.4346 -1.3760
 2907TIP3    H232917   1.038   1.017  18.814  0.2524 -1.2397 -0.6116
 2908TIP3   OH232918   5.729   7.162  18.138 -0.3718  0.0515 -0.4322
 2908TIP3    H132919   5.816   7.186  18.169 -0.7192 -0.2454  0.8403
 2908TIP3    H232920   5.736   7.162  18.043  0.7539  1.0098 -0.3694
 2909TIP3   OH232921   6.714   7.512  18.881  0.4859 -0.3975 -0.7344
 2909TIP3    H132922   6.804   7.540  18.895  0.7929 -1.0446 -1.3496
 2909TIP3    H232923   6.721   7.420  18.858 -0.4523 -0.8391  0.6125
 2910TIP3   OH232924   6.827   1.877  17.910  0.5288 -0.3520 -0.4937
 2910TIP3    H132925   6.770   1.816  17.863 -1.0591 -0.6042  1.6351
 2910TIP3    H232926   6.829   1.955  17.855 -2.2239 -0.1781 -0.4714
 2911TIP3   OH232927   0.403   5.122  17.947 -0.8201  0.1162  0.1071
 2911TIP3    H132928   0.372   5.126  18.037  2.1345 -1.0806  1.3191
 2911TIP3    H232929   0.344   5.061  17.903 -1.7860  0.0261  1.4881
 2912TIP3   OH232930   4.494   3.777  19.575 -0.3640  0.4345 -0.1265
 2912TIP3    H132931   4.560   3.826  19.624 -1.6711  0.6712  1.5102
 2912TIP3    H232932   4.488   3.693  19.621 -0.7036  0.1604 -0.6667
 2913TIP3   OH232933   7.344   7.079  17.636  0.3086 -0.5519  0.5629
 2913TIP3    H132934   7.396   7.135  17.694 -1.3310 -0.1399  1.6859
 2913TIP3    H232935   7.359   6.990  17.668  1.8654 -0.6763 -0.3961
 2914TIP3   OH232936   5.136   7.148  17.734 -0.3831 -0.1787  0.1905
 2914TIP3    H132937   5.171   7.061  17.716  0.6806  0.2403  0.1372
 2914TIP3    H232938   5.068   7.134  17.799 -1.1052 -1.1879 -0.7376
 2915TIP3   OH232939   7.660   7.404  18.315 -0.5350 -0.4374  0.2902
 2915TIP3    H132940   7.696   7.486  18.350  1.5831 -0.2378 -2.0601
 2915TIP3    H232941   7.676   7.340  18.384  0.2520  0.6082  1.1266
 2916TIP3   OH232942   4.519   4.341  16.914  0.7585  0.8056 -0.4091
 2916TIP3    H132943   4.556   4.302  16.994  0.8892 -0.7436 -1.1838
 2916TIP3    H232944   4.589   4.397  16.880  0.0803  2.9733  1.4657
 2917TIP3   OH232945   2.371   7.058  17.683  0.3151 -0.0372 -0.0981
 2917TIP3    H132946   2.335   7.131  17.633  0.5239 -1.1467 -1.9737
 2917TIP3    H232947   2.350   7.078  17.774  0.3533  2.3268 -0.5475
 2918TIP3   OH232948   1.588   3.189  18.741  0.3605  0.0801  0.0145
 2918TIP3    H132949   1.570   3.117  18.680  3.2231 -1.3198  0.6526
 2918TIP3    H232950   1.575   3.268  18.689 -1.5194 -0.9034 -1.1163
 2919TIP3   OH232951   2.800   0.316  17.247 -0.4306  0.9365  0.6013
 2919TIP3    H132952   2.884   0.286  17.281 -0.0081  0.9171 -0.4156
 2919TIP3    H232953   2.823   0.370  17.171 -1.3679  0.0968 -0.3133
 2920TIP3   OH232954   2.344   5.717  16.345  0.2435 -0.1113  0.0209
 2920TIP3    H132955   2.304   5.655  16.407 -0.2433  0.1501 -0.0245
 2920TIP3    H232956   2.384   5.661  16.278 -0.8090 -0.3878 -0.4075
 2921TIP3   OH232957   3.589   2.282  17.947 -0.3122  0.0271 -0.1067
 2921TIP3    H132958   3.573   2.376  17.932  1.0413  0.0290 -1.9219
 2921TIP3    H232959   3.502   2.244  17.955 -1.2214  0.8346 -3.8657
 2922TIP3   OH232960   2.761   7.151  16.975 -0.0409  0.2841 -0.0184
 2922TIP3    H132961   2.767   7.075  16.918  0.0883 -0.8915  1.4852
 2922TIP3    H232962   2.746   7.225  16.916  0.4419 -0.8111 -1.5665
 2923TIP3   OH232963   1.341   0.983  18.873 -0.0335 -0.5329 -0.2586
 2923TIP3    H132964   1.379   0.951  18.955 -1.4076  1.6886  1.3969
 2923TIP3    H232965   1.388   1.065  18.856 -2.2526  1.0182  0.5306
 2924TIP3   OH232966   3.168   4.970  18.127 -0.2582  0.0666 -0.2694
 2924TIP3    H132967   3.258   4.965  18.157 -0.0565  0.3954 -0.7971
 2924TIP3    H232968   3.123   4.897  18.169  0.0156  0.5073  0.7977
 2925TIP3   OH232969   1.007   4.057  17.796 -0.6423  0.0899  0.4915
 2925TIP3    H132970   1.052   4.129  17.754  0.6629  1.8455  4.4312
 2925TIP3    H232971   1.077   4.005  17.837 -1.7596 -1.7617  0.1887
 2926TIP3   OH232972   3.781   5.875  19.760  0.1341 -0.1748 -0.2231
 2926TIP3    H132973   3.767   5.832  19.675  0.2870 -1.7587  0.5182
 2926TIP3    H232974   3.837   5.814  19.808  1.1558  1.3196  0.5580
 2927TIP3   OH232975   7.421   7.493  17.636 -0.3122 -0.6413  0.1091
 2927TIP3    H132976   7.459   7.572  17.672  0.0399 -0.5418 -0.4698
 2927TIP3    H232977   7.470   7.421  17.676 -0.0954 -0.5399  0.0243
 2928TIP3   OH232978   2.002   1.433  17.706  0.0633 -0.0306  0.6454
 2928TIP3    H132979   1.958   1.357  17.746 -0.2091 -0.6747 -0.8112
 2928TIP3    H232980   1.957   1.509  17.744  0.7570 -0.5457  2.6139
 2929TIP3   OH232981   7.414   6.796  19.016  0.2793  0.5860  0.6206
 2929TIP3    H132982   7.504   6.791  19.048  0.0670 -1.8268  1.0301
 2929TIP3    H232983   7.416   6.750  18.931 -0.3957  1.3260  0.1956
 2930TIP3   OH232984   7.453   2.810  17.852  0.4672 -0.2437 -0.1545
 2930TIP3    H132985   7.486   2.752  17.921 -1.8860 -1.5004  0.0274
 2930TIP3    H232986   7.481   2.897  17.879  0.8810 -0.8740  1.6169
 2931TIP3   OH232987   0.463   6.746  18.940  0.1996  0.1198 -0.0745
 2931TIP3    H132988   0.427   6.835  18.933  0.7021  0.3954  0.6964
 2931TIP3    H232989   0.387   6.689  18.928 -0.1844  0.6509 -0.2688
 2932TIP3   OH232990   4.993   2.613  16.636  0.3305 -0.4288  0.2023
 2932TIP3    H132991   5.042   2.679  16.586 -0.7560 -0.3757 -0.8589
 2932TIP3    H232992   4.996   2.535  16.582  0.9644 -1.0386  1.1001
 2933TIP3   OH232993   2.284   5.087  17.786 -0.6596 -0.2004 -0.2794
 2933TIP3    H132994   2.234   5.006  17.781 -1.1221  0.1213 -0.8773
 2933TIP3    H232995   2.273   5.116  17.877 -0.9145 -0.5367 -0.1989
 2934TIP3   OH232996   0.016   2.383  19.453  0.3075 -0.5522  0.2555
 2934TIP3    H132997   0.017   2.295  19.413  3.1350 -0.3824 -0.2359
 2934TIP3    H232998   0.081   2.378  19.523  0.6176  1.1840  0.1201
 2935TIP3   OH232999   2.005   5.455  18.646 -0.2723  0.3536  0.0355
 2935TIP3    H133000   2.055   5.530  18.613 -0.9311  1.4392  1.4057
 2935TIP3    H233001   2.065   5.381  18.639  0.8058  1.2343 -0.2745
 2936TIP3   OH233002   1.055   4.305  16.613  0.2215 -0.1798 -0.8879
 2936TIP3    H133003   1.006   4.333  16.536 -0.7369  1.5783  0.3066
 2936TIP3    H233004   1.010   4.225  16.642 -1.6100  1.0262 -0.2108
 2937TIP3   OH233005   7.471   6.095  17.830  0.5502 -0.0940 -0.5518
 2937TIP3    H133006   7.397   6.089  17.890  0.1531 -1.7624 -1.1599
 2937TIP3    H233007   7.518   6.174  17.858 -0.8172  0.3704  0.5528
 2938TIP3   OH233008   1.430   2.912  17.165 -0.1438  0.6351 -0.0697
 2938TIP3    H133009   1.431   2.819  17.142 -0.2988  0.9563 -1.4699
 2938TIP3    H233010   1.349   2.945  17.126 -0.5661  1.1741  1.2269
 2939TIP3   OH233011   5.916   5.500  19.166  0.2276  0.1126  0.2200
 2939TIP3    H133012   5.860   5.525  19.092 -0.7454 -0.4856  0.7352
 2939TIP3    H233013   5.978   5.438  19.129 -0.2258 -0.1507 -0.1104
 2940TIP3   OH233014   5.317   5.532  17.888  0.1764 -0.2331 -0.3865
 2940TIP3    H133015   5.405   5.568  17.888 -0.3247  1.1460  1.6476
 2940TIP3    H233016   5.328   5.440  17.862  2.0774  0.1172 -0.9380
 2941TIP3   OH233017   0.864   4.837  19.019 -0.3247 -0.2268  0.8324
 2941TIP3    H133018   0.887   4.929  19.011  0.9729 -0.5224  0.9662
 2941TIP3    H233019   0.912   4.806  19.095  1.4801 -1.6427 -0.7860
 2942TIP3   OH233020   3.276   2.657  19.330  0.1313  0.1354  0.2153
 2942TIP3    H133021   3.292   2.729  19.269  0.0303 -0.6169 -0.7198
 2942TIP3    H233022   3.364   2.627  19.354  0.1866 -0.9994 -1.3118
 2943TIP3   OH233023   6.560   2.560  19.362  0.0903  0.1116 -0.0673
 2943TIP3    H133024   6.560   2.491  19.296  1.0643 -0.8712  0.9223
 2943TIP3    H233025   6.640   2.546  19.413 -0.7617  0.6436  1.5114
 2944TIP3   OH233026   3.876   3.048  18.825 -0.3743  0.4102  0.1439
 2944TIP3    H133027   3.839   3.110  18.762 -0.0802  0.5982  0.1496
 2944TIP3    H233028   3.857   2.962  18.789  2.6477  0.4507 -2.0055
 2945TIP3   OH233029   2.856   6.055  18.123 -0.3812  0.2089  0.6230
 2945TIP3    H133030   2.775   6.094  18.156  0.4337  0.0387  3.0765
 2945TIP3    H233031   2.884   6.113  18.052 -1.2823  1.7931  1.4975
 2946TIP3   OH233032   6.799   2.657  17.855  0.0104  0.0791  0.6236
 2946TIP3    H133033   6.779   2.599  17.929 -0.3563 -1.7651 -0.8354
 2946TIP3    H233034   6.872   2.614  17.810 -0.1589  0.8462 -0.4142
 2947TIP3   OH233035   3.589   6.298  17.518  0.0602  0.0981  0.0494
 2947TIP3    H133036   3.590   6.296  17.423  0.7553  1.2178  0.0133
 2947TIP3    H233037   3.669   6.252  17.543  0.3841  0.6574  0.0568
 2948TIP3   OH233038   0.089   4.596  17.675  0.0067  0.0153  0.0776
 2948TIP3    H133039   0.182   4.600  17.700  0.1754  0.1512 -0.5576
 2948TIP3    H233040   0.070   4.683  17.640 -0.5133  0.1617  0.7166
 2949TIP3   OH233041   5.671   5.249  18.446 -0.4935  0.0660 -1.0217
 2949TIP3    H133042   5.616   5.207  18.379  0.7950 -1.0641 -1.4276
 2949TIP3    H233043   5.719   5.317  18.398  0.1136 -0.4617 -1.1878
 2950TIP3   OH233044   3.137   3.532  18.353 -0.1635  0.1584  0.0908
 2950TIP3    H133045   3.085   3.571  18.424  1.5992 -0.0082  1.5355
 2950TIP3    H233046   3.115   3.439  18.356 -0.3410  0.2029  0.1966
 2951TIP3   OH233047   1.531   2.947  18.588 -0.6198  0.1946 -0.2627
 2951TIP3    H133048   1.551   2.951  18.495 -2.3860 -1.7881 -0.8124
 2951TIP3    H233049   1.595   2.886  18.624 -1.3655 -0.8593 -0.6769
 2952TIP3   OH233050   0.948   6.714  16.697  0.0139  0.0678 -0.3089
 2952TIP3    H133051   0.997   6.663  16.632  1.4405 -0.8099  1.3679
 2952TIP3    H233052   1.012   6.774  16.735 -1.4063  2.5487 -1.5287
 2953TIP3   OH233053   1.438   5.380  17.112 -0.2444  0.0079  0.0017
 2953TIP3    H133054   1.373   5.322  17.073 -1.8570  0.0791  2.3418
 2953TIP3    H233055   1.440   5.355  17.205  2.2463  0.8201  0.2348
 2954TIP3   OH233056   3.566   6.310  17.229 -0.2914  0.2011  0.6766
 2954TIP3    H133057   3.527   6.317  17.142  1.9323  3.3112 -0.2583
 2954TIP3    H233058   3.622   6.232  17.223 -2.6123 -1.6060  0.5739
 2955TIP3   OH233059   0.922   4.307  17.975  0.5315 -0.2409 -0.5397
 2955TIP3    H133060   0.966   4.240  17.922  0.9853 -0.5446  0.1915
 2955TIP3    H233061   0.891   4.259  18.052  1.0941  0.4241  0.1206
 2956TIP3   OH233062   6.154   4.679  18.164  0.1875  0.2990  0.0194
 2956TIP3    H133063   6.084   4.644  18.220  1.6689 -1.2367  1.0465
 2956TIP3    H233064   6.200   4.601  18.133  0.0470  1.1675 -2.5854
 2957TIP3   OH233065   6.463   5.907  17.396  0.6736 -0.3590 -0.4997
 2957TIP3    H133066   6.504   5.993  17.407 -1.5374  0.5491  1.3242
 2957TIP3    H233067   6.491   5.857  17.473 -0.1386 -0.3541 -0.1936
 2958TIP3   OH233068   0.537   7.394  19.306  0.3864  0.2669  0.5905
 2958TIP3    H133069   0.587   7.340  19.245 -0.0487 -0.3372  0.7632
 2958TIP3    H233070   0.573   7.373  19.392  2.4914  2.6924  0.4331
 2959TIP3   OH233071   2.549   4.123  16.931 -0.5686 -0.0626 -0.7547
 2959TIP3    H133072   2.458   4.094  16.937 -0.1345 -1.4484 -0.4411
 2959TIP3    H233073   2.600   4.050  16.969  0.5556  1.3523  0.6017
 2960TIP3   OH233074   3.852   5.054  19.057  0.6439  0.2543 -0.4719
 2960TIP3    H133075   3.774   5.074  19.109  1.2241  1.2702  0.0349
 2960TIP3    H233076   3.883   5.139  19.026  0.9415 -0.2359 -1.5715
 2961TIP3   OH233077   6.236   6.918  16.666  0.0539 -0.2005 -0.2421
 2961TIP3    H133078   6.205   6.885  16.751 -0.6169 -0.1365 -0.4530
 2961TIP3    H233079   6.283   6.845  16.627 -0.7186 -0.6509 -0.3502
 2962TIP3   OH233080   2.300   0.676  18.008 -0.0009 -0.1694 -0.0146
 2962TIP3    H133081   2.307   0.761  18.052  0.9180 -0.1837 -0.1084
 2962TIP3    H233082   2.391   0.649  17.994 -0.2358  0.1474 -2.5394
 2963TIP3   OH233083   3.527   4.746  18.352  0.1574 -0.7751 -0.5823
 2963TIP3    H133084   3.606   4.697  18.373  0.8943  0.1334 -1.1617
 2963TIP3    H233085   3.523   4.815  18.418 -0.1595 -0.8179 -0.5524
 2964TIP3   OH233086   3.939   7.046  18.455 -0.1453  0.3760 -0.1546
 2964TIP3    H133087   3.917   6.994  18.533 -1.3765 -1.2826 -1.5181
 2964TIP3    H233088   3.928   7.137  18.482  2.0779  0.0256  2.3411
 2965TIP3   OH233089   3.052   0.700  19.433  0.0529 -0.1895  0.3302
 2965TIP3    H133090   3.093   0.758  19.498 -1.3763  0.7411  0.4488
 2965TIP3    H233091   3.053   0.752  19.352 -0.9797 -0.0924  0.3700
 2966TIP3   OH233092   4.410   7.206  17.563  0.3926 -0.3044  0.1051
 2966TIP3    H133093   4.343   7.148  17.597 -2.2234  2.1281 -0.5002
 2966TIP3    H233094   4.440   7.256  17.639 -0.2440  0.2435  0.0000
 2967TIP3   OH233095   3.271   2.394  17.890 -0.2490 -0.1878 -0.2471
 2967TIP3    H133096   3.289   2.303  17.915  1.2047 -0.8120 -3.0418
 2967TIP3    H233097   3.180   2.394  17.862 -0.3476 -0.7272  0.0630
 2968TIP3   OH233098   2.557   4.184  17.286 -0.1711  0.3926  0.4043
 2968TIP3    H133099   2.536   4.091  17.286 -0.3391  0.4058 -1.1857
 2968TIP3    H233100   2.499   4.222  17.352  1.4102 -0.8992  2.6857
 2969TIP3   OH233101   1.099   6.946  16.522  0.5689  0.0946  0.2514
 2969TIP3    H133102   1.023   6.898  16.490  0.4830  0.6476 -0.3985
 2969TIP3    H233103   1.115   6.910  16.610  1.1532 -1.8535 -0.6061
 2970TIP3   OH233104   2.086   0.866  17.571  0.2017 -0.0561  0.1005
 2970TIP3    H133105   2.030   0.939  17.598  0.2784 -0.4344  1.3442
 2970TIP3    H233106   2.129   0.838  17.651 -0.0839 -1.6834 -0.2758
 2971TIP3   OH233107   6.881   4.492  18.294  0.0645 -0.1032 -0.0265
 2971TIP3    H133108   6.927   4.492  18.378  0.0501 -0.4180 -0.0164
 2971TIP3    H233109   6.865   4.584  18.275  0.4335 -0.0057  0.1159
 2972TIP3   OH233110   1.155   4.486  16.813 -0.1903 -0.1271  0.5840
 2972TIP3    H133111   1.097   4.431  16.866 -1.0210  1.4097  1.3348
 2972TIP3    H233112   1.141   4.457  16.723 -2.1662  0.2172  0.7430
 2973TIP3   OH233113   1.820   6.041  19.260  0.1186  0.0751 -0.7483
 2973TIP3    H133114   1.777   5.957  19.275  0.7308 -0.2185 -0.5732
 2973TIP3    H233115   1.753   6.096  19.220 -1.2508  0.4732  1.8517
 2974TIP3   OH233116   2.033   0.973  18.643 -0.1642  0.0894 -0.0439
 2974TIP3    H133117   1.983   0.897  18.614  2.3888 -1.8325  0.2593
 2974TIP3    H233118   2.053   0.956  18.735 -1.4752  2.3259  0.7546
 2975TIP3   OH233119   5.868   6.556  19.020 -0.3324  0.3604  0.0659
 2975TIP3    H133120   5.861   6.651  19.011 -0.8705  0.4407  1.1024
 2975TIP3    H233121   5.915   6.543  19.103 -0.7910 -0.2727  0.2357
 2976TIP3   OH233122   2.347   4.436  19.526  0.6581 -0.2708  0.3643
 2976TIP3    H133123   2.315   4.526  19.527 -1.6614 -1.0285  1.3055
 2976TIP3    H233124   2.427   4.440  19.473  0.0635  2.1337 -0.5124
 2977TIP3   OH233125   6.060   7.317  17.921  0.6879 -0.0890  0.1376
 2977TIP3    H133126   5.980   7.276  17.887 -0.3721  0.8938  1.3132
 2977TIP3    H233127   6.073   7.276  18.007  0.3410  1.0761  0.7732
 2978TIP3   OH233128   7.377   0.960  19.367 -0.1723 -0.2738 -0.7065
 2978TIP3    H133129   7.309   0.948  19.301  1.8138  0.9444 -3.1374
 2978TIP3    H233130   7.358   1.044  19.407  0.6704  0.8217 -2.4834
 2979TIP3   OH233131   1.525   1.626  18.411 -0.2590 -0.0892  0.6365
 2979TIP3    H133132   1.514   1.713  18.450 -0.4721 -0.7506  2.1315
 2979TIP3    H233133   1.545   1.569  18.485  0.2295 -1.2656 -0.3641
 2980TIP3   OH233134   4.128   5.986  16.860 -0.0692  0.0449  0.1266
 2980TIP3    H133135   4.200   5.977  16.922  0.6224 -1.8899 -0.8668
 2980TIP3    H233136   4.076   5.907  16.872 -1.5038  0.9472  0.1245
 2981TIP3   OH233137   3.864   0.042  16.403  0.2632  0.0087  0.1094
 2981TIP3    H133138   3.856  -0.031  16.465 -1.6827 -0.8163 -1.0264
 2981TIP3    H233139   3.945   0.087  16.429  2.4720 -3.4532 -0.0970
 2982TIP3   OH233140   1.025   7.171  18.874  0.6217 -0.4013 -0.1432
 2982TIP3    H133141   1.037   7.138  18.963 -0.4795  0.5452  0.3792
 2982TIP3    H233142   0.996   7.095  18.824 -0.0837 -0.6612  0.6300
 2983TIP3   OH233143   1.147   4.903  18.214  0.1570 -0.5013 -0.3521
 2983TIP3    H133144   1.106   4.984  18.185 -0.4686 -0.9334 -0.7188
 2983TIP3    H233145   1.089   4.870  18.283  1.4316  0.3233  1.1771
 2984TIP3   OH233146   6.162   6.580  18.406 -0.0998 -0.0710 -0.3730
 2984TIP3    H133147   6.094   6.532  18.358  0.0667 -0.6320 -0.0604
 2984TIP3    H233148   6.155   6.670  18.375 -0.7242 -0.2076 -0.6331
 2985TIP3   OH233149   4.288   1.617  16.826  0.1173  0.3079 -0.3436
 2985TIP3    H133150   4.328   1.703  16.820  2.2140 -0.6425 -1.2710
 2985TIP3    H233151   4.312   1.585  16.913 -0.5155  0.5805 -0.0648
 2986TIP3   OH233152   5.259   6.719  18.722 -0.0936 -1.1898  0.0316
 2986TIP3    H133153   5.301   6.726  18.808  0.0969  1.0654 -0.1940
 2986TIP3    H233154   5.331   6.707  18.661 -0.1502 -1.8069  0.0837
 2987TIP3   OH233155   2.014   4.390  17.804  0.1678 -0.3846 -0.1072
 2987TIP3    H133156   2.075   4.319  17.821  0.8627  0.3749  0.6938
 2987TIP3    H233157   1.946   4.351  17.749 -0.4010 -2.1161  1.7220
 2988TIP3   OH233158   6.574   1.332  17.138  0.3444  0.5156  0.0872
 2988TIP3    H133159   6.525   1.414  17.133  0.8419  0.8870  1.0144
 2988TIP3    H233160   6.631   1.334  17.061 -0.2652  0.6215 -0.3682
 2989TIP3   OH233161   2.116   3.889  17.995  0.4381  0.0082  0.1709
 2989TIP3    H133162   2.041   3.841  17.961  0.6908  0.4737 -1.1018
 2989TIP3    H233163   2.175   3.822  18.030 -0.3055 -0.3999  0.6606
 2990TIP3   OH233164   3.384   3.400  18.437  0.5995  0.2858 -0.5676
 2990TIP3    H133165   3.324   3.462  18.480  0.7781 -0.5285  0.9282
 2990TIP3    H233166   3.327   3.331  18.404  0.5439  0.4786 -0.8802
 2991TIP3   OH233167   6.102   6.739  18.689 -0.3203  0.5789  0.3633
 2991TIP3    H133168   6.098   6.809  18.754 -1.1583 -0.3872  1.4019
 2991TIP3    H233169   6.196   6.722  18.678 -0.1570  0.9611  1.0986
 2992TIP3   OH233170   7.308   3.904  16.785  0.0117  0.1021  0.4631
 2992TIP3    H133171   7.314   3.865  16.698 -1.4076 -1.5596  1.0527
 2992TIP3    H233172   7.399   3.917  16.812  0.4794 -0.1982 -0.8896
 2993TIP3   OH233173   4.556   0.792  16.893  0.2619 -0.2726 -0.2018
 2993TIP3    H133174   4.527   0.869  16.845 -0.7716 -0.7652 -0.3804
 2993TIP3    H233175   4.565   0.723  16.827 -0.1226 -0.6650  0.1483
 2994TIP3   OH233176   3.421   0.145  18.661 -0.7898 -0.0174 -1.0252
 2994TIP3    H133177   3.349   0.141  18.724  0.2989 -0.3540  0.2193
 2994TIP3    H233178   3.411   0.231  18.619 -0.8136  0.7530  0.4911
 2995TIP3   OH233179   3.123   7.070  16.888  0.0991 -0.2192  0.2539
 2995TIP3    H133180   3.120   7.005  16.818  1.4669  0.7369 -0.7617
 2995TIP3    H233181   3.090   7.150  16.848 -0.2756  0.0495  1.0822
 2996TIP3   OH233182   4.658   0.350  16.257  0.5509  0.2508  0.3496
 2996TIP3    H133183   4.745   0.388  16.272  0.6713  0.7226 -1.3349
 2996TIP3    H233184   4.597   0.414  16.293  0.8524  0.7873 -0.0743
 2997TIP3   OH233185   5.370   4.876  17.551 -0.6815  0.5516 -0.6250
 2997TIP3    H133186   5.298   4.937  17.534 -0.5856  1.2033  1.0449
 2997TIP3    H233187   5.329   4.800  17.591 -0.4255  1.3295  1.2660
 2998TIP3   OH233188   7.053   3.861  17.973 -0.0944 -0.1348  0.5722
 2998TIP3    H133189   7.086   3.797  17.910  0.8312  0.0741  0.8293
 2998TIP3    H233190   6.978   3.900  17.929 -0.1301 -0.7643  0.0475
 2999TIP3   OH233191   5.600   3.521  18.077  0.1056  0.4170  0.2424
 2999TIP3    H133192   5.638   3.609  18.083 -0.0216  0.4232  1.1266
 2999TIP3    H233193   5.624   3.479  18.160  1.8112 -1.0667 -0.9195
 3000TIP3   OH233194   4.063   4.084  18.346 -0.1564 -0.8609  0.4233
 3000TIP3    H133195   4.129   4.113  18.283 -1.5971  1.1382 -0.2908
 3000TIP3    H233196   3.998   4.037  18.293 -0.0947 -1.4444  0.8593
 3001TIP3   OH233197   4.403   4.166  16.625  0.0598 -0.6800  0.0607
 3001TIP3    H133198   4.443   4.175  16.538 -0.0200  0.7540  0.1386
 3001TIP3    H233199   4.476   4.144  16.683  0.4850  0.2965 -0.0707
 3002TIP3   OH233200   4.916   2.443  16.903  0.3669 -0.1520 -1.1257
 3002TIP3    H133201   4.840   2.420  16.849 -0.7016 -0.6619  0.4970
 3002TIP3    H233202   4.956   2.359  16.924 -1.6969 -0.5051  2.2137
 3003TIP3   OH233203   1.684   1.056  19.096 -0.1728  0.0628  0.1814
 3003TIP3    H133204   1.698   1.080  19.004 -0.1210 -0.2836  0.0960
 3003TIP3    H233205   1.748   1.108  19.144 -0.3372  0.3987  0.0439
 3004TIP3   OH233206   3.684   6.292  18.993  0.2947 -0.2473 -0.1423
 3004TIP3    H133207   3.625   6.359  18.958 -0.4392 -0.0537  1.3940
 3004TIP3    H233208   3.768   6.310  18.951 -0.4356  0.1849 -1.5006
 3005TIP3   OH233209   7.128   2.434  19.267  0.3263 -0.2403  0.1267
 3005TIP3    H133210   7.183   2.477  19.332 -0.0446 -0.3521  0.5156
 3005TIP3    H233211   7.064   2.500  19.241  0.0834 -0.3919  0.3376
 3006TIP3   OH233212   6.102   4.110  18.160 -0.0383 -0.4408  0.4632
 3006TIP3    H133213   6.143   4.183  18.206 -2.1526  1.1967 -0.0818
 3006TIP3    H233214   6.034   4.079  18.220 -1.8373  0.7586 -0.8437
 3007TIP3   OH233215   3.126   7.047  19.572  0.1255 -0.4638  0.1972
 3007TIP3    H133216   3.066   7.120  19.586 -0.8130 -0.9547 -1.0161
 3007TIP3    H233217   3.171   7.036  19.655 -3.3197 -1.6820  2.1299
 3008TIP3   OH233218   4.171   1.420  19.080  0.1073 -0.1126  0.1683
 3008TIP3    H133219   4.094   1.421  19.137  1.6790 -0.9088  2.3861
 3008TIP3    H233220   4.134   1.413  18.991 -2.3524 -1.0207  1.1782
 3009TIP3   OH233221   5.006   3.553  16.978 -0.1837  0.1718 -0.2655
 3009TIP3    H133222   5.098   3.578  16.973 -0.7233  2.1311 -1.4232
 3009TIP3    H233223   4.963   3.626  17.021 -1.1300 -1.0323  0.9254
 3010TIP3   OH233224   1.288   6.526  17.979  0.8585 -0.5623  0.5838
 3010TIP3    H133225   1.241   6.446  18.001  0.1945 -0.4999 -0.5590
 3010TIP3    H233226   1.348   6.501  17.909  1.0891 -0.1968  0.6455
 3011TIP3   OH233227   2.161   4.220  17.367 -0.5299 -0.6812 -0.0876
 3011TIP3    H133228   2.153   4.146  17.307 -1.7979  0.5519 -1.5516
 3011TIP3    H233229   2.071   4.239  17.394 -0.1241 -0.2449  0.9982
 3012TIP3   OH233230   3.478   6.154  16.699  0.3741  0.5174 -0.5984
 3012TIP3    H133231   3.498   6.065  16.729 -1.3031  0.1208 -0.5479
 3012TIP3    H233232   3.387   6.149  16.669  0.3806  2.1319 -0.9690
 3013TIP3   OH233233   6.559   6.743  19.261 -0.3791 -0.2582 -0.4481
 3013TIP3    H133234   6.632   6.800  19.238 -1.0429  0.2881 -1.2768
 3013TIP3    H233235   6.600   6.660  19.286  0.4992 -0.2188 -1.6620
 3014TIP3   OH233236   3.515   0.845  18.517 -0.1662  0.1041  0.1750
 3014TIP3    H133237   3.463   0.765  18.512 -0.3875  0.2517  0.1135
 3014TIP3    H233238   3.565   0.846  18.435  2.2571 -1.6172  1.5065
 3015TIP3   OH233239   3.918   3.820  19.865 -0.3386 -0.0599 -0.1616
 3015TIP3    H133240   3.944   3.822  19.957 -2.4174  0.4512  0.4727
 3015TIP3    H233241   3.891   3.910  19.846 -0.2083 -0.2264 -1.2021
 3016TIP3   OH233242   0.340   2.870  19.026  0.0509 -0.3903  0.7764
 3016TIP3    H133243   0.323   2.802  19.091  1.5170 -1.5040  0.0781
 3016TIP3    H233244   0.330   2.826  18.942  0.5885  0.3689  0.2948
 3017TIP3   OH233245   7.487   0.973  17.912  0.3444  0.1609  0.2468
 3017TIP3    H133246   7.468   0.963  17.819 -0.9773 -1.5083  0.6250
 3017TIP3    H233247   7.482   0.884  17.947  1.6616  0.6409  1.7785
 3018TIP3   OH233248   2.139   1.224  17.539 -0.1845  0.3373  0.0668
 3018TIP3    H133249   2.061   1.170  17.554  0.0932 -0.8031 -2.2212
 3018TIP3    H233250   2.125   1.301  17.594 -2.4883 -0.2452  0.4041
 3019TIP3   OH233251   0.938   5.122  18.616  0.2795  0.1034 -0.7660
 3019TIP3    H133252   0.925   5.143  18.708 -1.0941  1.3909 -1.2041
 3019TIP3    H233253   1.032   5.133  18.602  1.3416 -4.2575  1.3609
 3020TIP3   OH233254   7.657   4.684  18.455  0.2829  0.7148  0.1793
 3020TIP3    H133255   7.735   4.662  18.402  1.2988  0.6464  1.6409
 3020TIP3    H233256   7.670   4.775  18.480 -0.6394  1.0162 -0.4086
 3021TIP3   OH233257   4.916   1.278  17.511  0.2569 -0.2020  0.4105
 3021TIP3    H133258   4.899   1.303  17.420  0.5818 -3.0486 -0.5048
 3021TIP3    H233259   5.009   1.297  17.525  0.5703 -1.1658 -0.3515
 3022TIP3   OH233260   0.084   7.319  18.948  0.1060 -0.6468 -0.0831
 3022TIP3    H133261   0.052   7.294  18.862 -1.2994 -0.0278  0.2273
 3022TIP3    H233262   0.158   7.377  18.931  0.3682 -1.1950 -0.8453
 3023TIP3   OH233263   2.663   3.051  16.748  0.1417 -0.4674 -0.3146
 3023TIP3    H133264   2.684   3.091  16.832  1.7564 -1.2720 -0.2933
 3023TIP3    H233265   2.573   3.021  16.758 -0.0466  0.3563  0.7478
 3024TIP3   OH233266   6.620   3.913  17.397  0.2849  0.6714 -0.0665
 3024TIP3    H133267   6.530   3.911  17.429  0.3952  0.7002  0.2589
 3024TIP3    H233268   6.621   3.854  17.322  0.3109 -0.4455  0.7757
 3025TIP3   OH233269   1.308   7.124  19.068  0.3710 -0.0700  0.0651
 3025TIP3    H133270   1.309   7.157  18.978 -0.5075 -1.0729 -0.3387
 3025TIP3    H233271   1.223   7.151  19.103 -0.0451 -1.2101 -0.0221
 3026TIP3   OH233272   6.468   3.444  16.911 -0.0966 -0.1484  0.4167
 3026TIP3    H133273   6.494   3.365  16.863 -3.0692 -1.1004  0.1673
 3026TIP3    H233274   6.549   3.477  16.950  2.0588 -0.7627 -3.1160
 3027TIP3   OH233275   5.157   1.592  18.682 -0.0374  0.0119 -0.2753
 3027TIP3    H133276   5.083   1.567  18.626 -1.2084 -1.5806  1.8366
 3027TIP3    H233277   5.229   1.536  18.653 -1.2135 -2.3242  1.0430
 3028TIP3   OH233278   0.059   0.456  18.056 -0.3324 -0.8668 -0.2527
 3028TIP3    H133279   0.039   0.474  18.147 -2.4834 -1.0737 -0.6447
 3028TIP3    H233280  -0.026   0.446  18.013  0.6225 -2.9159 -1.8638
 3029TIP3   OH233281   2.131   7.048  18.530  0.6749 -0.0087  0.1659
 3029TIP3    H133282   2.132   7.129  18.479  0.1449  0.3759  0.7559
 3029TIP3    H233283   2.178   6.985  18.475  0.1304  0.3989 -0.8055
 3030TIP3   OH233284   0.904   4.273  18.859  0.0886  0.4907 -0.1679
 3030TIP3    H133285   0.863   4.308  18.938 -0.2604 -0.1371 -0.0630
 3030TIP3    H233286   0.982   4.227  18.890 -1.8527 -2.7784  0.2800
 3031TIP3   OH233287   4.329   5.305  17.942 -0.1858 -0.2157 -0.2818
 3031TIP3    H133288   4.254   5.320  17.885 -0.3848  3.4835  0.7055
 3031TIP3    H233289   4.293   5.308  18.031  0.7829 -1.1522  0.1715
 3032TIP3   OH233290   5.190   0.787  17.830  0.3642  0.2064 -0.5300
 3032TIP3    H133291   5.102   0.754  17.847  0.4882 -0.3036 -0.8680
 3032TIP3    H233292   5.241   0.710  17.805  0.9963  0.4414  0.0024
 3033TIP3   OH233293   6.696   4.648  16.811  0.1016  0.2548 -0.5720
 3033TIP3    H133294   6.643   4.719  16.849 -0.4286 -0.1228 -0.5952
 3033TIP3    H233295   6.638   4.572  16.811  0.0532  0.2469 -2.1885
 3034TIP3   OH233296   5.850   7.469  17.320 -0.1753 -0.1014 -0.0651
 3034TIP3    H133297   5.881   7.546  17.368 -0.7696  0.7196 -0.9733
 3034TIP3    H233298   5.782   7.432  17.377 -0.1068  0.2179  0.2292
 3035TIP3   OH233299   0.372   1.527  18.505  0.0485  0.4561  0.1410
 3035TIP3    H133300   0.319   1.590  18.456 -2.6743  0.4051  2.7396
 3035TIP3    H233301   0.372   1.560  18.595 -0.0084 -2.3140  1.2625
 3036TIP3   OH233302   6.083   4.142  16.987 -0.2338 -0.1813 -0.0424
 3036TIP3    H133303   6.002   4.097  17.012 -0.3540 -0.6838 -1.2471
 3036TIP3    H233304   6.056   4.233  16.975 -0.2178  0.0256  1.3508
 3037TIP3   OH233305   5.458   0.867  19.123  0.5564  0.2920  1.0355
 3037TIP3    H133306   5.424   0.779  19.139 -0.0262  0.3786  0.3137
 3037TIP3    H233307   5.543   0.868  19.166  1.9598 -1.6149 -1.4162
 3038TIP3   OH233308   5.598   1.812  18.019  0.7296  0.1793 -0.2683
 3038TIP3    H133309   5.678   1.861  17.999 -0.5645  1.4626 -2.6392
 3038TIP3    H233310   5.548   1.811  17.938 -0.8001 -2.3749  0.5648
 3039TIP3   OH233311   1.571   1.320  18.048 -0.4794 -0.4946 -0.1280
 3039TIP3    H133312   1.476   1.311  18.063 -0.4561 -0.0805  0.2856
 3039TIP3    H233313   1.589   1.413  18.061  0.2307 -0.8072  1.2992
 3040TIP3   OH233314   0.343   5.375  18.835 -0.9208  0.0411 -0.2197
 3040TIP3    H133315   0.354   5.437  18.906 -2.8499  1.1059 -0.7670
 3040TIP3    H233316   0.379   5.293  18.868 -1.0811  0.6962  1.6770
 3041TIP3   OH233317   0.589   7.192  17.532  0.3438 -0.2192 -0.4249
 3041TIP3    H133318   0.569   7.283  17.511  1.2983  0.4944  1.4815
 3041TIP3    H233319   0.632   7.158  17.454  0.3477  1.1053 -1.0192
 3042TIP3   OH233320   3.451   1.905  19.471  0.0270 -0.1544  0.3161
 3042TIP3    H133321   3.427   1.992  19.503 -0.6559 -0.3510  0.3403
 3042TIP3    H233322   3.535   1.919  19.426  0.9292  0.1593  2.0053
 3043TIP3   OH233323   6.230   5.401  17.890 -0.8482  0.5642 -0.2842
 3043TIP3    H133324   6.215   5.468  17.956  2.4206  0.9673  0.2137
 3043TIP3    H233325   6.303   5.349  17.924 -1.1712 -1.2370 -2.1379
 3044TIP3   OH233326   4.003   0.178  17.935  0.2554 -0.0825  0.2327
 3044TIP3    H133327   3.974   0.233  18.007  0.9936  0.5100  0.0889
 3044TIP3    H233328   3.940   0.106  17.933  0.8310 -0.6774  2.1321
 3045TIP3   OH233329   4.712   0.350  18.847  0.0872 -0.2506 -0.2305
 3045TIP3    H133330   4.726   0.436  18.886 -0.4439 -0.6837  0.9866
 3045TIP3    H233331   4.621   0.352  18.815 -0.8119 -1.1240  2.0378
 3046TIP3   OH233332   5.377   0.387  18.445  0.1733 -0.3692  0.7029
 3046TIP3    H133333   5.356   0.480  18.435 -1.9246 -1.0258 -2.4778
 3046TIP3    H233334   5.300   0.349  18.486 -1.0865 -1.2998 -2.2430
 3047TIP3   OH233335   5.102   6.809  19.056 -0.3343 -0.1155 -0.0032
 3047TIP3    H133336   5.062   6.869  19.118  0.1955  0.4560 -0.2179
 3047TIP3    H233337   5.097   6.854  18.972 -0.3748 -0.5736 -0.2537
 3048TIP3   OH233338   3.614   3.064  19.285  0.4539 -0.0309  0.9865
 3048TIP3    H133339   3.614   3.130  19.216 -2.3226 -0.6706  0.2456
 3048TIP3    H233340   3.604   3.114  19.366  0.1863  0.5629  0.5970
 3049TIP3   OH233341   5.262   5.848  19.130  0.5488  0.4052  0.1242
 3049TIP3    H133342   5.260   5.855  19.226 -2.1592  0.2849  0.1653
 3049TIP3    H233343   5.183   5.894  19.101  1.2118  0.2813 -2.0609
 3050TIP3   OH233344   3.970   7.196  18.896  0.0672 -0.0594  0.2438
 3050TIP3    H133345   3.913   7.122  18.917 -1.2929 -0.4412 -3.9200
 3050TIP3    H233346   3.912   7.273  18.901 -0.1706 -0.1084 -1.3638
 3051TIP3   OH233347   3.821   1.377  18.495 -0.3107 -0.1727 -0.3500
 3051TIP3    H133348   3.762   1.334  18.557  2.3852 -0.1030  2.5356
 3051TIP3    H233349   3.878   1.306  18.463 -0.6059  0.0811 -1.4675
 3052TIP3   OH233350   2.422   6.138  18.662 -0.1195 -0.0607 -0.1088
 3052TIP3    H133351   2.453   6.082  18.733  0.6735  0.2077 -0.2302
 3052TIP3    H233352   2.451   6.226  18.686 -1.5066  0.3480  0.1672
 3053TIP3   OH233353   2.198   4.497  18.745 -0.3551  0.5046  0.4824
 3053TIP3    H133354   2.189   4.565  18.678  0.1953 -0.3157 -0.4581
 3053TIP3    H233355   2.109   4.463  18.757 -0.1953 -0.7131 -1.3536
 3054TIP3   OH233356   7.641   7.006  17.697  0.3991  0.1846 -0.1930
 3054TIP3    H133357   7.635   7.077  17.633  0.8214 -1.2123 -1.8651
 3054TIP3    H233358   7.695   7.041  17.768 -0.5023  1.9428 -0.3313
 3055TIP3   OH233359   6.848   5.503  18.227  0.4074 -0.0108  0.2328
 3055TIP3    H133360   6.913   5.541  18.168  0.3507 -0.0750  0.1298
 3055TIP3    H233361   6.898   5.478  18.305  0.2070  1.7863  0.9927
 3056TIP3   OH233362   2.540   5.251  18.820  0.0692 -0.2720 -0.4893
 3056TIP3    H133363   2.581   5.166  18.839  0.3683 -0.0860 -0.2965
 3056TIP3    H233364   2.517   5.286  18.906 -2.1164 -1.1560 -0.6606
 3057TIP3   OH233365   5.414   0.711  17.591 -0.0781  0.2924 -0.4504
 3057TIP3    H133366   5.474   0.767  17.641 -2.0030  1.1641  1.0383
 3057TIP3    H233367   5.444   0.622  17.609  0.3407  0.6756  0.8676
 3058TIP3   OH233368   5.905   2.652  18.662 -0.5007 -0.4206 -0.1442
 3058TIP3    H133369   5.881   2.559  18.657 -0.9168 -0.3417  0.3220
 3058TIP3    H233370   6.000   2.653  18.651 -0.1023 -1.1615  2.6260
 3059TIP3   OH233371   4.033   0.016  19.509 -0.3840 -0.1528 -0.1052
 3059TIP3    H133372   4.026   0.018  19.604 -1.8593  0.5043 -0.1904
 3059TIP3    H233373   3.964   0.076  19.479 -1.3073 -1.8621 -1.6210
 3060TIP3   OH233374   2.751   0.469  17.921  0.3320 -0.1158 -0.3338
 3060TIP3    H133375   2.733   0.396  17.980  0.2729 -0.1796 -0.4313
 3060TIP3    H233376   2.823   0.439  17.867 -0.2106 -0.4130 -0.9120
 3061TIP3   OH233377   4.186   6.697  19.422  0.3703  0.4428  0.4071
 3061TIP3    H133378   4.241   6.742  19.486  0.7244 -0.6808  0.9084
 3061TIP3    H233379   4.145   6.626  19.471 -1.1260  0.9325 -0.0920
 3062TIP3   OH233380   7.574   3.181  19.420  0.2086 -0.0180 -0.0032
 3062TIP3    H133381   7.499   3.148  19.370  0.4946 -1.8972  0.7201
 3062TIP3    H233382   7.648   3.127  19.392  1.5499  2.3003 -1.2746
 3063TIP3   OH233383   1.009   5.392  19.100  0.6222 -0.6707  0.0665
 3063TIP3    H133384   0.991   5.485  19.085  2.8076  0.2948  2.6025
 3063TIP3    H233385   0.944   5.365  19.164  0.2798 -0.7897 -0.3241
 3064TIP3   OH233386   6.419   5.235  18.012 -0.0254  0.4546 -0.6472
 3064TIP3    H133387   6.400   5.191  18.095  0.7965 -0.8701 -1.1390
 3064TIP3    H233388   6.503   5.277  18.026 -0.5183  1.3835 -0.3847
 3065TIP3   OH233389   1.579   7.317  17.388  0.3984  0.1000 -0.4238
 3065TIP3    H133390   1.548   7.228  17.405  0.4515  0.1889  0.1826
 3065TIP3    H233391   1.668   7.306  17.353 -0.0999 -0.1324 -1.6537
 3066TIP3   OH233392   4.033   5.049  17.923 -0.2321 -0.5381  0.0315
 3066TIP3    H133393   4.019   5.115  17.991  0.5128  0.6429 -0.9171
 3066TIP3    H233394   4.108   4.998  17.955 -0.8000 -0.9249  0.7647
 3067TIP3   OH233395   3.878   5.242  19.313 -0.3250 -0.7686 -0.4062
 3067TIP3    H133396   3.811   5.282  19.257 -1.2050  0.6764  1.5705
 3067TIP3    H233397   3.957   5.241  19.259 -0.8131  1.7454 -1.3104
 3068TIP3   OH233398   2.797   6.411  18.188 -0.1127 -0.1338 -0.0927
 3068TIP3    H133399   2.848   6.415  18.106  1.5818  2.0036  0.9790
 3068TIP3    H233400   2.773   6.501  18.206 -0.9763 -0.6509  1.4993
 3069TIP3   OH233401   1.164   3.572  18.067  0.5690 -0.2993  0.5933
 3069TIP3    H133402   1.218   3.500  18.035 -0.5369 -0.9596  0.1232
 3069TIP3    H233403   1.076   3.551  18.035  0.2524  1.3703  0.2706
 3070TIP3   OH233404   1.152   3.345  17.387  0.3527 -0.5346 -0.2844
 3070TIP3    H133405   1.210   3.276  17.417 -0.1796 -0.3676  1.2161
 3070TIP3    H233406   1.125   3.391  17.467  0.0555  0.8998 -1.1581
 3071TIP3   OH233407   2.668   6.618  18.380  0.2213 -0.1357 -0.2131
 3071TIP3    H133408   2.591   6.669  18.405 -0.8874 -0.9439 -1.8001
 3071TIP3    H233409   2.708   6.669  18.309  0.4346 -0.3234 -0.2292
 3072TIP3   OH233410   0.996   5.673  18.165 -0.4392  0.3603  0.1951
 3072TIP3    H133411   0.943   5.686  18.086 -0.7817  2.3286  0.6944
 3072TIP3    H233412   1.072   5.730  18.153 -0.7714  1.1151  1.5238
 3073TIP3   OH233413   6.754   6.207  18.972  0.0621  0.2544  0.2853
 3073TIP3    H133414   6.749   6.159  18.889 -0.7961  1.8109 -0.6047
 3073TIP3    H233415   6.823   6.162  19.021 -1.6975 -2.8833  0.1826
 3074TIP3   OH233416   4.038   4.281  19.396 -0.1397  0.3037 -0.0363
 3074TIP3    H133417   3.969   4.260  19.333  1.2647  0.4430 -1.6653
 3074TIP3    H233418   4.099   4.207  19.391 -0.9006 -0.6221  2.5720
 3075TIP3   OH233419   6.860   0.824  18.875 -0.0890  0.5226 -0.1753
 3075TIP3    H133420   6.920   0.752  18.894 -1.0419 -0.0426  0.8657
 3075TIP3    H233421   6.815   0.797  18.795 -0.6720 -0.2201  0.3888
 3076TIP3   OH233422   5.665   3.033  17.093 -0.0164 -0.4493  0.2892
 3076TIP3    H133423   5.731   3.103  17.097  0.4009 -0.8483  0.5631
 3076TIP3    H233424   5.707   2.958  17.136  1.5720 -2.5134 -4.1759
 3077TIP3   OH233425   5.103   5.439  18.698  0.0442  0.0339 -0.0139
 3077TIP3    H133426   5.145   5.355  18.683  1.0798  0.6494 -0.7238
 3077TIP3    H233427   5.082   5.440  18.791 -0.9785 -1.4398 -0.2046
 3078TIP3   OH233428   2.534   4.714  18.105 -0.1246 -0.2113 -0.0662
 3078TIP3    H133429   2.567   4.702  18.194 -0.9259 -0.2581  0.2371
 3078TIP3    H233430   2.528   4.809  18.095  0.3097 -0.1992 -0.1985
 3079TIP3   OH233431   4.893   6.810  18.250  0.1308 -0.1883  0.1084
 3079TIP3    H133432   4.917   6.856  18.170  1.6811  0.5095  0.9209
 3079TIP3    H233433   4.972   6.761  18.273 -0.5776 -1.0540  0.7614
 3080TIP3   OH233434   6.318   6.434  18.131  0.0933 -0.1107 -0.3405
 3080TIP3    H133435   6.294   6.526  18.145  0.1700 -0.2047  0.4054
 3080TIP3    H233436   6.239   6.395  18.093 -0.2781  0.0411  0.2564
 3081TIP3   OH233437   3.543   5.112  17.677 -0.1974  0.0778  0.4556
 3081TIP3    H133438   3.458   5.154  17.661 -0.4353 -0.7548 -0.5800
 3081TIP3    H233439   3.563   5.067  17.595  0.3787 -1.2597  1.2969
 3082TIP3   OH233440   5.375   5.032  18.537 -0.5169  0.5535  0.0931
 3082TIP3    H133441   5.413   4.948  18.560  0.1041  0.8929  0.3380
 3082TIP3    H233442   5.417   5.055  18.453 -2.2842 -0.3756 -1.1078
 3083TIP3   OH233443   0.302   3.269  18.380 -0.2234 -0.3413 -0.3835
 3083TIP3    H133444   0.208   3.265  18.395 -0.2917  0.1765 -0.6493
 3083TIP3    H233445   0.339   3.292  18.466 -0.4337  0.4854 -0.5055
 3084TIP3   OH233446   2.119   0.730  17.100  0.1244 -0.2918  0.5239
 3084TIP3    H133447   2.055   0.659  17.103  2.4942 -2.5459  1.2938
 3084TIP3    H233448   2.079   0.801  17.151 -2.2354 -1.0770 -0.1055
 3085TIP3   OH233449   0.629   4.953  17.799 -0.5044 -0.3215 -0.0469
 3085TIP3    H133450   0.657   4.866  17.772  1.3690  0.2272 -0.0185
 3085TIP3    H233451   0.534   4.952  17.789 -0.2928 -1.3832 -3.0703
 3086TIP3   OH233452   6.838   0.058  18.153  0.0691 -0.1570  0.2236
 3086TIP3    H133453   6.924   0.086  18.184  1.7810 -0.8511 -3.3915
 3086TIP3    H233454   6.817  -0.019  18.206  2.2197 -0.6422  0.4519
 3087TIP3   OH233455   6.918   0.050  19.229 -0.3027 -0.5627  0.2351
 3087TIP3    H133456   6.996   0.088  19.271 -1.9035  1.9369  1.1648
 3087TIP3    H233457   6.923  -0.043  19.249  3.0152 -0.7326 -0.7529
 3088TIP3   OH233458   4.926   4.158  19.414  0.9120 -0.3050 -0.2582
 3088TIP3    H133459   4.924   4.236  19.358  2.1322  0.3177  0.5157
 3088TIP3    H233460   4.850   4.168  19.471  1.4790  0.7439  0.3511
 3089TIP3   OH233461   4.884   6.081  17.471  0.2145 -0.0778 -0.4129
 3089TIP3    H133462   4.862   6.021  17.401  0.4572  1.6616 -2.0661
 3089TIP3    H233463   4.828   6.056  17.544 -2.7569  0.2884 -2.4062
 3090TIP3   OH233464   5.450   3.968  18.294  0.0800  0.6509  0.0580
 3090TIP3    H133465   5.395   3.891  18.308  0.4465  0.4223  0.2605
 3090TIP3    H233466   5.392   4.031  18.252 -0.1057  0.0984 -0.5424
 3091TIP3   OH233467   2.604   1.120  17.354 -0.2808  0.3911 -0.6430
 3091TIP3    H133468   2.546   1.195  17.369 -1.5193 -0.8915  1.5549
 3091TIP3    H233469   2.560   1.047  17.398  1.9908 -1.1383 -0.7546
 3092TIP3   OH233470   4.233   0.985  18.594  0.8993 -0.0368 -0.5558
 3092TIP3    H133471   4.279   0.995  18.511  1.5748  1.5150 -0.0347
 3092TIP3    H233472   4.298   0.947  18.653  0.9828  0.5008 -0.2898
 3093TIP3   OH233473   5.615   7.327  19.081  0.1477  0.3248 -0.2172
 3093TIP3    H133474   5.625   7.422  19.074 -2.6133  0.6020 -1.9829
 3093TIP3    H233475   5.699   7.291  19.052  1.3189  2.1889  0.7227
 3094TIP3   OH233476   3.690   4.535  18.409 -0.6536 -0.4663 -0.0843
 3094TIP3    H133477   3.765   4.528  18.468  0.1181  0.2624 -0.9540
 3094TIP3    H233478   3.721   4.500  18.326 -1.0496  0.5084 -0.6566
 3095TIP3   OH233479   5.858   4.158  19.639  0.0929  0.3632  0.1263
 3095TIP3    H133480   5.845   4.080  19.585  1.1569 -0.7896  1.4507
 3095TIP3    H233481   5.783   4.156  19.700 -0.2161  0.7290 -0.2416
 3096TIP3   OH233482   4.079   5.885  19.629  0.0793  0.1827  0.0201
 3096TIP3    H133483   4.031   5.851  19.704 -0.5972  0.8542 -0.0980
 3096TIP3    H233484   4.036   5.847  19.553 -0.0158  0.4556 -0.0668
 3097TIP3   OH233485   2.752   0.733  18.441 -0.2380  0.0346  0.3201
 3097TIP3    H133486   2.711   0.667  18.496 -0.6429 -0.6401 -0.7570
 3097TIP3    H233487   2.756   0.693  18.354  1.1431  0.7401  0.0203
 3098TIP3   OH233488   7.207   3.323  18.477  0.2186 -0.2005  0.2967
 3098TIP3    H133489   7.138   3.282  18.425  0.5527  1.5346 -1.6067
 3098TIP3    H233490   7.288   3.282  18.446  0.4251  0.8929 -0.6663
 3099TIP3   OH233491   4.972   6.790  17.288 -0.4804 -0.1585  0.6048
 3099TIP3    H133492   4.967   6.879  17.253 -0.7202 -0.3081  0.2563
 3099TIP3    H233493   4.907   6.741  17.239  0.2254 -0.7226  0.2195
 3100TIP3   OH233494   0.165   5.627  19.262 -0.6614 -0.2248 -0.2170
 3100TIP3    H133495   0.239   5.604  19.207 -0.0524  0.8450  0.1155
 3100TIP3    H233496   0.177   5.577  19.343  0.4547  0.9239  0.3679
 3101TIP3   OH233497   3.732   2.212  18.804 -0.4454 -0.3757  0.6760
 3101TIP3    H133498   3.669   2.140  18.813 -0.6142 -0.3365 -0.1549
 3101TIP3    H233499   3.687   2.287  18.841  0.1280 -0.8929  2.5302
 3102TIP3   OH233500   3.105   6.147  17.313  0.3039 -0.5756  0.0296
 3102TIP3    H133501   3.120   6.123  17.405 -0.8473  1.0448  0.6810
 3102TIP3    H233502   3.017   6.117  17.294 -0.7588  1.9934  0.5402
 3103TIP3   OH233503   3.188   4.888  18.999 -0.0765  0.2320 -0.3388
 3103TIP3    H133504   3.242   4.907  18.922  0.8938  0.3457  0.3644
 3103TIP3    H233505   3.135   4.967  19.011  0.1226  0.4042 -0.5859
 3104TIP3   OH233506   3.342   4.912  18.760  0.5234 -0.2225 -0.2257
 3104TIP3    H133507   3.405   4.842  18.743  0.1234 -0.6399 -0.0335
 3104TIP3    H233508   3.275   4.901  18.693  0.2997 -0.2196 -0.0066
 3105TIP3   OH233509   1.743   4.320  17.645 -0.7308  0.4295 -0.1375
 3105TIP3    H133510   1.703   4.331  17.559 -0.3992  0.5588 -0.2756
 3105TIP3    H233511   1.788   4.236  17.641 -1.0582  0.2430  0.0464
 3106TIP3   OH233512   4.901   4.061  17.414 -0.0986  0.5219  0.1664
 3106TIP3    H133513   4.975   4.114  17.388 -1.4433  0.8048 -3.6724
 3106TIP3    H233514   4.826   4.121  17.415 -0.5461  0.0826  3.1226
 3107TIP3   OH233515   6.445   5.898  19.247  0.1752 -0.0105 -0.3266
 3107TIP3    H133516   6.363   5.933  19.211  1.0063  2.7049  0.2109
 3107TIP3    H233517   6.417   5.836  19.314 -1.4625  0.5379 -0.4458
 3108TIP3   OH233518   4.349   6.005  17.454  0.2230  0.1592 -0.6594
 3108TIP3    H133519   4.299   6.035  17.530  0.6468 -0.1856 -0.2391
 3108TIP3    H233520   4.356   6.083  17.399 -0.8637  0.1818 -0.7811
 3109TIP3   OH233521   4.439   3.019  17.461  0.3736  0.6810  0.7598
 3109TIP3    H133522   4.508   3.047  17.522 -1.4340  1.9417  2.3636
 3109TIP3    H233523   4.358   3.031  17.510 -1.0057 -0.9391 -0.9837
 3110TIP3   OH233524   7.665   3.824  18.328 -0.4321  0.2828  0.1492
 3110TIP3    H133525   7.711   3.746  18.296 -0.3297  0.3711  0.0768
 3110TIP3    H233526   7.722   3.859  18.397  0.8169  1.7107 -1.4935
 3111TIP3   OH233527   2.840   7.586  18.369  0.0599 -0.0174 -0.0755
 3111TIP3    H133528   2.864   7.550  18.284  0.1358  1.0966 -0.5504
 3111TIP3    H233529   2.814   7.510  18.421  0.7795 -0.8033 -0.8293
 3112TIP3   OH233530   7.517   5.489  18.048 -0.3679  0.1285 -0.2049
 3112TIP3    H133531   7.422   5.494  18.038 -0.2465  0.0548 -1.6204
 3112TIP3    H233532   7.540   5.567  18.098 -1.1713  0.1484  0.1489
 3113TIP3   OH233533   5.272   2.838  17.762 -0.0571  0.5251 -0.4461
 3113TIP3    H133534   5.325   2.758  17.765 -2.1565 -0.8876  1.1807
 3113TIP3    H233535   5.324   2.903  17.810 -0.0204 -1.0141  1.7365
 3114TIP3   OH233536   7.307   5.238  19.054  0.1155 -0.3538  0.2182
 3114TIP3    H133537   7.341   5.162  19.101 -2.0845 -3.0891 -2.1929
 3114TIP3    H233538   7.300   5.208  18.963 -2.8822  1.9812 -0.4793
 3115TIP3   OH233539   2.151   5.288  17.129 -0.3935 -0.4240  0.0008
 3115TIP3    H133540   2.119   5.246  17.208 -1.2631  1.9051  1.0032
 3115TIP3    H233541   2.235   5.326  17.153 -0.7435  0.4509 -0.0856
 3116TIP3   OH233542   6.338   4.406  18.978 -0.1438 -0.0705 -0.5108
 3116TIP3    H133543   6.360   4.319  18.945 -0.4931 -0.4753  0.2995
 3116TIP3    H233544   6.415   4.459  18.959  1.6689 -1.4633  2.3353
 3117TIP3   OH233545   5.720   3.224  17.975 -0.2836  0.2769 -0.0819
 3117TIP3    H133546   5.762   3.299  17.933 -1.9779 -0.4723 -3.5325
 3117TIP3    H233547   5.629   3.252  17.990  0.1538  0.3595  2.9615
 3118TIP3   OH233548   6.114   2.411  18.852 -0.3800  0.2993  0.3742
 3118TIP3    H133549   6.180   2.480  18.850 -1.6196  1.5436  0.7178
 3118TIP3    H233550   6.060   2.426  18.775 -2.6721  1.8453  2.1464
 3119TIP3   OH233551   3.289   6.095  18.719  0.2348  0.1624  0.2106
 3119TIP3    H133552   3.260   6.084  18.628  0.3911  1.3427  0.0074
 3119TIP3    H233553   3.346   6.171  18.718 -0.2360  0.5670  1.4031
 3120TIP3   OH233554   3.361   0.621  19.223 -0.3260 -0.2538  0.3408
 3120TIP3    H133555   3.397   0.593  19.138  0.8570  0.2974  0.6398
 3120TIP3    H233556   3.288   0.561  19.238  0.4938 -1.4685 -0.2767
 3121TIP3   OH233557   3.900   2.120  18.377 -0.0815  0.1684  1.1939
 3121TIP3    H133558   3.969   2.143  18.440  1.5172  0.9837 -0.7410
 3121TIP3    H233559   3.939   2.052  18.323  0.3525  2.4540 -1.6308
 3122TIP3   OH233560   5.959   0.811  18.305  0.4439 -0.1073 -0.2862
 3122TIP3    H133561   5.960   0.836  18.398  0.9155  0.1675 -0.3595
 3122TIP3    H233562   5.904   0.733  18.302  0.2320  0.0190  0.1903
 3123TIP3   OH233563   6.381   3.144  17.930  0.0793 -0.0789 -0.3672
 3123TIP3    H133564   6.294   3.104  17.941  0.8435 -1.7428 -0.1072
 3123TIP3    H233565   6.363   3.230  17.893 -1.7652  0.1426  0.9059
 3124TIP3   OH233566   4.344   2.558  19.181 -0.4984 -0.1577 -0.1067
 3124TIP3    H133567   4.359   2.643  19.222 -1.4052  0.2479 -0.6007
 3124TIP3    H233568   4.254   2.561  19.152  0.0000 -0.5928 -1.7689
 3125TIP3   OH233569   4.140   3.071  17.588 -0.3072  0.2779  0.5372
 3125TIP3    H133570   4.117   3.162  17.572 -0.1473  0.2110 -0.0933
 3125TIP3    H233571   4.103   3.052  17.674  1.0122  1.3956  1.3981
 3126TIP3   OH233572   2.718   5.650  17.510  0.4407 -0.5061 -0.2839
 3126TIP3    H133573   2.681   5.581  17.565 -0.8333  0.6681  0.3998
 3126TIP3    H233574   2.770   5.704  17.571  2.8493 -1.7513 -1.1090
 3127TIP3   OH233575   6.226   5.261  18.297 -0.3675  0.0435  0.5817
 3127TIP3    H133576   6.260   5.349  18.312  0.3525 -0.0222 -0.5549
 3127TIP3    H233577   6.303   5.206  18.285 -0.8171 -0.4354 -0.2784
 3128TIP3   OH233578   2.807   5.684  18.082 -0.2813  0.4885 -0.5412
 3128TIP3    H133579   2.739   5.666  18.017  1.5811  1.2270 -2.8706
 3128TIP3    H233580   2.871   5.614  18.068  0.1593  0.6667  0.5310
 3129TIP3   OH233581   6.570   3.165  17.079 -0.8348 -0.0876 -0.6142
 3129TIP3    H133582   6.569   3.153  16.984 -1.1614  3.5612 -1.2222
 3129TIP3    H233583   6.631   3.237  17.093 -1.1225 -0.2519  1.9445
 3130TIP3   OH233584   0.052   4.150  18.039 -0.2876  0.4969  0.1773
 3130TIP3    H133585   0.042   4.236  17.998  1.6066  0.0901 -1.3055
 3130TIP3    H233586   0.109   4.102  17.979 -1.8337 -2.0519  0.6169
 3131TIP3   OH233587   5.921   5.749  18.613  0.0469 -0.0277 -0.3264
 3131TIP3    H133588   5.981   5.823  18.621  2.1104 -1.6248  0.0266
 3131TIP3    H233589   5.975   5.673  18.635 -1.8864 -1.6791 -1.0071
 3132TIP3   OH233590   7.002   0.549  17.662 -0.1769 -0.3944  0.0121
 3132TIP3    H133591   7.038   0.501  17.737  1.4290  0.9109  0.1362
 3132TIP3    H233592   7.036   0.503  17.585  2.5605  1.2186  0.1135
 3133TIP3   OH233593   4.704   6.743  19.318  0.3166 -0.1543 -0.5578
 3133TIP3    H133594   4.798   6.762  19.323  0.3193  0.0458 -1.2823
 3133TIP3    H233595   4.676   6.781  19.235 -0.8289  1.6206  0.5596
 3134TIP3   OH233596   5.970   6.728  18.059  0.0035  0.1105 -0.6939
 3134TIP3    H133597   5.954   6.809  18.011  2.2898  0.2655 -1.2794
 3134TIP3    H233598   5.974   6.660  17.991 -0.9762 -0.3641 -0.2940
 3135TIP3   OH233599   3.858   5.576  19.304  0.2139 -0.0371  0.2790
 3135TIP3    H133600   3.805   5.535  19.236  0.1321 -1.0272  0.9130
 3135TIP3    H233601   3.941   5.596  19.261 -0.7215  1.7632 -0.7913
 3136TIP3   OH233602   0.229   2.028  18.233 -0.1078  0.1712 -0.2428
 3136TIP3    H133603   0.209   1.954  18.175 -0.5137 -1.3072  1.6831
 3136TIP3    H233604   0.252   1.988  18.316 -2.5577  2.2096  1.5784
 3137TIP3   OH233605   4.364   7.675  19.483 -0.5761  0.2243 -0.3896
 3137TIP3    H133606   4.459   7.668  19.490 -0.4260  0.5951 -1.7882
 3137TIP3    H233607   4.343   7.757  19.528 -0.0770  0.7793 -1.1373
 3138TIP3   OH233608   4.844   3.697  16.604 -0.0371 -0.0715  0.5070
 3138TIP3    H133609   4.938   3.707  16.588  0.3432 -0.0159  2.4580
 3138TIP3    H233610   4.822   3.612  16.568  1.0928 -0.7087  1.2662
 3139TIP3   OH233611   2.680   5.710  19.310 -0.1459  0.6575 -0.4479
 3139TIP3    H133612   2.672   5.652  19.386  0.8110 -0.2379 -1.0063
 3139TIP3    H233613   2.642   5.793  19.340  0.5530  0.4537  1.1466
 3140TIP3   OH233614   1.072   1.351  17.207  0.3406 -0.2356  0.0930
 3140TIP3    H133615   1.079   1.400  17.125  0.6259 -0.8957 -0.2763
 3140TIP3    H233616   1.120   1.270  17.192 -0.5918 -0.8892  0.5111
 3141TIP3   OH233617   6.582   2.046  17.658 -0.4104 -0.4060 -0.0895
 3141TIP3    H133618   6.543   2.126  17.623  0.0752 -0.5278 -0.9238
 3141TIP3    H233619   6.649   2.076  17.719  0.4242 -0.1499 -1.1106
 3142TIP3   OH233620   1.742   3.273  17.416  0.3438 -0.0600  0.1744
 3142TIP3    H133621   1.654   3.268  17.378  0.7405  0.3986 -0.8441
 3142TIP3    H233622   1.800   3.284  17.341  1.0116  2.5472  0.9527
 3143TIP3   OH233623   0.687   0.019  18.938  0.2080 -0.3176  0.7287
 3143TIP3    H133624   0.747   0.078  18.892 -1.6041  1.2185  0.2424
 3143TIP3    H233625   0.684  -0.059  18.883  1.7815 -0.4712  0.7992
 3144TIP3   OH233626   0.541   5.357  17.364  0.1147  0.1354  0.8255
 3144TIP3    H133627   0.517   5.332  17.275 -1.4743 -1.0607  1.5509
 3144TIP3    H233628   0.631   5.387  17.357  0.3047 -0.7563 -1.0392
 3145TIP3   OH233629   5.818   2.866  17.293  0.1876  0.1542 -0.3071
 3145TIP3    H133630   5.911   2.886  17.284  0.1369  2.1229  2.4328
 3145TIP3    H233631   5.816   2.785  17.344  0.4458  0.6843  0.5730
 3146TIP3   OH233632   5.583   2.143  18.011 -0.2149 -0.5398  0.3697
 3146TIP3    H133633   5.663   2.096  17.989  0.7821  2.1628 -2.3904
 3146TIP3    H233634   5.608   2.202  18.083 -0.2411 -0.9279  0.7042
 3147TIP3   OH233635   0.939   6.095  18.560  0.1878  0.0476 -0.3293
 3147TIP3    H133636   1.003   6.164  18.573 -0.4571  1.0314 -2.0192
 3147TIP3    H233637   0.944   6.075  18.466 -0.5083 -1.3318 -0.1010
 3148TIP3   OH233638   3.522   4.499  18.015  0.2912 -0.1599  0.8671
 3148TIP3    H133639   3.434   4.528  17.993  0.2169 -0.2158  1.0906
 3148TIP3    H233640   3.511   4.409  18.046  0.4686 -0.2858  0.5748
 3149TIP3   OH233641   4.185   2.926  19.479 -0.5765 -0.3429  1.1519
 3149TIP3    H133642   4.104   2.879  19.500  0.3979 -2.3375  0.7772
 3149TIP3    H233643   4.228   2.940  19.563 -0.1402 -1.6226  1.1645
 3150TIP3   OH233644   4.230   2.229  19.178 -0.4686 -0.1215 -0.1215
 3150TIP3    H133645   4.265   2.294  19.239 -1.4283 -1.3349  1.8425
 3150TIP3    H233646   4.171   2.277  19.121 -0.5874  0.8668  0.8055
 3151TIP3   OH233647   1.544   5.395  19.363  0.2583 -0.4525  0.2603
 3151TIP3    H133648   1.487   5.452  19.415  0.1495  0.4022 -0.7635
 3151TIP3    H233649   1.561   5.445  19.283  2.1997 -0.8205  0.4031
 3152TIP3   OH233650   2.163   2.243  17.203  0.2769  0.5350 -0.2422
 3152TIP3    H133651   2.103   2.318  17.191 -0.8791 -0.0619  1.5006
 3152TIP3    H233652   2.154   2.193  17.122 -0.2522  1.3776 -0.7214
 3153TIP3   OH233653   1.483   2.650  17.637 -0.7011 -0.3260 -0.3957
 3153TIP3    H133654   1.576   2.662  17.621 -0.6997 -0.3234 -0.3864
 3153TIP3    H233655   1.443   2.652  17.550 -0.7151 -0.1340 -0.3841
 3154TIP3   OH233656   6.393   7.442  18.191 -0.0181 -0.5979 -0.6207
 3154TIP3    H133657   6.435   7.502  18.129  0.3327 -0.2702 -0.0809
 3154TIP3    H233658   6.460   7.375  18.209  0.3237 -0.0322  0.3005
 3155TIP3   OH233659   0.658   2.697  19.039  0.1099 -0.3374  0.0973
 3155TIP3    H133660   0.631   2.618  18.993 -1.8263  1.5709 -2.2848
 3155TIP3    H233661   0.699   2.751  18.972  0.9682  0.9243  1.5661
 3156TIP3   OH233662   0.379   0.218  19.655  0.9794  0.1485 -0.2080
 3156TIP3    H133663   0.392   0.283  19.724  0.4168 -0.1467  0.1844
 3156TIP3    H233664   0.467   0.201  19.621  1.7897 -2.0780  2.5991
 3157TIP3   OH233665   6.399   5.278  18.878 -0.1933  0.0203 -0.2976
 3157TIP3    H133666   6.380   5.283  18.784 -0.6631 -2.2939 -0.3810
 3157TIP3    H233667   6.453   5.355  18.895  0.0367  0.4274 -2.4965
 3158TIP3   OH233668   1.655   0.031  19.081  0.0609  0.2577 -0.1796
 3158TIP3    H133669   1.600  -0.037  19.041  1.2340 -0.3385 -0.8209
 3158TIP3    H233670   1.616   0.045  19.167 -0.8091 -0.5103 -0.4283
 3159TIP3   OH233671   6.228   7.186  17.199 -0.3613 -0.8344 -0.3525
 3159TIP3    H133672   6.236   7.187  17.294 -0.4193 -1.7687 -0.3280
 3159TIP3    H233673   6.173   7.110  17.180 -1.5584  0.1571 -1.0568
 3160TIP3   OH233674   2.643   5.932  19.510 -0.4857 -0.7438  0.4954
 3160TIP3    H133675   2.549   5.916  19.517 -0.4629 -1.8611 -1.1688
 3160TIP3    H233676   2.681   5.881  19.582 -1.0349 -1.7359  0.0996
 3161TIP3   OH233677   3.461   7.409  17.292 -0.2646 -0.0992 -0.3389
 3161TIP3    H133678   3.406   7.439  17.364  0.1305 -0.6697  0.2163
 3161TIP3    H233679   3.518   7.483  17.272  0.0660 -0.1575  0.3759
 3162TIP3   OH233680   2.726   7.250  17.778  0.0209  0.0162 -0.0167
 3162TIP3    H133681   2.745   7.269  17.870 -0.4458 -1.8016  0.4890
 3162TIP3    H233682   2.697   7.334  17.741 -0.2183  0.6638  1.5956
 3163TIP3   OH233683   3.983   2.732  17.977  0.2961 -0.6211 -0.2393
 3163TIP3    H133684   3.982   2.644  18.016 -1.4384 -0.1754  0.8218
 3163TIP3    H233685   3.894   2.765  17.990  0.9204  1.3185 -0.5732
 3164TIP3   OH233686   6.863   7.213  18.189  0.0343 -0.2074 -0.1691
 3164TIP3    H133687   6.775   7.227  18.223 -0.2067 -0.6520 -0.6111
 3164TIP3    H233688   6.921   7.245  18.258 -0.4614 -0.5100  0.3889
 3165TIP3   OH233689   7.556   1.645  17.924 -0.0856 -0.1012 -0.0455
 3165TIP3    H133690   7.576   1.645  17.831 -0.4666  0.1242 -0.1297
 3165TIP3    H233691   7.617   1.581  17.962  0.0354 -0.2297 -0.4546
 3166TIP3   OH233692   4.431   0.028  19.053 -0.1120  0.0987  0.3442
 3166TIP3    H133693   4.488   0.086  19.003 -0.5386  0.7060  0.5520
 3166TIP3    H233694   4.486  -0.049  19.072 -0.2454 -0.6201 -1.8950
 3167TIP3   OH233695   0.412   5.461  19.306  0.3922 -0.1281 -0.5038
 3167TIP3    H133696   0.412   5.539  19.362  1.2874 -0.5468  0.1165
 3167TIP3    H233697   0.492   5.469  19.255  0.5563 -0.7089 -0.3380
 3168TIP3   OH233698   6.656   4.728  17.865 -0.0051  0.5888 -0.1991
 3168TIP3    H133699   6.653   4.660  17.932  1.8390  0.7759  0.1047
 3168TIP3    H233700   6.699   4.687  17.791  1.0885  1.3958 -0.0291
 3169TIP3   OH233701   1.662   2.633  16.883  0.0737  0.8061 -0.0670
 3169TIP3    H133702   1.660   2.689  16.805  0.4707  0.7111 -0.1476
 3169TIP3    H233703   1.735   2.574  16.868  1.2110  1.8412  1.0993
 3170TIP3   OH233704   2.978   3.219  17.324 -0.3794 -0.0677  0.2593
 3170TIP3    H133705   2.905   3.220  17.262  0.4101  0.5825 -0.6902
 3170TIP3    H233706   3.056   3.227  17.269  0.2712  2.2399  1.4230
 3171TIP3   OH233707   2.428   6.733  18.723 -0.3490  0.3452 -0.1753
 3171TIP3    H133708   2.520   6.754  18.710 -0.0591 -1.0461 -0.4987
 3171TIP3    H233709   2.391   6.733  18.634 -0.2709 -0.7922 -0.2148
 3172TIP3   OH233710   3.782   1.248  19.169 -0.1208 -0.0424  0.4782
 3172TIP3    H133711   3.835   1.327  19.181  0.1868 -0.4227  1.7566
 3172TIP3    H233712   3.842   1.177  19.190 -0.4851 -0.6116 -0.3649
 3173TIP3   OH233713   3.191   5.085  16.843  0.3425  0.5463  0.0976
 3173TIP3    H133714   3.260   5.145  16.816  0.4308  0.2487 -0.3643
 3173TIP3    H233715   3.117   5.142  16.866  0.9102  0.8870  1.1329
 3174TIP3   OH233716   3.933   6.798  18.294  0.6514 -0.1570 -0.1833
 3174TIP3    H133717   3.944   6.878  18.345 -0.7489  0.3416 -0.6020
 3174TIP3    H233718   3.848   6.763  18.322  1.1416 -1.3916 -0.1637
 3175TIP3   OH233719   7.501   0.423  17.929  0.1629  0.2510  0.1946
 3175TIP3    H133720   7.424   0.375  17.961 -0.4970  0.6657 -0.7297
 3175TIP3    H233721   7.483   0.438  17.836  1.3872  0.3287 -0.0488
 3176TIP3   OH233722   1.199   1.600  18.170  0.1190 -0.4941  0.1032
 3176TIP3    H133723   1.229   1.661  18.103  1.0109  0.0244  0.9578
 3176TIP3    H233724   1.251   1.621  18.247 -1.2657 -0.7083  1.1343
 3177TIP3   OH233725   0.151   2.544  19.241  0.1809 -0.7888 -0.8984
 3177TIP3    H133726   0.101   2.478  19.289 -0.7125 -0.6686 -1.6547
 3177TIP3    H233727   0.202   2.493  19.178  0.7124 -0.8744 -0.4143
 3178TIP3   OH233728   5.438   5.872  17.687  0.1677  0.1124  0.5826
 3178TIP3    H133729   5.530   5.899  17.690  0.0824  0.3286  1.6435
 3178TIP3    H233730   5.441   5.776  17.686  0.4195  0.1182 -0.7410
 3179TIP3   OH233731   2.469   6.129  16.966  0.4051 -0.5887 -0.4558
 3179TIP3    H133732   2.388   6.140  17.015  0.6113  0.1368 -0.2564
 3179TIP3    H233733   2.451   6.166  16.880  1.0852  1.4579  0.2011
 3180TIP3   OH233734   0.474   3.695  17.481 -0.1590  0.8178 -0.3057
 3180TIP3    H133735   0.474   3.788  17.460  0.2960  0.7428 -0.6433
 3180TIP3    H233736   0.484   3.692  17.576 -0.4362  1.1162 -0.2647
 3181TIP3   OH233737   4.654   1.188  17.528 -0.6600  0.6444 -0.0764
 3181TIP3    H133738   4.732   1.241  17.546  0.8507 -1.4018 -0.2354
 3181TIP3    H233739   4.623   1.161  17.614  0.5299 -0.8452 -0.0842
 3182TIP3   OH233740   2.628   7.444  16.972 -0.2406 -0.3145 -0.4144
 3182TIP3    H133741   2.687   7.408  16.906 -0.0003 -1.8911  0.6168
 3182TIP3    H233742   2.548   7.465  16.925  0.3870 -0.1501 -1.4391
 3183TIP3   OH233743   6.276   1.998  16.961 -0.1146 -0.0252 -0.4443
 3183TIP3    H133744   6.273   1.909  16.997 -2.0020  0.2801  0.3033
 3183TIP3    H233745   6.229   2.051  17.026  2.0861  1.8016 -0.2170
 3184TIP3   OH233746   3.079   4.400  17.706 -0.0583 -0.3770  0.4144
 3184TIP3    H133747   3.089   4.388  17.801  3.8042 -0.7932  0.1140
 3184TIP3    H233748   3.038   4.486  17.697  2.2435  1.0891  2.5213
 3185TIP3   OH233749   4.401   1.965  18.324 -0.2718 -0.3858 -0.0082
 3185TIP3    H133750   4.307   1.951  18.333 -0.2467 -0.5339  0.0463
 3185TIP3    H233751   4.421   2.038  18.382 -0.4516  0.0433 -0.4861
 3186TIP3   OH233752   5.612   5.730  18.736  0.5737 -0.6887 -0.2998
 3186TIP3    H133753   5.692   5.680  18.750  0.8151  0.3366  2.6610
 3186TIP3    H233754   5.568   5.685  18.664  2.8107 -2.5197 -0.6368
 3187TIP3   OH233755   4.316   4.851  19.301 -0.4502  0.2757  0.1121
 3187TIP3    H133756   4.316   4.861  19.206 -0.5868 -1.3314 -0.0743
 3187TIP3    H233757   4.226   4.829  19.323 -0.5918  1.3705  0.7282
 3188TIP3   OH233758   5.200   6.499  17.534  0.0469  0.3946 -0.0045
 3188TIP3    H133759   5.177   6.439  17.605  0.5590 -1.4671 -1.3277
 3188TIP3    H233760   5.144   6.576  17.548  0.2338  0.1659  2.4471
 3189TIP3   OH233761   4.431   3.167  18.424  0.2816  0.3990  0.1836
 3189TIP3    H133762   4.495   3.106  18.386  1.5567  1.5250  0.4536
 3189TIP3    H233763   4.357   3.164  18.364  0.3425 -1.3435  0.1439
 3190TIP3   OH233764   7.284   4.921  18.708 -0.0455 -0.2056  0.6067
 3190TIP3    H133765   7.314   5.012  18.707 -2.6692  0.7425  0.1157
 3190TIP3    H233766   7.194   4.926  18.739 -0.2094 -2.6862  0.7274
 3191TIP3   OH233767   6.243   5.771  17.323 -0.3499 -0.1291 -0.2715
 3191TIP3    H133768   6.278   5.728  17.245 -0.4357  1.5190 -1.2630
 3191TIP3    H233769   6.318   5.817  17.360 -0.4968 -0.2396  0.1608
 3192TIP3   OH233770   4.342   0.899  18.078 -0.3455 -0.1875 -0.7786
 3192TIP3    H133771   4.372   0.808  18.078  2.5313  0.6489  0.1675
 3192TIP3    H233772   4.310   0.913  17.989 -2.0786 -2.3962 -0.6207
 3193TIP3   OH233773   0.950   4.542  17.082 -0.1460 -0.0109  0.1044
 3193TIP3    H133774   0.913   4.457  17.108 -1.1505  1.3082  3.4092
 3193TIP3    H233775   0.896   4.569  17.008 -0.4375 -1.7875 -0.3930
 3194TIP3   OH233776   4.849   5.324  18.148 -0.1670 -0.2076 -0.1886
 3194TIP3    H133777   4.888   5.316  18.061 -0.2596 -2.3454 -0.0714
 3194TIP3    H233778   4.757   5.346  18.132  0.1616  0.9598 -0.5625
 3195TIP3   OH233779   1.823   3.314  18.931 -0.4418 -0.3695 -0.0922
 3195TIP3    H133780   1.897   3.253  18.924 -0.4206 -0.2073 -1.4066
 3195TIP3    H233781   1.749   3.267  18.891 -0.6272  0.1403 -0.3545
 3196TIP3   OH233782   4.809   0.521  18.508 -0.2005 -0.6592 -0.0494
 3196TIP3    H133783   4.734   0.534  18.565  0.6269  0.7677  0.7777
 3196TIP3    H233784   4.807   0.428  18.486 -2.4176 -0.5861 -0.3876
 3197TIP3   OH233785   4.413   5.656  19.761 -0.8367  0.0058  0.1737
 3197TIP3    H133786   4.324   5.641  19.729 -0.3769  0.0580 -1.2081
 3197TIP3    H233787   4.469   5.630  19.688  0.3047 -0.4005  1.1671
 3198TIP3   OH233788   4.727   2.498  17.805  1.2331  0.1706 -0.1570
 3198TIP3    H133789   4.802   2.475  17.859  1.2218 -0.4791 -0.4162
 3198TIP3    H233790   4.664   2.537  17.866  0.3555 -2.4560  0.7206
 3199TIP3   OH233791   1.210   1.473  18.687  0.3722  0.3481 -0.3197
 3199TIP3    H133792   1.140   1.474  18.622 -0.2183  0.0524  0.2981
 3199TIP3    H233793   1.239   1.382  18.690 -0.9273 -0.0510  1.2000
 3200TIP3   OH233794   7.286   6.332  17.138  0.3971  0.0701 -0.5879
 3200TIP3    H133795   7.334   6.306  17.217  0.6644  0.0974 -0.7392
 3200TIP3    H233796   7.352   6.374  17.083  0.0934  0.5518 -0.5881
 3201TIP3   OH233797   2.057   5.361  17.598 -0.5410  0.1719  0.6265
 3201TIP3    H133798   2.006   5.284  17.573  0.0859  0.0969 -0.5119
 3201TIP3    H233799   2.067   5.354  17.693  0.2846 -1.6688  0.4515
 3202TIP3   OH233800   1.153   5.870  19.259 -1.1335 -0.0935  0.0012
 3202TIP3    H133801   1.083   5.906  19.205 -0.7699  1.0167  0.2560
 3202TIP3    H233802   1.231   5.917  19.231 -1.0163  0.8493  1.8088
 3203TIP3   OH233803   3.866   0.157  19.377  0.4230 -0.1673 -0.4134
 3203TIP3    H133804   3.772   0.156  19.391  0.1473  0.2482 -2.0567
 3203TIP3    H233805   3.877   0.146  19.283  2.1120 -3.2119 -0.0040
 3204TIP3   OH233806   6.479   0.822  18.159  1.0256  0.3206  0.1057
 3204TIP3    H133807   6.499   0.875  18.081  0.2454 -1.1391 -1.1439
 3204TIP3    H233808   6.530   0.863  18.229  2.9607  0.8099 -1.4818
 3205TIP3   OH233809   3.620   5.229  18.147 -0.2487  0.5123  0.2064
 3205TIP3    H133810   3.624   5.224  18.242  1.4210  0.5467  0.1677
 3205TIP3    H233811   3.629   5.138  18.117  1.6913  0.7041  0.0702
 3206TIP3   OH233812   2.209   2.149  18.174 -0.5917  0.0756  0.1254
 3206TIP3    H133813   2.229   2.126  18.265 -1.3420 -0.7830  0.0914
 3206TIP3    H233814   2.292   2.180  18.138  0.5205 -2.4816  0.2197
 3207TIP3   OH233815   0.165   7.317  17.861  0.1261 -0.2310  0.2058
 3207TIP3    H133816   0.099   7.339  17.927 -0.1139  0.2123 -0.1801
 3207TIP3    H233817   0.180   7.223  17.874 -2.3871 -0.9469 -1.2772
 3208TIP3   OH233818   4.443   4.741  18.618 -0.1829 -0.7542  0.0081
 3208TIP3    H133819   4.401   4.796  18.551 -1.9338 -0.5788  1.1768
 3208TIP3    H233820   4.418   4.652  18.594  0.6746 -0.8644 -0.5383
 3209TIP3   OH233821   4.881   6.339  17.376 -0.0411 -0.2039 -0.6094
 3209TIP3    H133822   4.970   6.366  17.353  0.4449  0.1218  1.4507
 3209TIP3    H233823   4.891   6.251  17.413 -0.4560  0.1357  0.3343
 3210TIP3   OH233824   6.000   4.231  18.624  0.1413  0.0247  0.3031
 3210TIP3    H133825   6.016   4.221  18.718 -1.4955 -0.7782  0.5242
 3210TIP3    H233826   5.906   4.221  18.615  0.1879  0.8392 -1.3563
 3211TIP3   OH233827   2.690   4.929  17.564 -0.2928  0.8528  0.3263
 3211TIP3    H133828   2.777   4.924  17.604 -0.2518  1.8521  0.4042
 3211TIP3    H233829   2.635   4.965  17.634 -0.7885  0.1454  0.3009
 3212TIP3   OH233830   5.625   4.808  16.825  0.4587  0.0629  0.4998
 3212TIP3    H133831   5.700   4.810  16.886  0.9492  0.4854 -0.1033
 3212TIP3    H233832   5.605   4.900  16.809  0.5720 -0.0398 -0.2652
 3213TIP3   OH233833   2.954   1.714  19.123  0.0783  0.3759  0.5752
 3213TIP3    H133834   3.016   1.643  19.104  1.0480  1.5894 -0.9870
 3213TIP3    H233835   3.003   1.774  19.179  0.2500  1.2086 -0.4467
 3214TIP3   OH233836   3.256   3.675  19.585  1.1022  0.8254 -0.3578
 3214TIP3    H133837   3.224   3.586  19.599  1.1192  0.6154 -1.5780
 3214TIP3    H233838   3.177   3.729  19.582  1.1153  0.9599  0.9299
 3215TIP3   OH233839   1.717   2.755  17.583 -0.4991 -0.0300 -0.8085
 3215TIP3    H133840   1.792   2.753  17.643 -2.2430 -0.9940  1.5355
 3215TIP3    H233841   1.702   2.848  17.567  2.3750  0.1892 -3.0999
 3216TIP3   OH233842   3.507   1.305  19.343 -0.5529  0.1457  0.0833
 3216TIP3    H133843   3.545   1.338  19.424  0.0555 -2.1800  0.8160
 3216TIP3    H233844   3.582   1.282  19.288 -0.9617  1.5129 -1.1023
 3217TIP3   OH233845   6.841   2.490  19.417 -0.5439  1.0601 -0.0910
 3217TIP3    H133846   6.892   2.565  19.387 -0.8044  0.7918 -1.2886
 3217TIP3    H233847   6.904   2.436  19.464  0.1485  1.0608 -0.9731
 3218TIP3   OH233848   0.616   5.499  18.607  0.3166  0.4010 -0.0941
 3218TIP3    H133849   0.555   5.427  18.593  1.0239  0.0421 -1.5208
 3218TIP3    H233850   0.699   5.467  18.572  1.3184  0.9231  1.6788
 3219TIP3   OH233851   0.277   6.750  18.172 -0.2535  0.3006 -0.5930
 3219TIP3    H133852   0.280   6.774  18.079  0.5192 -0.8010 -0.8628
 3219TIP3    H233853   0.261   6.656  18.172  0.1667  0.2198  0.3809
 3220TIP3   OH233854   2.796   5.131  17.051  0.2506  0.0543 -0.1475
 3220TIP3    H133855   2.836   5.167  17.130 -1.2703 -0.1833  0.7654
 3220TIP3    H233856   2.788   5.038  17.068 -0.6966  0.0988 -0.2917
 3221TIP3   OH233857   4.403   1.326  18.642  0.1292  0.1269  0.0830
 3221TIP3    H133858   4.434   1.261  18.706  2.4041  1.8222  0.8536
 3221TIP3    H233859   4.384   1.404  18.694 -0.3546  0.7986 -1.0576
 3222TIP3   OH233860   3.599   2.538  17.825  0.8819  0.0367 -0.0649
 3222TIP3    H133861   3.535   2.594  17.781  0.8156 -0.4719 -0.6307
 3222TIP3    H233862   3.672   2.531  17.763  1.6220  0.8294  0.6791
 3223TIP3   OH233863   5.529   5.697  19.006 -0.1215 -0.2553 -0.0016
 3223TIP3    H133864   5.453   5.652  18.969 -0.4672 -0.4662  0.9347
 3223TIP3    H233865   5.603   5.665  18.955 -0.4182 -1.5529  0.3332
 3224TIP3   OH233866   1.493   7.309  19.213 -0.0423 -0.2001  0.5059
 3224TIP3    H133867   1.555   7.240  19.189 -0.2502 -1.3348  2.9862
 3224TIP3    H233868   1.408   7.266  19.217 -1.2655  1.4199 -3.2522
 3225TIP3   OH233869   0.853   4.068  17.172 -0.0165  0.4231  0.4501
 3225TIP3    H133870   0.831   4.158  17.148  0.7718  0.4897 -0.0266
 3225TIP3    H233871   0.783   4.015  17.134 -0.1464  0.7757  0.1952
 3226TIP3   OH233872   4.177   5.728  18.430  0.5185  0.3610 -0.3862
 3226TIP3    H133873   4.100   5.771  18.392 -0.3332 -1.0753 -0.3636
 3226TIP3    H233874   4.210   5.790  18.495 -0.5383  1.0500 -0.4832
 3227TIP3   OH233875   1.097   3.733  17.775 -0.0011  0.1067 -0.2685
 3227TIP3    H133876   1.159   3.767  17.839 -0.4707  1.1738 -0.3604
 3227TIP3    H233877   1.019   3.711  17.826  0.1315 -0.3799 -0.2768
 3228TIP3   OH233878   3.355   6.813  19.168 -0.2994 -0.2136 -0.3185
 3228TIP3    H133879   3.443   6.778  19.181 -0.6557 -0.7475  0.7688
 3228TIP3    H233880   3.342   6.810  19.074  0.6668 -0.5602 -0.4557
 3229TIP3   OH233881   0.072   4.561  18.691  0.0243  0.1563  0.0433
 3229TIP3    H133882  -0.020   4.556  18.717 -0.2473 -1.0491 -1.0500
 3229TIP3    H233883   0.074   4.627  18.623 -0.4915 -1.4329 -1.5886
 3230TIP3   OH233884   2.797   2.165  17.253  0.6722  0.0783  0.1539
 3230TIP3    H133885   2.827   2.255  17.263 -0.8968  0.5839  0.6503
 3230TIP3    H233886   2.869   2.111  17.285  0.8399  1.2333  1.8435
 3231TIP3   OH233887   7.339   4.243  19.446  0.0261  0.9429 -0.6475
 3231TIP3    H133888   7.274   4.303  19.485  0.6496  2.0855 -1.3207
 3231TIP3    H233889   7.423   4.284  19.465  0.6609 -0.9537  0.9556
 3232TIP3   OH233890   7.602   3.913  17.839  0.7604  0.2359  0.3684
 3232TIP3    H133891   7.639   3.826  17.820 -1.9134 -0.9881  0.3848
 3232TIP3    H233892   7.631   3.931  17.929  1.9475 -0.2531  0.1122
 3233TIP3   OH233893   6.303   3.175  19.292 -0.6807  0.4674 -0.7799
 3233TIP3    H133894   6.301   3.139  19.204  1.8221 -1.1003 -0.2805
 3233TIP3    H233895   6.234   3.127  19.339 -1.4703  0.7319 -1.6304
 3234TIP3   OH233896   1.773   0.734  17.001 -0.0577 -0.3489  0.0722
 3234TIP3    H133897   1.771   0.752  16.907  0.6605 -0.2608  0.0660
 3234TIP3    H233898   1.752   0.641  17.008 -0.1428 -0.3484 -0.1741
 3235TIP3   OH233899   0.509   5.238  17.119  0.3363  0.7583  0.0594
 3235TIP3    H133900   0.529   5.146  17.135 -0.9735  0.4403 -0.0006
 3235TIP3    H233901   0.478   5.241  17.028  0.8966  1.3486 -0.1135
 3236TIP3   OH233902   1.439   6.837  16.656  0.0137  0.4999  0.1898
 3236TIP3    H133903   1.489   6.794  16.587 -0.7190  0.5988 -0.4213
 3236TIP3    H233904   1.400   6.765  16.706  0.7136  0.4241  0.6401
 3237TIP3   OH233905   0.367   6.140  18.512  0.7429  0.2252 -0.3001
 3237TIP3    H133906   0.363   6.077  18.440 -0.9681 -0.5012  0.3720
 3237TIP3    H233907   0.295   6.200  18.496  0.4218  0.1350  0.6953
 3238TIP3   OH233908   2.810   4.961  17.963 -0.0512 -0.1585  0.3628
 3238TIP3    H133909   2.776   4.999  17.882  1.4779  0.4065 -0.0635
 3238TIP3    H233910   2.803   4.866  17.950 -1.2368 -0.0662  0.2324
 3239TIP3   OH233911   2.340   0.055  19.184  0.4514 -0.0397 -0.1610
 3239TIP3    H133912   2.408   0.069  19.250 -0.1337  1.0063  0.2391
 3239TIP3    H233913   2.375   0.094  19.104  1.3515 -1.7036 -0.6210
 3240TIP3   OH233914   7.269   6.072  18.418  0.4543  0.2368 -0.4565
 3240TIP3    H133915   7.203   6.083  18.349  0.6305 -0.4454 -0.7337
 3240TIP3    H233916   7.351   6.099  18.377  0.1862  2.4372  0.2920
 3241TIP3   OH233917   0.527   5.714  16.717 -0.4355 -0.2405 -0.6969
 3241TIP3    H133918   0.609   5.760  16.736 -0.6061  0.4865 -1.6398
 3241TIP3    H233919   0.531   5.634  16.769  0.2291  0.4727  0.3677
 3242TIP3   OH233920   5.814   4.818  18.414 -0.5739  0.2231 -0.1658
 3242TIP3    H133921   5.760   4.840  18.339  0.2928  1.4952 -0.4368
 3242TIP3    H233922   5.902   4.847  18.391  0.0304 -0.8358  0.6945
 3243TIP3   OH233923   4.793   4.858  17.661  0.0088  0.2436  0.1768
 3243TIP3    H133924   4.877   4.894  17.691 -0.5078  0.5460  1.3475
 3243TIP3    H233925   4.777   4.901  17.577  2.0111 -1.4065 -1.1176
 3244TIP3   OH233926   5.495   7.529  17.710 -0.0189  0.0744  0.2340
 3244TIP3    H133927   5.541   7.452  17.675 -1.3661 -0.5734 -0.1981
 3244TIP3    H233928   5.452   7.568  17.633 -1.4006 -0.2300  0.8115
 3245TIP3   OH233929   5.075   4.288  17.311 -0.1851 -0.0087  0.4055
 3245TIP3    H133930   5.156   4.302  17.360 -0.7459  0.2037  1.3201
 3245TIP3    H233931   5.079   4.351  17.240  1.1197 -1.0194 -0.4629
 3246TIP3   OH233932   7.464   7.256  17.842  0.0617  0.1146 -0.2299
 3246TIP3    H133933   7.470   7.174  17.891 -1.4361  0.4488  0.5915
 3246TIP3    H233934   7.490   7.323  17.904 -2.0046  0.5586  0.2483
 3247TIP3   OH233935   0.227   7.306  18.667 -0.0498 -0.1347  0.1904
 3247TIP3    H133936   0.260   7.387  18.628  1.1750 -1.6248 -2.0578
 3247TIP3    H233937   0.305   7.262  18.700 -0.5171 -1.0547  0.0859
 3248TIP3   OH233938   5.596   2.401  18.284  0.1824  0.6569  0.4296
 3248TIP3    H133939   5.549   2.347  18.348  1.8130  0.4664  1.5338
 3248TIP3    H233940   5.534   2.469  18.259 -1.3256 -0.6947  0.3365
 3249TIP3   OH233941   6.086   2.933  19.013  0.1240 -0.4829 -0.3603
 3249TIP3    H133942   6.032   2.924  19.092  0.9509 -0.6253  0.1963
 3249TIP3    H233943   6.153   2.865  19.021  1.8217  1.1538  0.1191
 3250TIP3   OH233944   3.551   0.814  19.249  0.4401  0.2144 -0.5274
 3250TIP3    H133945   3.470   0.762  19.249  1.2752 -1.1702 -2.0798
 3250TIP3    H233946   3.574   0.821  19.341 -0.8076 -0.3939 -0.1385
 3251TIP3   OH233947   2.242   4.140  19.443 -0.0700  0.0808  0.1734
 3251TIP3    H133948   2.168   4.139  19.504  0.4746  0.7966  0.8613
 3251TIP3    H233949   2.291   4.219  19.466  1.7446 -1.1568  0.7352
 3252TIP3   OH233950   4.451   1.225  19.246  0.6985 -0.2553  0.0617
 3252TIP3    H133951   4.440   1.315  19.274 -0.2958 -0.6780  1.1006
 3252TIP3    H233952   4.366   1.184  19.260  1.2651 -1.4810  0.1021
 3253TIP3   OH233953   7.444   0.655  19.023  0.3187 -0.0124  0.3526
 3253TIP3    H133954   7.498   0.584  19.058 -1.5968 -1.6951  0.0982
 3253TIP3    H233955   7.495   0.690  18.950  1.1685 -1.3827  0.2533
 3254TIP3   OH233956   6.300   4.969  19.124 -0.1341 -0.0292  0.0349
 3254TIP3    H133957   6.347   5.049  19.150 -0.8800 -0.8402  4.8872
 3254TIP3    H233958   6.214   4.999  19.096  0.6321  0.9748 -1.3766
 3255TIP3   OH233959   6.379   1.528  18.855  0.1033  0.4700  0.2325
 3255TIP3    H133960   6.424   1.471  18.794 -0.6992 -0.7745  0.7723
 3255TIP3    H233961   6.336   1.593  18.800  2.2617  1.5279 -0.3092
 3256TIP3   OH233962   0.137   6.453  17.346 -0.1537 -0.1446 -0.0293
 3256TIP3    H133963   0.153   6.547  17.336 -1.3101  0.0443 -0.2510
 3256TIP3    H233964   0.059   6.448  17.403  1.4683 -1.0381  2.2709
 3257TIP3   OH233965   3.653   1.881  18.068 -0.5861 -0.0525  0.2900
 3257TIP3    H133966   3.586   1.813  18.071  1.1150 -1.8069  0.2316
 3257TIP3    H233967   3.663   1.901  17.974  0.2242 -1.1172  0.1369
 3258TIP3   OH233968   4.375   7.658  18.636  0.1715 -0.0510  0.6113
 3258TIP3    H133969   4.457   7.628  18.674  1.1216 -0.2419 -1.4581
 3258TIP3    H233970   4.355   7.594  18.567 -0.5563  1.1459 -0.3388
 3259TIP3   OH233971   1.949   0.822  17.848  0.5621  0.0733  0.2821
 3259TIP3    H133972   1.937   0.900  17.902  1.8314  2.0639 -2.0423
 3259TIP3    H233973   2.041   0.799  17.861 -0.2550 -2.3933  2.4633
 3260TIP3   OH233974   6.651   0.352  18.340  0.2326  0.2875  0.6075
 3260TIP3    H133975   6.719   0.374  18.277  2.0511  0.0715  2.3951
 3260TIP3    H233976   6.575   0.329  18.286  1.8587 -0.4656 -1.5165
 3261TIP3   OH233977   0.071   1.382  18.137  0.3451  0.0107 -0.1235
 3261TIP3    H133978   0.131   1.336  18.196  1.4676  0.8908 -0.5216
 3261TIP3    H233979   0.129   1.423  18.072 -0.6034  1.7590  0.0733
 3262TIP3   OH233980   2.301   5.453  18.983  0.8417 -0.4595 -0.0459
 3262TIP3    H133981   2.390   5.439  19.017  1.3872 -0.0780 -1.2515
 3262TIP3    H233982   2.297   5.547  18.967  0.5008 -0.5960 -0.7624
 3263TIP3   OH233983   7.145   6.444  18.840 -0.0578  0.2533 -0.0342
 3263TIP3    H133984   7.181   6.378  18.900 -2.4386  0.0191  1.2512
 3263TIP3    H233985   7.140   6.399  18.755  0.3925 -0.4818  0.3188
 3264TIP3   OH233986   7.575   7.097  18.275 -0.0513  0.3817 -0.2113
 3264TIP3    H133987   7.623   7.117  18.356 -2.5740  2.6898  0.8653
 3264TIP3    H233988   7.487   7.076  18.304 -0.6659 -0.1638 -2.3022
 3265TIP3   OH233989   0.985   4.818  18.426  0.4700  0.8628  0.2123
 3265TIP3    H133990   0.923   4.839  18.496  0.7306  2.8072 -0.0852
 3265TIP3    H233991   1.067   4.797  18.472  0.0676 -0.0373  0.5439
 3266TIP3   OH233992   6.482   7.398  18.490  0.3406  0.4218 -0.0374
 3266TIP3    H133993   6.493   7.341  18.414  0.9011  0.0162  0.3485
 3266TIP3    H233994   6.490   7.487  18.454  1.1008  0.2215 -0.3689
 3267TIP3   OH233995   5.678   3.832  19.192  0.4058 -0.5127  0.3537
 3267TIP3    H133996   5.718   3.919  19.189  0.1714 -0.3185  1.8426
 3267TIP3    H233997   5.749   3.774  19.218  0.7438 -0.9240 -1.3617
 3268TIP3   OH233998   7.131   6.993  18.860  0.0738  0.0494  0.0222
 3268TIP3    H133999   7.078   6.917  18.883 -2.7915  1.5314 -1.1597
 3268TIP3    H234000   7.129   7.048  18.938  0.0672 -0.0175  0.0687
 3269TIP3   OH234001   1.546   6.846  18.638 -0.1839  0.3670 -0.1998
 3269TIP3    H134002   1.555   6.773  18.700  1.1159  0.8481  0.2145
 3269TIP3    H234003   1.465   6.828  18.592  0.0088 -1.2499  0.0240
 3270TIP3   OH234004   4.605   5.913  17.790  0.3343 -0.3404 -0.0823
 3270TIP3    H134005   4.622   5.821  17.810  4.0345  0.2945  0.3895
 3270TIP3    H234006   4.622   5.921  17.696  0.4089 -0.0721 -0.0466
 3271TIP3   OH234007   5.273   4.600  19.199 -0.1613  0.2672 -0.6514
 3271TIP3    H134008   5.307   4.656  19.129 -0.6170  1.5326  0.1054
 3271TIP3    H234009   5.295   4.511  19.172  1.2056  0.8512 -1.5567
 3272TIP3   OH234010   4.780   1.348  17.825 -0.3326  0.5372 -0.2403
 3272TIP3    H134011   4.759   1.270  17.875  0.4568  1.7043  2.0120
 3272TIP3    H234012   4.870   1.336  17.796 -0.4354  0.3376 -0.4836
 3273TIP3   OH234013   7.010   2.134  18.602  0.7065 -0.1232 -0.0385
 3273TIP3    H134014   7.003   2.049  18.560  1.1884  0.0184 -0.4187
 3273TIP3    H234015   6.967   2.195  18.541  3.0391  0.3888 -1.3021
 3274TIP3   OH234016   6.695   5.959  16.801 -0.2988 -0.1130 -0.1490
 3274TIP3    H134017   6.630   6.018  16.763 -0.5203 -0.5438 -0.4441
 3274TIP3    H234018   6.775   5.975  16.751 -0.7637 -1.1617 -1.2743
 3275TIP3   OH234019   3.584   2.398  18.472 -0.4020 -0.0320 -0.1882
 3275TIP3    H134020   3.511   2.338  18.491 -0.4961 -0.1645 -0.9413
 3275TIP3    H234021   3.624   2.362  18.393 -0.1544  0.6260 -0.3631
 3276TIP3   OH234022   6.567   3.998  18.399  0.2331  0.0819 -0.5225
 3276TIP3    H134023   6.522   3.948  18.467  0.5463 -0.5333 -0.7494
 3276TIP3    H234024   6.517   3.980  18.319 -0.2413  0.9469 -0.4296
 3277TIP3   OH234025   6.396   5.471  17.264  0.1945 -0.4732 -0.0487
 3277TIP3    H134026   6.437   5.556  17.244 -1.1422  0.1976 -0.0352
 3277TIP3    H234027   6.308   5.478  17.229  0.0341 -1.8493  0.0253
 3278TIP3   OH234028   1.112   1.549  18.942  0.6615 -0.2367  0.0928
 3278TIP3    H134029   1.114   1.536  18.847 -0.8391 -1.2485  0.1798
 3278TIP3    H234030   1.112   1.461  18.979  3.1494  0.1217  1.1478
 3279TIP3   OH234031   4.884   2.981  18.675  0.6907 -0.4474  0.7868
 3279TIP3    H134032   4.827   2.906  18.661  0.2317 -0.2975  1.7242
 3279TIP3    H234033   4.872   3.035  18.597 -0.2588 -0.5450  0.8479
 3280TIP3   OH234034   6.123   3.820  19.057 -0.4669  0.2426  0.3565
 3280TIP3    H134035   6.217   3.803  19.052 -0.1146  2.1776 -0.6211
 3280TIP3    H234036   6.105   3.834  19.150  0.4857  1.1039  0.4283
 3281TIP3   OH234037   5.368   4.400  18.343 -0.3248 -0.8700  0.4346
 3281TIP3    H134038   5.456   4.365  18.328  0.3960  0.3186  1.6504
 3281TIP3    H234039   5.335   4.421  18.256  0.8205 -0.8360 -0.0080
 3282TIP3   OH234040   6.040   0.312  17.241 -0.3095  0.6520 -0.2734
 3282TIP3    H134041   6.051   0.356  17.325 -1.3142  0.5260 -0.0657
 3282TIP3    H234042   6.095   0.234  17.247 -2.2082 -0.6479  1.2332
 3283TIP3   OH234043   0.646   1.894  18.446  0.5481  0.0037  0.5589
 3283TIP3    H134044   0.656   1.928  18.357  0.7701 -0.6059  0.3515
 3283TIP3    H234045   0.552   1.884  18.457  0.6037 -2.3032 -0.5241
 3284TIP3   OH234046   6.543   3.465  18.496  0.6305 -0.2517  0.2966
 3284TIP3    H134047   6.449   3.471  18.482  0.5638  2.0710  1.3901
 3284TIP3    H234048   6.580   3.531  18.437  1.6373 -1.3276 -0.3303
 3285TIP3   OH234049   2.333   1.279  17.363  0.1570  0.1454 -0.2815
 3285TIP3    H134050   2.257   1.254  17.415  0.7409 -0.1962  0.4325
 3285TIP3    H234051   2.304   1.271  17.272 -0.1676 -1.6048 -0.0592
 3286TIP3   OH234052   2.884   5.329  18.517 -0.0903  0.2026 -0.2146
 3286TIP3    H134053   2.861   5.295  18.430 -1.2885 -0.3183  0.2880
 3286TIP3    H234054   2.926   5.413  18.499  2.5379 -1.2690 -1.4629
 3287TIP3   OH234055   3.938   1.023  19.227 -0.2668 -0.1545  0.1811
 3287TIP3    H134056   3.945   0.936  19.267  2.2454  0.0394  0.3410
 3287TIP3    H234057   3.947   1.007  19.133 -0.4779 -0.1244  0.1560
 3288TIP3   OH234058   4.124   3.341  17.755  0.6723 -0.1646 -0.0014
 3288TIP3    H134059   4.083   3.422  17.785  0.8605 -0.0138 -0.1510
 3288TIP3    H234060   4.173   3.310  17.832 -0.9504 -1.1726  0.6840
 3289TIP3   OH234061   0.846   6.449  19.172  0.3177  0.0077 -0.0734
 3289TIP3    H134062   0.861   6.452  19.267 -0.7664 -0.8929  0.1585
 3289TIP3    H234063   0.765   6.498  19.159 -0.5564 -1.4171 -0.2537
 3290TIP3   OH234064   7.375   3.841  18.687  0.0980 -0.0412  0.2470
 3290TIP3    H134065   7.339   3.926  18.711  0.9112  0.6868 -1.0101
 3290TIP3    H234066   7.395   3.849  18.594  0.9899 -1.3236  0.3019
 3291TIP3   OH234067   4.194   3.889  17.277 -0.5532  0.0827 -0.8339
 3291TIP3    H134068   4.194   3.899  17.372  2.0925  2.0208 -0.9317
 3291TIP3    H234069   4.101   3.889  17.253 -1.3408 -1.8114  1.7908
 3292TIP3   OH234070   5.039   4.951  17.739  0.3689 -0.1366 -0.4798
 3292TIP3    H134071   5.112   4.915  17.790  0.3931 -0.5471 -0.7911
 3292TIP3    H234072   5.074   5.031  17.699  0.7691 -0.5275 -0.9257
 3293TIP3   OH234073   3.119   5.156  19.051 -0.1934  0.8038  0.0065
 3293TIP3    H134074   3.052   5.191  18.993 -0.8535 -1.7919 -0.9229
 3293TIP3    H234075   3.202   5.174  19.006 -0.4583  1.5832 -0.1801
 3294TIP3   OH234076   5.843   3.775  17.552  0.3122  0.0891  0.8733
 3294TIP3    H134077   5.765   3.758  17.605  0.1512  0.5716  0.7912
 3294TIP3    H234078   5.915   3.736  17.602  0.1371  0.3747  1.3504
 3295TIP3   OH234079   1.344   1.474  17.769 -0.1974  0.2906 -0.2612
 3295TIP3    H134080   1.340   1.437  17.681  1.8460  1.0082 -0.7070
 3295TIP3    H234081   1.434   1.504  17.779  0.3855 -1.9410  2.9673
 3296TIP3   OH234082   6.439   5.109  18.249 -0.0824  0.3317  0.0139
 3296TIP3    H134083   6.431   5.016  18.227  3.5351 -0.4357  1.1326
 3296TIP3    H234084   6.504   5.111  18.320  1.2912  3.7999 -1.1214
 3297TIP3   OH234085   4.799   5.205  17.862 -0.3615 -0.1302  0.0199
 3297TIP3    H134086   4.716   5.158  17.862 -0.5164  0.1339 -0.3743
 3297TIP3    H234087   4.859   5.148  17.813  0.2242 -1.2077  1.9050
 3298TIP3   OH234088   3.934   3.368  18.703 -0.5029  0.3917 -0.2245
 3298TIP3    H134089   4.020   3.337  18.676 -0.6245 -1.3305  1.1945
 3298TIP3    H234090   3.951   3.423  18.780 -0.6997 -0.3249  0.3343
 3299TIP3   OH234091   2.941   1.158  19.241 -0.1463 -0.9999 -0.3606
 3299TIP3    H134092   2.867   1.100  19.258 -0.0129 -1.1722 -0.3704
 3299TIP3    H234093   2.925   1.192  19.153  0.6686 -2.3790 -1.0736
 3300TIP3   OH234094   1.471   4.432  18.823 -0.4103  0.9443 -0.0278
 3300TIP3    H134095   1.397   4.486  18.851  0.3947  2.4285 -0.6951
 3300TIP3    H234096   1.449   4.408  18.733 -1.1971 -0.6639  0.5518
 3301TIP3   OH234097   2.626   1.468  19.317 -0.0847 -0.4429 -0.1723
 3301TIP3    H134098   2.573   1.537  19.277 -2.5247 -1.6030  0.9257
 3301TIP3    H234099   2.604   1.389  19.268  3.3728 -0.4603 -2.0303
 3302TIP3   OH234100   3.238   0.791  18.858 -0.1617  0.4966  0.1655
 3302TIP3    H134101   3.318   0.843  18.860  0.0999  0.0682  1.9282
 3302TIP3    H234102   3.268   0.701  18.850 -0.4465  0.3237  0.9520
 3303TIP3   OH234103   6.049   6.989  18.793 -0.2689 -0.5281  0.8498
 3303TIP3    H134104   6.115   7.030  18.848 -0.2457  2.3623 -1.1006
 3303TIP3    H234105   6.091   6.980  18.707 -2.2910  1.3960 -0.4529
 3304TIP3   OH234106   1.851   4.988  17.289 -0.1881 -0.5262 -0.0004
 3304TIP3    H134107   1.766   4.945  17.300  0.6691 -1.9082  1.7451
 3304TIP3    H234108   1.836   5.078  17.316 -1.2630 -0.5331 -0.5077
 3305TIP3   OH234109   4.267   2.280  19.782  0.2856 -0.0567  0.3617
 3305TIP3    H134110   4.326   2.227  19.729 -0.9969 -0.0585 -1.1230
 3305TIP3    H234111   4.284   2.370  19.754 -0.4647 -0.0666 -0.1494
 3306TIP3   OH234112   0.753   1.607  18.637  0.4527  0.1878  0.1138
 3306TIP3    H134113   0.718   1.607  18.548 -1.7601  1.5676  0.8948
 3306TIP3    H234114   0.701   1.542  18.683  0.5756  0.5261  0.7406
 3307TIP3   OH234115   3.295   6.076  19.589 -0.4293  0.0457 -0.1675
 3307TIP3    H134116   3.378   6.042  19.624 -0.2508  0.5709 -0.0655
 3307TIP3    H234117   3.260   6.004  19.536  0.5338  0.1407 -0.9527
 3308TIP3   OH234118   6.176   1.042  18.344  0.0133 -0.2439  0.1429
 3308TIP3    H134119   6.248   1.101  18.323 -1.3586  0.6380 -2.4312
 3308TIP3    H234120   6.182   0.972  18.279  0.8242 -2.3679  2.3416
 3309TIP3   OH234121   5.341   6.125  18.100 -0.2130  0.2802  0.1032
 3309TIP3    H134122   5.396   6.121  18.179 -1.2360  1.6714  0.9361
 3309TIP3    H234123   5.262   6.076  18.124 -0.6843  1.0168  0.1119
 3310TIP3   OH234124   2.788   0.991  18.889  0.3160  0.6589  0.7196
 3310TIP3    H134125   2.708   0.968  18.842  0.6380  2.6668 -1.0123
 3310TIP3    H234126   2.859   0.955  18.834  0.6432  0.3940  1.3089
 3311TIP3   OH234127   5.307   5.440  17.453  0.0339 -0.3620  0.0629
 3311TIP3    H134128   5.242   5.495  17.409 -0.5031 -0.9064  0.1559
 3311TIP3    H234129   5.373   5.423  17.387  0.6187  1.0320  0.2546
 3312TIP3   OH234130   0.164   0.301  19.507 -0.0554 -0.0672  0.1862
 3312TIP3    H134131   0.170   0.249  19.426 -0.8243 -1.1359  0.7940
 3312TIP3    H234132   0.224   0.258  19.568 -0.8072 -0.3476  0.7424
 3313TIP3   OH234133   5.660   2.382  17.121 -0.3738  0.3937 -0.0255
 3313TIP3    H134134   5.749   2.360  17.091 -0.1534  0.4609  0.5743
 3313TIP3    H234135   5.604   2.357  17.048  0.1147  0.1101 -0.3108
 3314TIP3   OH234136   1.259   3.277  19.209  0.3331 -0.3683  0.0294
 3314TIP3    H134137   1.349   3.297  19.237  0.3644 -1.4405  0.7526
 3314TIP3    H234138   1.206   3.300  19.285 -0.0511  0.4672 -0.4739
 3315TIP3   OH234139   1.249   3.831  17.981 -0.2274  0.2891 -0.0788
 3315TIP3    H134140   1.223   3.757  18.035  1.9386 -2.0514 -1.9628
 3315TIP3    H234141   1.303   3.885  18.038  0.0596 -0.8351  0.7550
 3316TIP3   OH234142   6.211   0.755  18.261 -0.3598  0.5918 -0.1465
 3316TIP3    H134143   6.215   0.715  18.174  0.0370 -0.6139  0.4108
 3316TIP3    H234144   6.123   0.794  18.265 -1.5926 -2.0319  0.0439
 3317TIP3   OH234145   5.947   0.411  18.122  0.1194 -0.3135 -0.6511
 3317TIP3    H134146   5.904   0.451  18.046  0.0829 -0.5624 -0.7612
 3317TIP3    H234147   5.922   0.319  18.118 -0.8588 -0.1164  0.3248
 3318TIP3   OH234148   2.990   1.789  18.850 -0.2054 -0.6718  0.3449
 3318TIP3    H134149   2.975   1.796  18.945  1.6572  1.0488  0.5930
 3318TIP3    H234150   2.928   1.851  18.811  0.1495 -0.1383  0.6089
 3319TIP3   OH234151   1.537   5.193  19.159  0.1988  0.1043  0.0791
 3319TIP3    H134152   1.559   5.265  19.218  1.8147  0.1333 -0.5241
 3319TIP3    H234153   1.542   5.115  19.214  1.2494  0.1788  0.1119
 3320TIP3   OH234154   3.619   0.392  18.999  0.4316 -0.3371 -0.0112
 3320TIP3    H134155   3.658   0.460  19.055 -0.5622  0.5787 -0.4079
 3320TIP3    H234156   3.692   0.363  18.944  1.3512 -1.0090  1.4717
 3321TIP3   OH234157   2.023   3.421  18.406 -0.0439 -0.0137  0.2931
 3321TIP3    H134158   1.966   3.447  18.333  0.4552 -2.7886 -1.2531
 3321TIP3    H234159   2.112   3.437  18.374  0.2139 -2.0224 -0.1417
 3322TIP3   OH234160   4.855   6.216  19.007 -0.2786  0.2326 -0.3225
 3322TIP3    H134161   4.865   6.169  19.090  0.5455  1.7824  0.5029
 3322TIP3    H234162   4.847   6.308  19.033  1.3787  0.9120 -2.0021
 3323TIP3   OH234163   5.000   1.077  16.640  0.3625  0.0162 -0.6510
 3323TIP3    H134164   5.067   1.145  16.649 -1.5363  2.0186 -0.5716
 3323TIP3    H234165   4.996   1.060  16.546  1.6579 -0.9027 -0.5636
 3324TIP3   OH234166   1.418   5.803  19.018  0.2334  0.7784 -0.1259
 3324TIP3    H134167   1.439   5.828  18.928  1.1096  2.5671  0.5205
 3324TIP3    H234168   1.436   5.882  19.069  0.6425 -0.4560  1.7399
 3325TIP3   OH234169   4.501   4.333  17.225  0.0418  0.0858  0.1841
 3325TIP3    H134170   4.561   4.325  17.299 -0.4210  0.7411  0.6471
 3325TIP3    H234171   4.464   4.245  17.215  1.7862 -0.5967 -0.7594
 3326TIP3   OH234172   4.175   6.953  19.716 -0.4173 -0.1283 -0.2890
 3326TIP3    H134173   4.176   7.048  19.732 -1.3573 -0.1890  0.2192
 3326TIP3    H234174   4.086   6.935  19.686 -0.3178 -0.8922 -0.1353
 3327TIP3   OH234175   4.284   0.656  18.673 -0.5945 -0.2989 -0.0971
 3327TIP3    H134176   4.304   0.571  18.633 -1.3932 -1.4612  1.7789
 3327TIP3    H234177   4.361   0.709  18.657 -0.1880 -1.2739 -1.5878
 3328TIP3   OH234178   2.597   5.052  19.076 -0.2208  0.2298  0.0392
 3328TIP3    H134179   2.678   5.088  19.039 -0.5049  0.2692 -0.5535
 3328TIP3    H234180   2.609   4.957  19.072  0.7608  0.2190  2.1112
 3329TIP3   OH234181   3.563   4.253  19.458  0.0104 -0.4514 -0.3395
 3329TIP3    H134182   3.611   4.219  19.383  0.3797  0.4964 -0.5420
 3329TIP3    H234183   3.485   4.294  19.420  0.0133 -0.2972 -0.1811
 3330TIP3   OH234184   5.735   4.941  19.549  0.4190 -0.3790 -0.2856
 3330TIP3    H134185   5.768   5.027  19.524  1.0874 -0.6935 -0.5114
 3330TIP3    H234186   5.718   4.948  19.643 -0.3848  0.2616 -0.4643
 3331TIP3   OH234187   0.073   5.267  16.961 -0.0851  0.2513 -0.2663
 3331TIP3    H134188   0.105   5.180  16.985 -2.2582 -1.1173 -1.9194
 3331TIP3    H234189   0.116   5.286  16.878 -0.2488  0.3598 -0.3279
 3332TIP3   OH234190   5.029   6.235  18.140 -0.2557 -0.2148 -0.5166
 3332TIP3    H134191   5.073   6.282  18.211  0.0840  0.3252 -1.0814
 3332TIP3    H234192   5.073   6.150  18.137  0.0110 -0.0831 -0.3558
 3333TIP3   OH234193   2.321   3.055  18.928  0.0937 -0.1774 -0.5533
 3333TIP3    H134194   2.299   3.062  19.021 -1.7283 -2.2729 -0.7474
 3333TIP3    H234195   2.238   3.072  18.882  0.6053 -0.7144 -1.7178
 3334TIP3   OH234196   3.846   0.480  17.939  0.0279 -0.0483 -0.0844
 3334TIP3    H134197   3.789   0.548  17.902  0.3200 -0.8314 -2.0824
 3334TIP3    H234198   3.793   0.400  17.937  1.0451 -0.7437 -1.7719
 3335TIP3   OH234199   2.166   4.855  17.819 -0.2308  0.6276  0.3116
 3335TIP3    H134200   2.162   4.776  17.765 -0.6561  0.9142 -0.0915
 3335TIP3    H234201   2.178   4.823  17.908 -0.3529  0.1060  0.1448
 3336TIP3   OH234202   6.477   3.831  18.604  0.1371  0.3583  0.8454
 3336TIP3    H134203   6.474   3.754  18.547 -2.0161  2.0872 -1.6484
 3336TIP3    H234204   6.454   3.798  18.691 -1.0915 -1.7631 -0.2116
 3337TIP3   OH234205   4.790   3.428  16.505 -0.1891 -0.0811  0.2012
 3337TIP3    H134206   4.864   3.399  16.558 -0.1298 -0.1711  0.0696
 3337TIP3    H234207   4.714   3.385  16.545 -0.3970  1.2360  1.3170
 3338TIP3   OH234208   4.525   1.568  17.392  0.0556 -0.5122  0.4529
 3338TIP3    H134209   4.526   1.496  17.328  0.1737  0.6319 -0.8923
 3338TIP3    H234210   4.562   1.530  17.472  0.1102 -1.9392 -0.2118
 3339TIP3   OH234211   0.178   2.021  19.009  0.2774 -0.6143 -0.5692
 3339TIP3    H134212   0.260   1.983  18.978  0.2942 -0.1349 -1.1211
 3339TIP3    H234213   0.116   2.006  18.938  0.6280  1.6221 -1.4268
 3340TIP3   OH234214   7.574   0.096  16.927  0.0896 -0.2029 -0.2905
 3340TIP3    H134215   7.614   0.018  16.889  0.9277  0.7147 -1.3623
 3340TIP3    H234216   7.630   0.169  16.898 -0.5343  0.7820  0.8579
 3341TIP3   OH234217   6.939   4.628  17.545 -0.4962  0.7271  0.4288
 3341TIP3    H134218   6.915   4.721  17.543  0.9687  1.1595  1.5586
 3341TIP3    H234219   6.952   4.605  17.453  1.3938  2.2852  0.2583
 3342TIP3   OH234220   7.420   1.535  17.421 -0.0002 -0.7333  0.3148
 3342TIP3    H134221   7.339   1.510  17.466 -1.2685  3.9801  1.2066
 3342TIP3    H234222   7.392   1.551  17.330  0.2061 -0.3742  0.3133
 3343TIP3   OH234223   0.923   0.505  18.643 -0.1825 -0.0808 -0.4199
 3343TIP3    H134224   0.843   0.555  18.627  0.5523  0.7230 -1.7228
 3343TIP3    H234225   0.987   0.541  18.581  1.0036 -1.1430  0.1465
 3344TIP3   OH234226   0.228   0.581  17.890 -0.4841  0.1668  0.2675
 3344TIP3    H134227   0.177   0.541  17.960 -1.0689  1.4066  0.5874
 3344TIP3    H234228   0.273   0.654  17.932  0.6732 -0.2226 -0.2613
 3345TIP3   OH234229   2.685   7.339  18.405  0.1618 -0.0146 -0.2436
 3345TIP3    H134230   2.656   7.265  18.457  0.9346  1.8105  3.0721
 3345TIP3    H234231   2.604   7.372  18.364 -0.8934 -0.4663  1.3544
 3346TIP3   OH234232   1.321   3.756  18.861  0.5816 -0.1903 -0.2822
 3346TIP3    H134233   1.225   3.760  18.861  0.5877  2.0175  1.3383
 3346TIP3    H234234   1.348   3.845  18.839  2.1882 -0.1503  1.6359
 3347TIP3   OH234235   6.017   4.357  17.933 -0.5651  0.1255  0.1647
 3347TIP3    H134236   6.006   4.360  17.838 -0.5639  0.9003  0.1900
 3347TIP3    H234237   6.105   4.322  17.945  0.1416  1.7070 -0.1607
 3348TIP3   OH234238   1.728   2.478  17.906  0.4422 -0.1176  0.4707
 3348TIP3    H134239   1.779   2.439  17.835  0.2688 -0.4166  0.5116
 3348TIP3    H234240   1.781   2.465  17.984  0.3866 -0.2718  0.4835
 3349TIP3   OH234241   6.854   1.293  19.093  0.4847  0.0717  0.4367
 3349TIP3    H134242   6.901   1.219  19.055  0.7307 -0.4474  1.7063
 3349TIP3    H234243   6.815   1.258  19.173 -1.8104  0.5695 -0.4040
 3350TIP3   OH234244   4.784   6.267  19.428  0.4278 -0.4602  0.7469
 3350TIP3    H134245   4.808   6.313  19.347  2.3159  1.0072  2.0548
 3350TIP3    H234246   4.865   6.265  19.479 -0.8265 -0.9128  2.8110
 3351TIP3   OH234247   5.105   7.226  17.451  0.2400 -0.1990  0.1678
 3351TIP3    H134248   5.018   7.246  17.417  0.9442  0.6885 -1.2366
 3351TIP3    H234249   5.093   7.217  17.545 -1.2373  0.6523  0.0933
 3352TIP3   OH234250   7.577   7.506  19.050 -0.2988  0.2026 -0.0916
 3352TIP3    H134251   7.559   7.515  19.143 -0.1413 -0.5902  0.0167
 3352TIP3    H234252   7.638   7.433  19.043 -0.9431 -0.2915 -0.8804
 3353TIP3   OH234253   6.000   2.491  19.578  0.3077  0.2601  0.1705
 3353TIP3    H134254   6.038   2.416  19.532  0.4635  0.8258 -0.6495
 3353TIP3    H234255   5.931   2.522  19.520 -1.4921 -0.7822  1.6619
 3354TIP3   OH234256   3.403   3.751  17.801  0.2292  0.5736 -0.0248
 3354TIP3    H134257   3.422   3.771  17.893  1.6342 -0.8232  0.0225
 3354TIP3    H234258   3.477   3.788  17.753  0.7931 -0.8562 -0.3143
 3355TIP3   OH234259   6.919   5.645  17.971  0.7041 -0.3627  0.3552
 3355TIP3    H134260   6.852   5.711  17.956 -1.2706 -1.6877  2.6120
 3355TIP3    H234261   6.953   5.625  17.883 -3.9308 -1.6845 -1.4602
 3356TIP3   OH234262   0.719   4.588  17.452 -0.1686 -0.2675  0.8393
 3356TIP3    H134263   0.741   4.670  17.408 -1.6812  0.2544  0.9828
 3356TIP3    H234264   0.764   4.521  17.402 -0.8986  0.4224 -0.8199
 3357TIP3   OH234265   6.970   2.941  18.633  0.6056 -0.1182  0.1479
 3357TIP3    H134266   7.025   2.929  18.555 -0.8520 -0.2125 -0.9105
 3357TIP3    H234267   6.953   2.852  18.664 -1.0378 -0.2770 -1.0785
 3358TIP3   OH234268   5.662   0.354  18.169 -0.2634  0.2363 -0.2416
 3358TIP3    H134269   5.709   0.277  18.137 -0.7521 -0.8713  1.5391
 3358TIP3    H234270   5.601   0.376  18.099 -1.2264 -2.0249 -0.2005
 3359TIP3   OH234271   5.394   0.802  18.537 -0.5346  0.4226 -0.3601
 3359TIP3    H134272   5.390   0.728  18.597 -2.0123  1.6934  1.2166
 3359TIP3    H234273   5.364   0.768  18.453  1.0078 -1.2610 -0.2912
 3360TIP3   OH234274   4.729   7.317  18.274 -0.8696  0.0546 -0.0316
 3360TIP3    H134275   4.751   7.410  18.278  1.1063 -0.3712  3.5604
 3360TIP3    H234276   4.670   7.304  18.349 -0.4311 -1.6791  0.0515
 3361TIP3   OH234277   3.214   0.905  17.952  0.2306 -0.1067  0.2250
 3361TIP3    H134278   3.173   0.956  17.882 -0.7484  1.5923  1.9378
 3361TIP3    H234279   3.279   0.850  17.907 -0.5136  0.7299 -2.0115
 3362TIP3   OH234280   6.205   0.109  16.943 -0.3226 -0.2885 -0.4650
 3362TIP3    H134281   6.117   0.097  16.909 -0.5327 -1.2720  0.3868
 3362TIP3    H234282   6.193   0.139  17.033  0.2140 -0.0531 -0.4626
 3363TIP3   OH234283   0.600   6.183  18.157  0.3354  0.0677  0.2265
 3363TIP3    H134284   0.619   6.116  18.091  0.9729 -0.2785  0.7543
 3363TIP3    H234285   0.629   6.145  18.240 -1.8896 -0.1379  0.9651
 3364TIP3   OH234286   5.976   4.741  19.135  0.4204 -0.0437  0.3139
 3364TIP3    H134287   5.994   4.815  19.193  1.4824  0.3851 -0.5271
 3364TIP3    H234288   5.887   4.715  19.158  0.1846  1.1944  0.9523
 3365TIP3   OH234289   6.213   0.255  19.216  0.3519 -0.6048 -0.2727
 3365TIP3    H134290   6.275   0.283  19.284  0.0729 -2.7427  0.9591
 3365TIP3    H234291   6.184   0.169  19.245 -1.0724 -0.8626 -2.2916
 3366TIP3   OH234292   5.922   7.233  17.155 -0.6758  0.1655 -0.0936
 3366TIP3    H134293   5.909   7.159  17.214 -0.6359 -0.1037 -0.4187
 3366TIP3    H234294   5.893   7.309  17.205  0.1455  0.0519  0.5802
 3367TIP3   OH234295   2.494   7.169  17.945  1.1320 -0.0518  1.1310
 3367TIP3    H134296   2.478   7.090  17.997 -0.5376  2.1119  4.2532
 3367TIP3    H234297   2.583   7.195  17.965  0.8179  0.2289  2.2074
 3368TIP3   OH234298   6.716   7.238  18.859  0.0618  0.0644 -0.1183
 3368TIP3    H134299   6.712   7.164  18.920 -0.3673  0.4338  0.3076
 3368TIP3    H234300   6.756   7.201  18.780 -1.6501 -1.0372 -0.5224
 3369TIP3   OH234301   4.221   4.887  16.867 -0.2678 -0.2251 -0.1985
 3369TIP3    H134302   4.217   4.804  16.819  0.5545  0.3531 -1.3152
 3369TIP3    H234303   4.130   4.910  16.882 -0.5125 -1.1636 -0.1643
 3370TIP3   OH234304   5.959   1.628  18.575 -0.3278  0.1235  0.2789
 3370TIP3    H134305   5.881   1.585  18.609 -0.5844 -0.1497 -0.6133
 3370TIP3    H234306   5.992   1.567  18.508 -0.1501  0.8779 -0.3262
 3371TIP3   OH234307   7.434   2.045  18.924  0.0471 -0.1795  0.2777
 3371TIP3    H134308   7.340   2.048  18.906  0.4013  0.3373 -1.8200
 3371TIP3    H234309   7.444   2.081  19.012 -1.7389 -0.6511  0.7116
 3372TIP3   OH234310   7.151   1.714  17.595 -0.1336  0.5842 -0.2701
 3372TIP3    H134311   7.106   1.687  17.515  0.2303 -0.5355 -0.1101
 3372TIP3    H234312   7.189   1.633  17.630 -0.8151  0.9427  1.3774
 3373TIP3   OH234313   6.727   4.279  18.998 -0.3997  0.4223  0.1449
 3373TIP3    H134314   6.711   4.370  19.023  0.7513  0.7763 -0.3464
 3373TIP3    H234315   6.764   4.239  19.076 -1.2899  0.2442  0.4961
 3374TIP3   OH234316   3.170   6.881  16.693  0.4378 -0.0549 -0.1036
 3374TIP3    H134317   3.101   6.911  16.634  0.6131  0.3635 -0.1022
 3374TIP3    H234318   3.247   6.872  16.637  1.1238  2.2193  0.3613
 3375TIP3   OH234319   3.264   6.079  18.442 -0.0725 -0.7065  0.4018
 3375TIP3    H134320   3.262   6.013  18.372 -1.0661 -0.5885  0.3020
 3375TIP3    H234321   3.334   6.139  18.416  0.4116 -1.3648  0.1627
 3376TIP3   OH234322   4.205   6.873  17.890 -1.2129 -0.1494 -0.1096
 3376TIP3    H134323   4.186   6.799  17.949 -0.0699  0.7416  1.4604
 3376TIP3    H234324   4.228   6.945  17.949 -1.0912  1.1196 -1.6443
 3377TIP3   OH234325   6.675   6.499  19.299 -0.2363 -0.0491  0.3394
 3377TIP3    H134326   6.652   6.408  19.281  2.0165 -0.8427  1.1495
 3377TIP3    H234327   6.769   6.497  19.318 -0.3574  2.2710  1.5716
 3378TIP3   OH234328   3.026   6.258  18.688  0.0711 -0.8405 -0.1222
 3378TIP3    H134329   3.058   6.186  18.633  0.5447 -0.5579 -0.2173
 3378TIP3    H234330   2.978   6.214  18.759  2.0836 -1.3572  0.9791
 3379TIP3   OH234331   6.223   2.323  16.476  0.2948  0.4379 -0.1750
 3379TIP3    H134332   6.294   2.263  16.451  0.2100  0.1243  0.3321
 3379TIP3    H234333   6.154   2.307  16.411  0.0387 -0.4472  0.2953
 3380TIP3   OH234334   0.508   5.009  17.291 -0.0461 -0.1537 -0.2865
 3380TIP3    H134335   0.428   5.058  17.310  1.4123  2.4682 -0.4441
 3380TIP3    H234336   0.561   5.018  17.371  0.2675 -1.5976 -0.2984
 3381TIP3   OH234337   6.311   6.093  17.999 -0.1355  0.6268 -0.2840
 3381TIP3    H134338   6.226   6.120  17.964 -0.3567  0.4384  0.1090
 3381TIP3    H234339   6.292   6.017  18.053  0.1525  1.1221  0.5323
 3382TIP3   OH234340   0.683   7.158  18.863  0.0717 -0.7519 -0.1599
 3382TIP3    H134341   0.608   7.215  18.880  0.1538 -0.2938 -1.2467
 3382TIP3    H234342   0.741   7.210  18.808  1.6437 -0.7732  1.4070
 3383TIP3   OH234343   1.694   1.086  18.125  0.5388 -0.0370 -0.4279
 3383TIP3    H134344   1.636   1.162  18.117  2.0900  1.2554  0.2353
 3383TIP3    H234345   1.634   1.011  18.126 -1.0261  1.1359 -1.2827
 3384TIP3   OH234346   1.484   2.617  16.496 -0.3677  0.3517 -0.2744
 3384TIP3    H134347   1.555   2.673  16.530 -0.9495  1.0060 -0.1075
 3384TIP3    H234348   1.482   2.542  16.555  0.9382 -0.2512 -0.9519
 3385TIP3   OH234349   4.138   2.521  18.507  0.0960  0.3810 -0.2607
 3385TIP3    H134350   4.153   2.428  18.526 -0.4968  0.0934 -1.1250
 3385TIP3    H234351   4.220   2.564  18.533  0.9030 -0.5704 -1.1138
 3386TIP3   OH234352   3.425   2.500  18.132  0.3844  0.1315 -0.7801
 3386TIP3    H134353   3.407   2.437  18.202  0.8018  1.5828  0.6862
 3386TIP3    H234354   3.383   2.462  18.055 -0.7433 -1.1616  0.4103
 3387TIP3   OH234355   7.646   1.905  17.541 -0.2190  0.0847 -0.2473
 3387TIP3    H134356   7.581   1.868  17.600 -0.2330 -0.6334 -0.6952
 3387TIP3    H234357   7.676   1.984  17.585 -0.5225 -0.2153  0.5238
 3388TIP3   OH234358   5.761   2.961  17.837  0.0828 -0.2169 -0.5917
 3388TIP3    H134359   5.753   3.039  17.892 -1.2341 -1.0541  0.4586
 3388TIP3    H234360   5.831   2.983  17.775 -0.8033  2.1186 -0.8848
 3389TIP3   OH234361   2.179   2.824  17.050 -0.7549  0.1429 -0.5503
 3389TIP3    H134362   2.216   2.738  17.033 -2.6202 -1.0192  0.7874
 3389TIP3    H234363   2.139   2.851  16.967 -1.2527 -0.8864 -0.6541
 3390TIP3   OH234364   2.457   7.284  18.757  0.2498  0.2465  0.7127
 3390TIP3    H134365   2.499   7.370  18.754 -0.1588  0.4829  1.4300
 3390TIP3    H234366   2.508   7.230  18.697 -1.0783  1.6685 -1.8649
 3391TIP3   OH234367   0.314   4.273  17.958 -0.2269  0.3579 -0.4837
 3391TIP3    H134368   0.283   4.193  17.999 -1.5567  1.9950  2.0152
 3391TIP3    H234369   0.403   4.284  17.990  0.7414 -1.0491 -2.4662
 3392TIP3   OH234370   0.774   6.825  18.461  0.1043  0.4926 -0.3291
 3392TIP3    H134371   0.702   6.779  18.503  0.8768  0.7919  1.4052
 3392TIP3    H234372   0.770   6.797  18.369 -2.1788  0.5107 -0.2867
 3393TIP3   OH234373   3.457   1.967  17.028 -0.2511  0.1604  0.1411
 3393TIP3    H134374   3.366   1.992  17.013 -0.0308  0.5455 -0.6193
 3393TIP3    H234375   3.500   2.048  17.057  0.4913  0.7827 -2.4370
 3394TIP3   OH234376   4.583   6.906  18.471 -0.3383 -0.3314 -0.2895
 3394TIP3    H134377   4.608   6.918  18.379 -0.3239 -0.4054 -0.2949
 3394TIP3    H234378   4.514   6.970  18.486 -1.5376 -1.4653 -0.8216
 3395TIP3   OH234379   4.807   0.642  18.245  0.2109  0.3827  0.1612
 3395TIP3    H134380   4.784   0.592  18.323 -0.6787 -0.0477 -0.3539
 3395TIP3    H234381   4.903   0.639  18.241  0.1996 -0.7931  0.4669
 3396TIP3   OH234382   5.934   6.196  18.646  0.2531  0.1753  0.5587
 3396TIP3    H134383   5.838   6.190  18.649  0.2497 -0.8083 -0.5402
 3396TIP3    H234384   5.954   6.212  18.554  1.1734 -0.4990  0.6243
 3397TIP3   OH234385   4.109   0.995  17.559  0.4912  0.0250 -0.5300
 3397TIP3    H134386   4.203   0.977  17.561  0.3934 -0.7291  2.4830
 3397TIP3    H234387   4.103   1.091  17.561  1.1723  0.0876 -1.0881
 3398TIP3   OH234388   5.093   0.328  17.748 -0.8141  0.0286  0.3405
 3398TIP3    H134389   5.067   0.241  17.720 -1.8757 -0.0051  1.3726
 3398TIP3    H234390   5.016   0.382  17.734  0.1333  1.0653 -1.2427
 3399TIP3   OH234391   6.661   5.299  18.128 -0.2387 -0.3353  0.4358
 3399TIP3    H134392   6.707   5.216  18.120 -1.0601 -1.0871  2.6619
 3399TIP3    H234393   6.725   5.357  18.171 -0.1534 -0.2560  0.2026
 3400TIP3   OH234394   0.860   6.843  17.928 -0.2145 -0.2447  0.7875
 3400TIP3    H134395   0.917   6.907  17.971  0.5405 -0.8766  0.7462
 3400TIP3    H234396   0.861   6.869  17.835 -1.3119  0.7162  1.0203
 3401TIP3   OH234397   0.398   5.674  19.487 -0.0225 -0.2059 -0.2319
 3401TIP3    H134398   0.456   5.687  19.562  0.1020  0.0460 -0.3728
 3401TIP3    H234399   0.349   5.756  19.480 -0.7515 -0.5935  0.1933
 3402TIP3   OH234400   4.252   6.429  19.210  0.0589  0.7067  0.2426
 3402TIP3    H134401   4.222   6.505  19.162 -2.9511 -0.4780  0.0206
 3402TIP3    H234402   4.213   6.439  19.297 -0.2107 -0.4194  0.2746
 3403TIP3   OH234403   5.768   2.737  18.437  0.3230  0.4397  0.0405
 3403TIP3    H134404   5.798   2.719  18.526  0.0202  0.5613  0.1712
 3403TIP3    H234405   5.821   2.811  18.408  0.6146  0.2219  0.0155
 3404TIP3   OH234406   2.216   7.436  17.693 -0.7622 -0.1392  0.3468
 3404TIP3    H134407   2.171   7.520  17.683 -2.0701 -0.8976 -0.3209
 3404TIP3    H234408   2.146   7.371  17.699  0.1965 -1.4678 -1.6876
 3405TIP3   OH234409   3.531   7.604  19.415  0.1128  0.1129  0.1978
 3405TIP3    H134410   3.440   7.611  19.386 -0.2800 -2.1612  0.6843
 3405TIP3    H234411   3.548   7.510  19.415  2.4991  0.5024  0.0836
 3406TIP3   OH234412   5.115   3.301  18.846  0.0244  0.8175  0.4378
 3406TIP3    H134413   5.206   3.324  18.868  0.2891 -1.9630  2.9085
 3406TIP3    H234414   5.062   3.345  18.913  0.1173 -1.4429  2.1311
 3407TIP3   OH234415   6.166   0.314  17.777  0.2980  0.2941  0.0673
 3407TIP3    H134416   6.139   0.265  17.854 -1.3200 -0.8027 -1.1258
 3407TIP3    H234417   6.186   0.247  17.711  0.2157  1.2017 -0.9165
 3408TIP3   OH234418   4.473   2.196  19.648  0.5342 -0.0204 -0.3664
 3408TIP3    H134419   4.561   2.182  19.683  0.5122  1.0087  0.1394
 3408TIP3    H234420   4.488   2.230  19.559  0.5945 -2.0433 -1.1935
 3409TIP3   OH234421   2.281   7.314  18.110  0.3054 -0.3059  0.5882
 3409TIP3    H134422   2.205   7.327  18.053  0.1758  0.1658  0.8574
 3409TIP3    H234423   2.335   7.249  18.065  1.7299  2.2163 -1.6193
 3410TIP3   OH234424   2.095   4.204  18.980 -0.2939  0.1710 -0.0890
 3410TIP3    H134425   2.122   4.251  18.901  0.9580 -0.4743 -0.0740
 3410TIP3    H234426   2.103   4.112  18.957  2.3843 -0.0819  1.4782
 3411TIP3   OH234427   1.961   3.536  18.138 -0.3817 -0.0068 -0.1775
 3411TIP3    H134428   2.054   3.512  18.141 -0.1469  0.9833  1.4468
 3411TIP3    H234429   1.958   3.614  18.083 -0.1800  0.2504  0.1750
 3412TIP3   OH234430   0.306   0.709  17.494  0.0806 -0.4793  0.1941
 3412TIP3    H134431   0.352   0.767  17.554  1.4073 -2.3363  1.0683
 3412TIP3    H234432   0.278   0.635  17.548 -1.4821 -0.7364 -0.8970
 3413TIP3   OH234433   4.028   5.403  16.815  0.2524  0.1894  0.0906
 3413TIP3    H134434   3.967   5.465  16.775  0.6205  0.9903  0.7436
 3413TIP3    H234435   4.114   5.446  16.810  0.4798 -0.1606  0.7484
 3414TIP3   OH234436   5.528   0.423  17.622  0.1452 -0.0785  0.8142
 3414TIP3    H134437   5.602   0.449  17.566 -0.1966  2.3127  1.3597
 3414TIP3    H234438   5.537   0.329  17.631  1.9678 -0.1244 -0.7840
 3415TIP3   OH234439   4.471   0.529  19.119 -0.2785  0.4766  0.6020
 3415TIP3    H134440   4.448   0.443  19.156 -0.6172  0.1038 -0.4442
 3415TIP3    H234441   4.523   0.571  19.188  0.4090 -0.8081  0.9079
 3416TIP3   OH234442   5.930   3.625  18.591  0.0459  0.0984  0.2177
 3416TIP3    H134443   5.989   3.640  18.518 -0.1229 -0.7469 -0.1058
 3416TIP3    H234444   5.970   3.671  18.665  2.0868 -1.8814  0.4760
 3417TIP3   OH234445   6.990   4.787  19.356  0.3007 -0.6894 -0.0080
 3417TIP3    H134446   6.960   4.843  19.427  0.1806 -2.1978  1.1764
 3417TIP3    H234447   6.920   4.722  19.346 -0.2275  0.1380 -2.2980
 3418TIP3   OH234448   0.164   2.163  17.710 -0.2730 -0.4061 -0.3477
 3418TIP3    H134449   0.121   2.234  17.663  0.2505  0.3696  0.3049
 3418TIP3    H234450   0.257   2.183  17.703 -0.1986  0.3192  1.8391
 3419TIP3   OH234451   1.324   5.562  18.867 -0.3544 -0.1289 -0.1375
 3419TIP3    H134452   1.323   5.470  18.895 -1.6732 -0.5085 -1.3642
 3419TIP3    H234453   1.333   5.611  18.949 -1.8244 -1.2803  0.7633
 3420TIP3   OH234454   1.225   5.424  18.644 -0.3654 -0.1404 -0.3504
 3420TIP3    H134455   1.263   5.465  18.721 -2.5055  0.7954  0.2789
 3420TIP3    H234456   1.195   5.497  18.589 -1.9464 -0.7923 -0.4143
 3421TIP3   OH234457   3.545   3.488  19.179 -0.0310  0.6512 -0.2737
 3421TIP3    H134458   3.594   3.543  19.241  0.6545  1.5308 -1.5319
 3421TIP3    H234459   3.568   3.525  19.093 -1.3180 -0.2361 -1.0137
 3422TIP3   OH234460   4.419   2.051  18.620  0.6719  0.1783  0.2161
 3422TIP3    H134461   4.342   1.997  18.637  2.3414 -3.4122 -2.2674
 3422TIP3    H234462   4.482   2.024  18.687  0.7724  0.8026  0.3749
 3423TIP3   OH234463   2.232   1.361  18.332 -0.2800 -0.6852  0.3860
 3423TIP3    H134464   2.175   1.284  18.332  0.0351 -0.9286  0.9928
 3423TIP3    H234465   2.173   1.435  18.334 -0.5822 -0.9228  0.3819
 3424TIP3   OH234466   5.457   3.088  17.725  0.5682 -0.1226 -0.3053
 3424TIP3    H134467   5.499   3.165  17.685  0.4981  0.2901  0.4105
 3424TIP3    H234468   5.520   3.059  17.791  0.8850 -1.0788 -0.9996
 3425TIP3   OH234469   7.111   1.541  18.236 -1.0009  0.6839 -0.0374
 3425TIP3    H134470   7.176   1.582  18.179  1.0631 -1.2028  0.7973
 3425TIP3    H234471   7.112   1.593  18.316 -0.4898  0.6443 -0.0185
 3426TIP3   OH234472   5.262   4.510  18.589 -0.3643  0.1970 -0.5541
 3426TIP3    H134473   5.198   4.578  18.566 -2.5014 -1.0447  1.2964
 3426TIP3    H234474   5.259   4.449  18.516 -2.2998 -0.4764  0.0385
 3427TIP3   OH234475   6.881   6.438  17.854  0.1649  0.6305  0.0714
 3427TIP3    H134476   6.810   6.492  17.821  1.3057  1.4475 -1.1530
 3427TIP3    H234477   6.874   6.445  17.949 -1.6587  0.2980 -0.0125
 3428TIP3   OH234478   2.316   6.653  18.977 -0.3261 -0.1599  0.4522
 3428TIP3    H134479   2.353   6.682  18.893  0.3945 -0.3501  0.6968
 3428TIP3    H234480   2.306   6.733  19.028  1.7698 -0.3080  1.1689
 3429TIP3   OH234481   3.850   3.806  17.553 -0.2657  0.2581  0.3967
 3429TIP3    H134482   3.838   3.788  17.459  0.1395  0.0704  0.3814
 3429TIP3    H234483   3.919   3.872  17.555  1.6666 -1.6660  0.6867
 3430TIP3   OH234484   3.545   4.763  17.015 -0.7492  0.3572  0.5534
 3430TIP3    H134485   3.464   4.814  17.006 -1.0278  0.0054  1.0506
 3430TIP3    H234486   3.612   4.829  17.032 -0.6260  0.8224 -1.4563
 3431TIP3   OH234487   3.081   6.937  18.043  0.1129  0.8477  0.8622
 3431TIP3    H134488   3.116   6.904  17.960  0.1117 -0.2267  1.2801
 3431TIP3    H234489   3.059   6.859  18.093 -0.7645  1.4905  1.5137
 3432TIP3   OH234490   3.131   5.154  18.411 -0.0644 -0.0103 -0.5350
 3432TIP3    H134491   3.082   5.175  18.491 -0.2964  1.9992 -1.1556
 3432TIP3    H234492   3.098   5.068  18.385 -1.2380  0.0677  0.5766
 3433TIP3   OH234493   5.471   0.829  18.845  0.1698 -0.3223 -0.0961
 3433TIP3    H134494   5.418   0.750  18.831 -1.3717  0.5447  0.5919
 3433TIP3    H234495   5.472   0.841  18.940  1.1611 -0.0237 -0.1387
 3434TIP3   OH234496   6.533   1.463  19.383  0.0895  0.3891  0.6012
 3434TIP3    H134497   6.503   1.374  19.362  0.2802  0.0663  1.6733
 3434TIP3    H234498   6.504   1.515  19.308  2.1029 -0.9852 -1.2593
 3435TIP3   OH234499   0.227   1.188  17.242  0.2415 -0.5117 -0.0013
 3435TIP3    H134500   0.263   1.099  17.234  1.2180 -0.2260  1.0434
 3435TIP3    H234501   0.278   1.240  17.181  0.8291 -0.3364  0.6333
 3436TIP3   OH234502   1.020   5.944  17.777 -0.0744  0.1067 -0.0584
 3436TIP3    H134503   1.092   5.882  17.777  0.1184  0.3190 -1.1859
 3436TIP3    H234504   0.963   5.914  17.706 -1.7795 -0.8104  1.5861
 3437TIP3   OH234505   0.688   4.046  17.394 -0.1544 -0.1961  0.4542
 3437TIP3    H134506   0.685   4.141  17.382  0.8090 -0.2178 -0.1155
 3437TIP3    H234507   0.773   4.020  17.357  1.1726 -0.8650  3.6525
 3438TIP3   OH234508   4.291   1.995  19.615  0.6512 -0.7581 -0.1160
 3438TIP3    H134509   4.318   1.916  19.663 -0.3385 -0.9482  0.1545
 3438TIP3    H234510   4.358   2.060  19.637  1.2191 -1.3842  0.0433
 3439TIP3   OH234511   7.202   2.759  19.075  0.4047  0.1458 -0.4260
 3439TIP3    H134512   7.298   2.765  19.074  0.3371  1.4312 -1.3122
 3439TIP3    H234513   7.182   2.687  19.016  0.8677 -1.4977  1.3321
 3440TIP3   OH234514   1.165   7.573  19.151 -0.1480  0.3346  0.6027
 3440TIP3    H134515   1.114   7.503  19.110 -1.4489  0.6846  1.5730
 3440TIP3    H234516   1.212   7.529  19.222  0.1454  0.1922  0.3230
 3441TIP3   OH234517   3.794   0.767  17.764  0.6373  0.6519 -0.0771
 3441TIP3    H134518   3.753   0.690  17.725  1.7385  0.0219 -0.0242
 3441TIP3    H234519   3.724   0.832  17.769 -0.2738 -0.3073 -0.2259
 3442TIP3   OH234520   0.174   1.854  16.806  0.3052 -0.5735  0.6041
 3442TIP3    H134521   0.264   1.873  16.832  0.3090 -1.8068  1.6200
 3442TIP3    H234522   0.129   1.939  16.812  1.7577  0.4647 -1.7520
 3443TIP3   OH234523   3.885   1.044  18.754 -1.1299  0.1109  0.4356
 3443TIP3    H134524   3.825   0.973  18.778  1.0157 -1.6233  0.9665
 3443TIP3    H234525   3.918   1.076  18.838 -0.7129  0.4907  0.1261
 3444TIP3   OH234526   0.514   1.375  18.812 -0.0552 -0.1573 -0.1397
 3444TIP3    H134527   0.465   1.326  18.747  1.9311 -2.1706 -0.2526
 3444TIP3    H234528   0.479   1.464  18.807 -0.4400 -0.3716 -3.5134
 3445TIP3   OH234529   0.931   3.828  17.406 -0.2681 -0.4299  0.0559
 3445TIP3    H134530   0.943   3.737  17.434  2.3684 -1.7171 -4.3055
 3445TIP3    H234531   0.867   3.823  17.336  0.9807  0.7345 -1.2320
 3446TIP3   OH234532   5.615   0.890  18.030 -0.1759 -0.1651 -0.2709
 3446TIP3    H134533   5.691   0.938  18.063  1.9155 -2.3515 -1.5869
 3446TIP3    H234534   5.630   0.882  17.936 -0.6600 -2.8038 -0.2169
 3447TIP3   OH234535   6.840   0.281  18.836  0.3238 -0.0014 -0.0767
 3447TIP3    H134536   6.837   0.281  18.740  0.4809  0.6681 -0.0825
 3447TIP3    H234537   6.771   0.342  18.862  0.0161 -0.4850  0.2514
 3448TIP3   OH234538   5.070   3.907  19.403  0.1881  0.0642  0.3129
 3448TIP3    H134539   4.975   3.904  19.398  0.1988 -0.3344  0.3708
 3448TIP3    H234540   5.091   4.001  19.409 -0.1827  0.1643 -0.0010
 3449TIP3   OH234541   3.539   3.533  18.003 -0.0972 -0.6541 -0.2335
 3449TIP3    H134542   3.468   3.597  18.012  0.7408  0.9256 -3.3523
 3449TIP3    H234543   3.532   3.479  18.081 -3.3393  0.7859  0.6684
 3450TIP3   OH234544   2.553   6.267  18.957  0.2613 -0.2891  0.6277
 3450TIP3    H134545   2.538   6.173  18.943 -0.7671  0.1089 -1.3388
 3450TIP3    H234546   2.466   6.306  18.951  0.8088  0.9144  0.2850
 3451TIP3   OH234547   0.579   5.534  17.067 -0.2022  0.0275  0.2664
 3451TIP3    H134548   0.635   5.610  17.053 -0.4654  0.4535  1.3968
 3451TIP3    H234549   0.518   5.534  16.993 -0.5609  1.2555  0.5378
 3452TIP3   OH234550   4.261   1.785  17.859 -0.0439  0.0327  0.6305
 3452TIP3    H134551   4.289   1.745  17.776  3.3186 -0.4717  1.8805
 3452TIP3    H234552   4.215   1.865  17.832  2.3011  0.7182 -1.7836
 3453TIP3   OH234553   4.502   3.106  19.114 -0.0692  0.2565  0.2576
 3453TIP3    H134554   4.520   3.144  19.028  1.9446 -2.1426 -0.4954
 3453TIP3    H234555   4.417   3.064  19.105  0.3687 -0.4434 -0.7908
 3454TIP3   OH234556   5.805   5.102  19.155  0.2153  0.2517 -0.2516
 3454TIP3    H134557   5.774   5.037  19.218 -0.2985 -0.2744 -1.0129
 3454TIP3    H234558   5.792   5.186  19.198  1.2795 -0.1567  0.9166
 3455TIP3   OH234559   4.102   3.787  17.819  0.7420 -0.0968  0.4705
 3455TIP3    H134560   4.101   3.856  17.754  1.1430  0.9260  1.5165
 3455TIP3    H234561   4.135   3.829  17.898 -1.1090 -0.9384  1.7594
 3456TIP3   OH234562   5.543   6.244  17.700  0.4037  0.0300  0.0070
 3456TIP3    H134563   5.499   6.317  17.743 -0.4957  0.4147 -1.5075
 3456TIP3    H234564   5.518   6.251  17.608  0.4842 -2.0612 -0.2174
 3457TIP3   OH234565   1.634   4.505  17.836  0.2776  0.3251 -0.6213
 3457TIP3    H134566   1.539   4.508  17.843  0.2512  0.4791 -1.0349
 3457TIP3    H234567   1.651   4.433  17.776  0.4306  0.2085 -0.4416
 3458TIP3   OH234568   4.046   3.963  19.034  0.2222 -0.2932 -0.3638
 3458TIP3    H134569   4.047   4.039  18.976  0.3624 -0.7220 -0.9360
 3458TIP3    H234570   4.000   3.993  19.113  1.9733  0.9704  0.2392
 3459TIP3   OH234571   2.359   4.558  17.484  0.3114 -0.1849  0.0458
 3459TIP3    H134572   2.449   4.584  17.504  0.6858 -2.6660  1.9670
 3459TIP3    H234573   2.316   4.552  17.569 -0.7599 -2.0642 -0.5712
 3460TIP3   OH234574   5.388   4.403  19.667  0.1886  0.3427 -0.7270
 3460TIP3    H134575   5.303   4.447  19.666 -0.4115 -0.7883 -0.6909
 3460TIP3    H234576   5.440   4.450  19.601 -0.2613  1.4027 -0.3409
 3461TIP3   OH234577   3.337   0.596  17.701  0.0666  0.1601 -0.1957
 3461TIP3    H134578   3.244   0.618  17.705  0.3176  1.3930 -0.7421
 3461TIP3    H234579   3.345   0.538  17.625 -0.2965 -0.2549  0.0740
 3462TIP3   OH234580   6.638   3.973  19.240 -0.1206  0.5161 -0.1002
 3462TIP3    H134581   6.716   4.007  19.196  0.0607  0.3176  0.0608
 3462TIP3    H234582   6.673   3.920  19.312 -0.4080  0.5634  0.0756
 3463TIP3   OH234583   3.104   0.939  19.225 -0.0810 -0.0648  0.0892
 3463TIP3    H134584   3.182   0.980  19.263 -0.6334 -0.8304  2.2056
 3463TIP3    H234585   3.043   1.011  19.213  0.6943  0.4424 -0.9750
 3464TIP3   OH234586   6.094   0.014  17.827 -0.3798 -0.0469 -0.1292
 3464TIP3    H134587   6.080  -0.073  17.866 -1.3727 -0.0988 -0.5745
 3464TIP3    H234588   6.160  -0.000  17.759 -0.6468 -0.4885 -0.3006
 3465TIP3   OH234589   6.677   2.681  16.577  0.1550  0.9259 -0.6929
 3465TIP3    H134590   6.681   2.776  16.578 -0.0451  0.9813  1.9164
 3465TIP3    H234591   6.692   2.655  16.668 -0.2993 -1.5253 -1.2319
 3466TIP3   OH234592   2.507   2.258  18.022  0.1254  0.3562  0.2864
 3466TIP3    H134593   2.577   2.241  18.085 -1.0170  1.0980  1.8601
 3466TIP3    H234594   2.549   2.305  17.951  1.1136  1.5620  1.6085
 3467TIP3   OH234595   2.469   2.407  18.967  0.2883 -0.3902  0.2043
 3467TIP3    H134596   2.418   2.409  19.048  0.2273  1.9965  0.1803
 3467TIP3    H234597   2.442   2.486  18.920  1.6005 -0.8074 -1.3455
 3468TIP3   OH234598   1.656   0.371  17.611  0.4695  0.6072  0.0320
 3468TIP3    H134599   1.604   0.448  17.635 -1.7672 -0.5389 -0.8597
 3468TIP3    H234600   1.642   0.360  17.517  0.5595 -0.9969  0.1721
 3469TIP3   OH234601   7.488   5.642  18.485  0.4321  0.4015  1.0050
 3469TIP3    H134602   7.422   5.710  18.494 -0.8045 -0.7389  0.9797
 3469TIP3    H234603   7.530   5.660  18.401 -1.2089  0.0560  0.0651
 3470TIP3   OH234604   3.494   5.247  19.243 -0.0805 -0.2251  0.2916
 3470TIP3    H134605   3.468   5.182  19.179  0.2145 -1.8043  1.7012
 3470TIP3    H234606   3.483   5.203  19.328  1.8206  0.9454  1.2087
 3471TIP3   OH234607   4.659   3.657  18.584 -0.1215  0.3325 -0.1480
 3471TIP3    H134608   4.627   3.583  18.532 -1.4452  0.6034  0.2495
 3471TIP3    H234609   4.643   3.734  18.529 -2.1211  0.6937  0.8671
 3472TIP3   OH234610   7.414   3.339  19.155  0.0932  0.4258 -0.2011
 3472TIP3    H134611   7.381   3.255  19.189  0.6438 -0.2146 -1.1837
 3472TIP3    H234612   7.341   3.400  19.165 -0.2862 -0.1409  0.6229
 3473TIP3   OH234613   3.114   0.307  18.493 -0.1433  0.3313 -0.6555
 3473TIP3    H134614   3.027   0.335  18.522  0.0787  1.5121 -1.0749
 3473TIP3    H234615   3.145   0.379  18.438  1.1440 -0.0281 -0.4278
 3474TIP3   OH234616   2.900   5.123  18.193  0.2676  0.2397  0.0095
 3474TIP3    H134617   2.983   5.075  18.187 -0.0109 -0.3026  0.4170
 3474TIP3    H234618   2.854   5.102  18.112 -0.4607 -1.3520  0.7991
 3475TIP3   OH234619   5.846   2.593  19.119  0.3203 -0.1713  0.5471
 3475TIP3    H134620   5.844   2.662  19.053 -1.2500 -0.1841  0.5450
 3475TIP3    H234621   5.855   2.511  19.070  1.3242 -0.0536  0.5049
 3476TIP3   OH234622   6.603   2.938  17.245 -0.1880 -0.1299  0.5134
 3476TIP3    H134623   6.517   2.896  17.235  1.2387 -3.0265 -0.7079
 3476TIP3    H234624   6.596   3.019  17.194 -1.1020 -2.1847 -2.8996
 3477TIP3   OH234625   3.950   3.574  18.901 -0.4042 -0.2435 -0.1289
 3477TIP3    H134626   3.918   3.663  18.891  0.6696 -0.0376 -2.1875
 3477TIP3    H234627   4.043   3.584  18.923 -0.2420 -0.8292 -0.5160
 3478TIP3   OH234628   4.860   2.567  18.157 -0.5415 -0.0626 -0.3305
 3478TIP3    H134629   4.933   2.549  18.098 -0.2424 -1.4673  0.4081
 3478TIP3    H234630   4.807   2.632  18.112 -1.3410 -2.3656 -3.0473
 3479TIP3   OH234631   5.498   2.059  18.574 -0.2168  0.0912  0.1195
 3479TIP3    H134632   5.586   2.072  18.539  0.5202  1.1270  2.1817
 3479TIP3    H234633   5.480   1.966  18.562  0.8304  0.0051 -0.9898
 3480TIP3   OH234634   7.311   7.591  18.987  0.0087 -0.1390  0.0518
 3480TIP3    H134635   7.395   7.551  19.007 -0.9307 -2.3222 -0.0909
 3480TIP3    H234636   7.263   7.588  19.070 -0.2776  0.1916 -0.0972
 3481TIP3   OH234637   2.243   6.882  19.157 -0.0733  0.3991 -0.5361
 3481TIP3    H134638   2.328   6.923  19.145  0.4038 -0.8166 -1.4702
 3481TIP3    H234639   2.235   6.870  19.252  1.1009 -0.1137 -0.4907
 3482TIP3   OH234640   0.307   2.776  18.399 -0.1752 -0.2550 -0.3237
 3482TIP3    H134641   0.263   2.720  18.334  0.6036 -2.9147  1.2624
 3482TIP3    H234642   0.400   2.771  18.376  0.0298 -0.6752  0.5612
 3483TIP3   OH234643   0.530   3.135  19.255  0.1144  0.2150  0.6060
 3483TIP3    H134644   0.558   3.155  19.165 -1.4670  1.5682  0.3651
 3483TIP3    H234645   0.534   3.040  19.260  1.6470  0.1784 -0.3990
 3484TIP3   OH234646   5.687   2.322  18.677 -0.0865  0.2654 -0.1788
 3484TIP3    H134647   5.625   2.260  18.716  0.6097 -0.3676 -0.0428
 3484TIP3    H234648   5.773   2.283  18.694  0.3687  1.2676 -0.1134
 3485TIP3   OH234649   1.242   5.754  17.771 -0.0823  0.9657  0.1512
 3485TIP3    H134650   1.280   5.732  17.857 -0.8953 -0.4087  0.1814
 3485TIP3    H234651   1.313   5.737  17.709 -0.0568  0.1683  0.3849
 3486TIP3   OH234652   3.306   1.529  18.139 -0.2942  0.1392 -0.5723
 3486TIP3    H134653   3.266   1.464  18.081 -1.0132  1.4475 -1.5748
 3486TIP3    H234654   3.240   1.546  18.206  0.7234 -1.7542  1.0413
 3487TIP3   OH234655   0.948   3.430  18.323 -0.4412  1.0189 -0.0133
 3487TIP3    H134656   0.930   3.500  18.386 -0.2035  2.2706 -1.2840
 3487TIP3    H234657   1.040   3.440  18.300 -0.3582  0.1756 -0.0902
 3488TIP3   OH234658   4.747   1.144  17.143  0.2731  1.0197 -0.0384
 3488TIP3    H134659   4.697   1.099  17.211 -0.3369  2.5055  0.5313
 3488TIP3    H234660   4.785   1.073  17.091 -0.2584 -0.1454  1.1011
 3489TIP3   OH234661   3.772   3.662  17.981 -0.5935  0.3450 -0.1443
 3489TIP3    H134662   3.829   3.621  17.916  1.5949  0.1087  1.8287
 3489TIP3    H234663   3.697   3.603  17.988 -0.2425 -0.2970 -1.4466
 3490TIP3   OH234664   3.890   0.162  16.673 -0.7873 -0.0341  0.3337
 3490TIP3    H134665   3.907   0.087  16.730 -0.0564  1.2179  1.8303
 3490TIP3    H234666   3.970   0.172  16.621 -0.6712  0.0570  0.5307
 3491TIP3   OH234667   7.121   6.279  17.824  0.0301  0.1023  0.0135
 3491TIP3    H134668   7.094   6.200  17.778 -0.9424 -0.1401  0.9541
 3491TIP3    H234669   7.044   6.336  17.820  1.2119  1.6653 -1.9917
 3492TIP3   OH234670   5.902   3.604  17.261 -0.0132  0.2917  0.2531
 3492TIP3    H134671   5.916   3.645  17.176  1.5803 -0.8827 -0.0860
 3492TIP3    H234672   5.936   3.667  17.325 -1.1959  1.1657  0.0655
 3493TIP3   OH234673   4.371   5.729  17.666  0.2328  0.0236 -0.0022
 3493TIP3    H134674   4.294   5.673  17.653  0.7462 -0.7478  0.2599
 3493TIP3    H234675   4.417   5.691  17.740  0.9293  0.4258 -0.2168
 3494TIP3   OH234676   1.963   5.007  18.014  0.0113 -0.2431  0.1550
 3494TIP3    H134677   1.956   4.952  18.092 -1.3933  1.2190  1.1161
 3494TIP3    H234678   2.053   5.042  18.018 -0.6123  1.3495  2.2726
 3495TIP3   OH234679   3.331   3.274  17.828 -0.0921 -0.1895  0.2483
 3495TIP3    H134680   3.244   3.311  17.818 -0.0200 -0.3590 -1.2150
 3495TIP3    H234681   3.315   3.183  17.856 -0.2675  0.7621  3.6412
 3496TIP3   OH234682   7.605   5.724  17.515  0.4995  0.2810  0.4107
 3496TIP3    H134683   7.641   5.658  17.455  1.2313 -0.3000  1.4566
 3496TIP3    H234684   7.590   5.801  17.460  1.4144 -0.1499 -0.4661
 3497TIP3   OH234685   0.010   5.701  17.800  0.4376  0.0492 -0.3959
 3497TIP3    H134686   0.001   5.605  17.806  1.5140 -0.0122  0.6647
 3497TIP3    H234687  -0.027   5.723  17.715 -1.4690 -1.1005  0.0543
 3498TIP3   OH234688   4.511   6.170  19.077 -0.2660  0.0111  0.0798
 3498TIP3    H134689   4.543   6.120  19.153  0.6988 -2.3287 -1.7604
 3498TIP3    H234690   4.416   6.168  19.086 -0.1850  1.6768  2.3146
 3499TIP3   OH234691   2.139   5.381  16.371 -0.4769 -0.4516  0.2670
 3499TIP3    H134692   2.173   5.441  16.438  0.8637 -0.0281 -0.7553
 3499TIP3    H234693   2.191   5.302  16.380  2.1609  0.7618 -2.3607
 3500TIP3   OH234694   3.628   4.777  17.350 -0.5107 -0.2981  0.4121
 3500TIP3    H134695   3.629   4.873  17.344 -1.8333 -0.3456 -1.7564
 3500TIP3    H234696   3.720   4.753  17.359 -0.1694  1.1734  1.1977
 3501TIP3   OH234697   2.415   2.241  18.634 -0.3383 -0.2190 -0.2143
 3501TIP3    H134698   2.462   2.290  18.701  0.6028 -0.6574 -0.5481
 3501TIP3    H234699   2.469   2.163  18.619 -1.6591 -1.2441  0.1146
 3502TIP3   OH234700   6.914   5.295  17.878  0.5800  0.2995  0.2159
 3502TIP3    H134701   6.840   5.293  17.939 -1.6746  0.0931 -2.3546
 3502TIP3    H234702   6.890   5.363  17.815  2.0107 -0.5952 -1.3594
 3503TIP3   OH234703   6.636   2.883  18.639  0.4641  0.3837  0.1661
 3503TIP3    H134704   6.627   2.961  18.693  0.8190  0.9326 -0.5493
 3503TIP3    H234705   6.671   2.915  18.556 -1.3093 -0.2417 -0.8684
 3504TIP3   OH234706   0.253   0.036  18.776  0.3005  0.0358  0.3715
 3504TIP3    H134707   0.192   0.093  18.823 -0.1149  0.1089 -0.2418
 3504TIP3    H234708   0.226   0.043  18.685  1.7460  0.7051 -0.0335
 3505TIP3   OH234709   7.318   3.086  19.286 -0.3724 -0.2208 -0.4614
 3505TIP3    H134710   7.272   3.056  19.208 -1.6158  0.2052  0.0788
 3505TIP3    H234711   7.253   3.081  19.356  0.8608 -1.0857  0.6682
 3506TIP3   OH234712   5.688   0.016  17.877  0.0163 -0.2529 -0.0756
 3506TIP3    H134713   5.641  -0.027  17.805 -0.7999  0.4836 -0.0052
 3506TIP3    H234714   5.702  -0.053  17.941 -2.8944 -0.1442  0.8565
 3507TIP3   OH234715   0.247   2.486  18.680  0.2207  0.0462 -0.0966
 3507TIP3    H134716   0.322   2.454  18.630  0.1519 -0.3880  0.0728
 3507TIP3    H234717   0.180   2.419  18.669 -0.0436  0.2947 -0.0123
 3508TIP3   OH234718   1.646   0.471  18.542  0.3437 -0.3412 -0.0983
 3508TIP3    H134719   1.667   0.441  18.453 -0.7916 -0.7958 -0.2281
 3508TIP3    H234720   1.632   0.565  18.533  2.7334  0.0962  0.0888
 3509TIP3   OH234721   3.487   7.291  18.697  0.3206 -0.0217  0.3512
 3509TIP3    H134722   3.547   7.216  18.694 -1.3269 -1.3863 -0.9125
 3509TIP3    H234723   3.523   7.353  18.634 -0.6579 -1.7755 -2.1023
 3510TIP3   OH234724   6.617   5.523  17.869  0.6188 -0.2463  0.2504
 3510TIP3    H134725   6.628   5.457  17.937 -0.7042 -0.9209 -0.1595
 3510TIP3    H234726   6.607   5.474  17.788 -0.5365  0.4312 -0.0452
 3511TIP3   OH234727   1.010   7.615  18.294  0.8044 -0.5093 -0.0626
 3511TIP3    H134728   0.965   7.693  18.261 -3.4249 -3.2660 -1.6248
 3511TIP3    H234729   0.958   7.588  18.369  2.9476 -1.2293  1.2318
 3512TIP3   OH234730   4.964   2.618  17.575 -0.2988 -0.5373 -0.3919
 3512TIP3    H134731   4.967   2.680  17.502 -2.1393 -2.5705 -2.3538
 3512TIP3    H234732   5.011   2.541  17.542 -2.3381 -2.0074 -0.0621
 3513TIP3   OH234733   0.675   3.187  19.039 -0.0989  0.0616  0.0213
 3513TIP3    H134734   0.770   3.186  19.028  0.2445  0.3966  2.5311
 3513TIP3    H234735   0.642   3.145  18.959  2.2917 -3.2140  0.5359
 3514TIP3   OH234736   4.616   3.392  18.464  0.3602 -0.4482  0.1733
 3514TIP3    H134737   4.660   3.339  18.397 -0.2739  0.0337 -0.6532
 3514TIP3    H234738   4.526   3.359  18.465  0.3987 -0.5501  0.9130
 3515TIP3   OH234739   0.928   4.844  17.642 -0.5348 -0.0005  0.3674
 3515TIP3    H134740   0.853   4.811  17.592  0.0098  1.3311 -1.4341
 3515TIP3    H234741   0.975   4.899  17.580  0.8061  0.8514  2.0731
 3516TIP3   OH234742   4.783   2.001  19.031 -0.7858 -0.1214 -0.1371
 3516TIP3    H134743   4.818   1.944  18.963 -3.1611 -0.6127 -1.0376
 3516TIP3    H234744   4.731   1.943  19.087 -0.9631  0.6995  0.5720
 3517TIP3   OH234745   7.319   2.292  18.611 -0.2763  0.3165  0.4123
 3517TIP3    H134746   7.395   2.262  18.661 -0.6440 -0.1769  0.6865
 3517TIP3    H234747   7.278   2.211  18.580 -0.5158  0.5934  0.0133
 3518TIP3   OH234748   5.927   4.073  18.366  0.2726 -0.8736  0.7533
 3518TIP3    H134749   5.931   4.143  18.431  1.1811  0.7243 -0.9224
 3518TIP3    H234750   5.838   4.037  18.374 -0.5610  1.1303  1.0359
 3519TIP3   OH234751   5.759   4.131  17.549  0.1825  0.4857  0.5191
 3519TIP3    H134752   5.773   4.078  17.627  0.3059 -0.2437  0.0071
 3519TIP3    H234753   5.681   4.092  17.507  1.1523 -0.2639 -0.6563
 3520TIP3   OH234754   3.573   1.663  19.103 -0.0056 -0.5546 -0.0264
 3520TIP3    H134755   3.599   1.589  19.048  0.8276  0.0792 -0.5040
 3520TIP3    H234756   3.636   1.732  19.082 -2.4212  1.3012 -1.7405
 3521TIP3   OH234757   4.323   6.321  18.271 -0.4353  0.0048 -0.4125
 3521TIP3    H134758   4.354   6.238  18.232  2.3316  1.2334 -1.0791
 3521TIP3    H234759   4.291   6.371  18.196 -0.0561  0.3565 -0.3408
 3522TIP3   OH234760   2.999   0.412  17.830  0.3019  0.3132  0.2625
 3522TIP3    H134761   3.052   0.483  17.865  0.2388  0.1993  0.5926
 3522TIP3    H234762   3.040   0.332  17.864  1.3850  0.0873 -1.4666
 3523TIP3   OH234763   4.384   3.746  18.560  0.2256 -0.1238  0.2296
 3523TIP3    H134764   4.437   3.805  18.506 -0.7475 -0.3031 -0.9772
 3523TIP3    H234765   4.330   3.803  18.614  1.0389  0.0643  0.8482
 3524TIP3   OH234766   3.901   7.594  18.445  0.5956  0.1043  0.0837
 3524TIP3    H134767   3.822   7.645  18.464  1.4533  1.8198 -0.7658
 3524TIP3    H234768   3.970   7.660  18.434  2.2912 -1.3605  1.3402
 3525TIP3   OH234769   2.064   0.531  17.993 -0.3635  0.0191 -0.2911
 3525TIP3    H134770   2.155   0.556  18.011 -0.2126 -0.4977 -0.3231
 3525TIP3    H234771   2.015   0.566  18.068 -0.0737 -0.0983 -0.0410
 3526TIP3   OH234772   1.027   6.111  18.921  0.2716  0.5447  0.0114
 3526TIP3    H134773   1.105   6.080  18.874 -0.4675 -0.8664 -0.3417
 3526TIP3    H234774   1.057   6.190  18.967  2.0273 -0.1929  0.2308
 3527TIP3   OH234775   4.429   0.016  16.755  0.0252 -0.3201  0.3568
 3527TIP3    H134776   4.461  -0.067  16.720 -0.8349 -1.1052  1.3340
 3527TIP3    H234777   4.450   0.012  16.849 -0.2408  0.4521  0.4552
 3528TIP3   OH234778   2.902   1.496  18.765 -0.2116 -0.5053 -0.4226
 3528TIP3    H134779   2.884   1.423  18.824 -2.3495 -1.1699 -1.7679
 3528TIP3    H234780   2.832   1.559  18.782  0.3185  0.2122 -0.8361
 3529TIP3   OH234781   7.302   6.418  18.014  0.3473 -0.1272 -0.3543
 3529TIP3    H134782   7.244   6.364  17.961 -0.8947  1.1206 -0.3354
 3529TIP3    H234783   7.245   6.488  18.047  1.7775  0.8857  0.0404
 3530TIP3   OH234784   4.780   2.334  17.608 -0.1469  0.4274  0.3214
 3530TIP3    H134785   4.690   2.308  17.590 -0.4046  0.4579  1.4883
 3530TIP3    H234786   4.772   2.408  17.668  0.6393  1.3413 -0.6689
 3531TIP3   OH234787   7.308   0.861  17.132  0.7352 -0.5399 -0.2514
 3531TIP3    H134788   7.292   0.944  17.088  0.4312 -0.7244 -0.4923
 3531TIP3    H234789   7.335   0.886  17.220 -0.8658 -0.1989  0.1829
 3532TIP3   OH234790   3.946   5.000  18.500 -0.1851  0.4444 -0.3404
 3532TIP3    H134791   3.936   5.004  18.595  1.2779 -2.0175  0.0213
 3532TIP3    H234792   3.939   4.907  18.480  1.5771  0.6841 -2.3720
 3533TIP3   OH234793   1.092   2.693  17.735  0.0110 -0.4357 -0.1795
 3533TIP3    H134794   1.044   2.690  17.652 -1.4731 -1.2643  0.6619
 3533TIP3    H234795   1.180   2.660  17.713  1.0019  3.0825 -2.1751
 3534TIP3   OH234796   1.400   4.282  17.617  0.0731 -0.3528 -0.3120
 3534TIP3    H134797   1.460   4.223  17.573  0.9564  0.8678 -0.7829
 3534TIP3    H234798   1.427   4.370  17.590 -2.1683  0.2396 -0.8675
 3535TIP3   OH234799   1.094   0.324  18.738 -0.3463  0.4141 -0.2073
 3535TIP3    H134800   1.162   0.380  18.777 -1.2617  0.5697  1.2098
 3535TIP3    H234801   1.023   0.384  18.717 -0.8548 -0.0488  0.1874
 3536TIP3   OH234802   4.578   4.896  18.779  0.1030  0.2964  0.4687
 3536TIP3    H134803   4.531   4.822  18.741  0.8002  0.5030 -0.8160
 3536TIP3    H234804   4.593   4.869  18.870 -0.3084 -0.8194  0.2300
 3537TIP3   OH234805   3.679   6.227  18.110  0.2034  0.1942  0.1155
 3537TIP3    H134806   3.714   6.301  18.160  0.4478 -0.2363  0.5891
 3537TIP3    H234807   3.620   6.267  18.047 -0.4183  0.7155  1.0059
 3538TIP3   OH234808   2.673   3.462  18.122  0.1943  0.4440 -0.1010
 3538TIP3    H134809   2.716   3.402  18.061 -0.9206 -0.8721  0.3491
 3538TIP3    H234810   2.617   3.517  18.068 -0.1506 -0.1473 -0.3451
 3539TIP3   OH234811   6.529   7.635  17.189  0.5775 -0.2992 -0.2853
 3539TIP3    H134812   6.599   7.695  17.165 -0.3292  0.3330 -1.4196
 3539TIP3    H234813   6.564   7.548  17.169  1.1536 -0.0153 -0.5232
 3540TIP3   OH234814   1.662   3.989  17.344 -0.5693  0.1055 -0.2912
 3540TIP3    H134815   1.585   3.944  17.309 -0.3892  0.5061 -1.2167
 3540TIP3    H234816   1.731   3.972  17.280 -0.2675  0.9612 -0.1962
 3541TIP3   OH234817   1.473   1.852  18.893  0.2111 -0.0542  0.4391
 3541TIP3    H134818   1.434   1.766  18.908  0.7119 -0.5956 -1.0826
 3541TIP3    H234819   1.399   1.911  18.884 -0.3618 -1.0375 -2.2377
 3542TIP3   OH234820   5.140   2.098  18.836  0.1165  0.1794  0.4754
 3542TIP3    H134821   5.096   2.020  18.803 -1.0713  0.0395  2.2839
 3542TIP3    H234822   5.113   2.105  18.927 -0.5439  3.1761  0.1773
 3543TIP3   OH234823   4.228   0.667  18.965 -0.1845  0.0981  0.0606
 3543TIP3    H134824   4.279   0.658  18.884  1.7654  0.7750  1.1499
 3543TIP3    H234825   4.265   0.602  19.024 -0.4438  0.7314  0.9471
 3544TIP3   OH234826   1.994   1.915  17.153 -0.1334 -0.3053 -0.1568
 3544TIP3    H134827   1.956   1.958  17.230  1.3333 -1.8020  1.5279
 3544TIP3    H234828   1.971   1.823  17.164  1.5380 -0.8118 -0.5512
 3545TIP3   OH234829   2.238   3.977  18.878 -0.4130  0.1463  0.1049
 3545TIP3    H134830   2.224   3.891  18.918 -1.0997 -0.2838 -1.0154
 3545TIP3    H234831   2.328   3.974  18.846 -0.3733 -0.0867  0.2355
 3546TIP3   OH234832   1.836   7.617  17.975  0.6161  0.1700  0.4043
 3546TIP3    H134833   1.904   7.644  18.036 -0.2818  1.6556  0.8097
 3546TIP3    H234834   1.754   7.634  18.023 -0.0796  0.6508 -0.9161
 3547TIP3   OH234835   1.269   6.812  19.381  0.4514  0.4894  0.2234
 3547TIP3    H134836   1.336   6.749  19.409  1.3180 -0.1025 -2.8038
 3547TIP3    H234837   1.197   6.759  19.349 -0.0981  1.0892  0.4372
 3548TIP3   OH234838   0.439   4.631  18.124 -0.3348  0.0392  0.5816
 3548TIP3    H134839   0.525   4.592  18.134 -0.4238  0.1645  2.0826
 3548TIP3    H234840   0.453   4.725  18.133 -0.5836  0.0822  0.5414
 3549TIP3   OH234841   1.191   6.350  17.005 -0.0951  0.8501 -0.5706
 3549TIP3    H134842   1.178   6.445  17.003 -1.1884  0.7609  0.9642
 3549TIP3    H234843   1.108   6.314  17.035  0.9331 -0.4419  0.8750
 3550TIP3   OH234844   0.117   3.087  18.667  0.5355 -0.0969 -0.1512
 3550TIP3    H134845   0.187   3.022  18.672  1.2237  0.3868 -2.2951
 3550TIP3    H234846   0.160   3.169  18.691  0.0974 -0.1346  0.8114
 3551TIP3   OH234847   1.825   4.918  19.280 -0.2528 -0.1632  0.3655
 3551TIP3    H134848   1.874   4.854  19.228 -0.4677  0.6866 -0.8998
 3551TIP3    H234849   1.893   4.970  19.323 -0.0047  0.8271 -1.1634
 3552TIP3   OH234850   6.051   3.677  17.699  0.2018 -0.4468  0.5043
 3552TIP3    H134851   6.112   3.653  17.630  1.0193  1.6735  0.4189
 3552TIP3    H234852   6.106   3.707  17.771 -0.6866  2.1676  0.1787
 3553TIP3   OH234853   6.938   6.402  17.204 -0.4069 -0.5597  0.1862
 3553TIP3    H134854   6.947   6.496  17.189  0.6919 -0.9734 -2.2839
 3553TIP3    H234855   6.849   6.381  17.174 -0.6961 -0.3072  0.8539
 3554TIP3   OH234856   4.488   2.702  18.184  0.4064 -0.1294  0.7791
 3554TIP3    H134857   4.529   2.635  18.130  0.5573 -0.8869  1.8088
 3554TIP3    H234858   4.400   2.669  18.202 -0.5379  1.2424 -0.9733
 3555TIP3   OH234859   7.522   3.583  17.020  0.7224 -0.9255  0.2068
 3555TIP3    H134860   7.476   3.577  16.936  1.7056 -0.0066 -0.4269
 3555TIP3    H234861   7.453   3.601  17.084  0.1067 -0.2838 -0.6114
 3556TIP3   OH234862   5.896   2.879  19.201  0.5209 -0.5070  0.2723
 3556TIP3    H134863   5.873   2.883  19.293  1.3106  1.9472  0.4384
 3556TIP3    H234864   5.815   2.902  19.155  0.1207 -1.7552  0.3120
 3557TIP3   OH234865   4.489   3.979  18.436  0.1961 -0.5820  0.1842
 3557TIP3    H134866   4.489   4.070  18.407  0.2387  0.0126  1.9178
 3557TIP3    H234867   4.513   3.929  18.358 -1.7621  0.6783 -1.3439
 3558TIP3   OH234868   4.881   3.957  17.667  0.2835  0.6824  0.6037
 3558TIP3    H134869   4.904   3.987  17.578  1.6221  1.9982  1.3399
 3558TIP3    H234870   4.838   3.873  17.653 -0.1977  1.1918 -1.3434
 3559TIP3   OH234871   6.001   5.134  18.442  0.3601 -0.2829 -0.0940
 3559TIP3    H134872   6.072   5.185  18.402  2.2446 -1.1631  1.8748
 3559TIP3    H234873   5.937   5.124  18.373  1.2035  2.2857 -1.4085
 3560TIP3   OH234874   6.459   7.167  17.022  0.2944 -0.1143  0.0651
 3560TIP3    H134875   6.381   7.191  17.073 -0.0494  0.5954 -0.7689
 3560TIP3    H234876   6.428   7.160  16.932  0.7576 -2.0282  0.0154
 3561TIP3   OH234877   4.700   7.660  17.916  0.1219  0.2290  0.0228
 3561TIP3    H134878   4.752   7.703  17.984  2.1372 -0.4388 -1.0175
 3561TIP3    H234879   4.647   7.731  17.879  2.4073  1.6401 -0.7859
 3562TIP3   OH234880   5.688   4.255  19.400 -0.1956 -0.0150  0.0687
 3562TIP3    H134881   5.596   4.252  19.424 -0.1720 -0.0246  0.1594
 3562TIP3    H234882   5.702   4.177  19.347  0.4192 -1.6120  2.4132
 3563TIP3   OH234883   1.263   3.144  18.110 -0.1175  0.0087 -0.7033
 3563TIP3    H134884   1.178   3.106  18.132  0.4982 -0.9663  0.0962
 3563TIP3    H234885   1.242   3.219  18.054 -1.5305  0.1282 -0.0613
 3564TIP3   OH234886   1.845   2.810  17.992 -0.5215  0.4225  0.2096
 3564TIP3    H134887   1.840   2.753  17.915  0.1341  0.2797  0.2607
 3564TIP3    H234888   1.833   2.898  17.957  2.3405  0.6450 -0.5183
 3565TIP3   OH234889   3.121   4.951  17.440 -0.2730  0.2058  0.0185
 3565TIP3    H134890   3.117   4.957  17.345 -2.0337 -0.0188  0.0518
 3565TIP3    H234891   3.214   4.935  17.459  0.2527  1.1205 -1.5876
 3566TIP3   OH234892   1.693   6.555  19.332  0.3121  0.2751  0.4438
 3566TIP3    H134893   1.734   6.512  19.257 -0.2333  0.9184 -0.2347
 3566TIP3    H234894   1.766   6.599  19.377  0.7404 -0.6248  0.6717
 3567TIP3   OH234895   2.556   5.172  18.271 -0.5655  0.1286  0.4665
 3567TIP3    H134896   2.536   5.172  18.365  1.0823  0.9007  0.8590
 3567TIP3    H234897   2.535   5.261  18.242  1.9013  0.9087  0.8542
 3568TIP3   OH234898   7.145   2.502  18.501  0.2579  0.3130 -0.1620
 3568TIP3    H134899   7.215   2.567  18.498  0.1821  0.4721  1.1291
 3568TIP3    H234900   7.189   2.421  18.528 -0.0148  0.3756  0.4889
 3569TIP3   OH234901   7.134   1.630  19.030 -0.1063  0.4463  0.3438
 3569TIP3    H134902   7.097   1.718  19.039  0.8234  0.8918 -0.0528
 3569TIP3    H234903   7.111   1.586  19.112  0.0553  1.3073  0.8639
 3570TIP3   OH234904   0.667   0.844  17.398 -0.4412  0.1660  0.7023
 3570TIP3    H134905   0.712   0.835  17.482  1.7312 -1.8318 -0.5589
 3570TIP3    H234906   0.649   0.938  17.390  0.7523  0.6214  2.6570
 3571TIP3   OH234907   6.162   1.544  19.495 -1.0179 -0.2039 -0.2713
 3571TIP3    H134908   6.166   1.513  19.586  0.1323  0.7494  0.0291
 3571TIP3    H234909   6.192   1.469  19.444  0.3490 -0.0987  0.3274
 3572TIP3   OH234910   1.206   5.159  18.608  0.4111 -0.1743  0.4423
 3572TIP3    H134911   1.194   5.254  18.605  0.7265 -0.1473 -0.0809
 3572TIP3    H234912   1.290   5.144  18.566 -0.2156 -0.7850 -0.6511
 3573TIP3   OH234913   5.400   4.396  18.992  0.8186 -0.6587  0.0212
 3573TIP3    H134914   5.445   4.312  18.994  2.5488  0.0095 -3.3681
 3573TIP3    H234915   5.324   4.381  18.936  0.2244 -0.3326  0.7327
 3574TIP3   OH234916   2.237   3.791  18.581 -0.5468  0.0106 -0.3309
 3574TIP3    H134917   2.186   3.866  18.611  0.0358  0.7476 -1.1496
 3574TIP3    H234918   2.187   3.755  18.508  0.1589  0.8352 -1.2430
 3575TIP3   OH234919   4.580   4.365  18.843 -0.5130 -0.3006 -0.2808
 3575TIP3    H134920   4.501   4.391  18.796  0.0170 -0.8581 -1.5099
 3575TIP3    H234921   4.606   4.282  18.803  0.0299 -0.7305  0.9166
 3576TIP3   OH234922   1.394   6.468  19.138  0.1700  0.2038  0.1396
 3576TIP3    H134923   1.384   6.550  19.188 -1.1169  1.0110 -1.3622
 3576TIP3    H234924   1.451   6.414  19.193  0.0162  1.6066  1.7759
 3577TIP3   OH234925   7.153   3.021  19.507 -0.1173  0.1143 -0.1188
 3577TIP3    H134926   7.059   3.005  19.500  0.0048 -0.2215 -0.9844
 3577TIP3    H234927   7.160   3.086  19.578 -1.1900  1.8726 -1.5395
 3578TIP3   OH234928   3.788   4.362  18.191  0.6477 -0.7023  0.7247
 3578TIP3    H134929   3.745   4.277  18.193 -0.1151 -0.3277  1.2985
 3578TIP3    H234930   3.800   4.382  18.099  0.3907 -1.2187  0.5798
 3579TIP3   OH234931   3.605   3.281  19.480 -0.4157  0.2062 -0.3947
 3579TIP3    H134932   3.600   3.375  19.497 -1.3602  0.0083  0.5333
 3579TIP3    H234933   3.675   3.251  19.538 -1.1699  0.1086  0.4915
 3580TIP3   OH234934   4.025   1.456  18.839  0.0846 -0.1614  0.4862
 3580TIP3    H134935   4.026   1.385  18.774 -1.8058 -0.4309  0.6886
 3580TIP3    H234936   3.969   1.523  18.800  1.8093  1.2611  0.3166
 3581TIP3   OH234937   4.956   2.434  17.291  0.4566 -0.1842 -0.2447
 3581TIP3    H134938   5.030   2.418  17.350 -0.2151 -0.1426  0.6327
 3581TIP3    H234939   4.964   2.365  17.225 -0.0145 -1.6414  1.1487
 3582TIP3   OH234940   1.298   1.483  17.322  0.1619 -0.1485  0.5501
 3582TIP3    H134941   1.335   1.539  17.253  0.6035 -0.2516  0.6969
 3582TIP3    H234942   1.212   1.458  17.289 -0.1570  0.8410  0.5986
 3583TIP3   OH234943   3.106   0.596  17.999  0.5357 -0.0023 -0.2613
 3583TIP3    H134944   3.095   0.670  17.939  1.2592  0.9273  0.7109
 3583TIP3    H234945   3.133   0.636  18.082  1.2082 -1.3732  0.2161
 3584TIP3   OH234946   3.666   2.747  16.884  1.1200  0.1362 -0.3842
 3584TIP3    H134947   3.676   2.801  16.806  0.2483  0.4191 -0.3138
 3584TIP3    H234948   3.571   2.734  16.892  1.0978  1.0324  1.2452
 3585TIP3   OH234949   4.366   1.771  17.098  0.0613  0.0017  0.6217
 3585TIP3    H134950   4.337   1.842  17.039 -3.6522 -1.6043  0.2336
 3585TIP3    H234951   4.377   1.814  17.183  4.1592  2.0991 -0.6955
 3586TIP3   OH234952   7.460   3.908  17.444 -0.2244 -0.6896  0.1188
 3586TIP3    H134953   7.414   3.973  17.391 -1.7318 -0.9505  1.0523
 3586TIP3    H234954   7.438   3.931  17.535 -0.1977 -2.0790  0.4950
 3587TIP3   OH234955   1.235   4.815  17.431  0.2492 -0.5817 -0.0780
 3587TIP3    H134956   1.171   4.885  17.440 -0.4203 -1.1428 -0.3936
 3587TIP3    H234957   1.184   4.738  17.404  1.2036 -0.6987 -1.7362
 3588TIP3   OH234958   6.527   4.814  19.331 -0.0141 -0.5497 -0.1279
 3588TIP3    H134959   6.472   4.887  19.360 -0.2840  0.3417 -2.6948
 3588TIP3    H234960   6.465   4.743  19.313 -0.3576  0.2382 -2.3649
 3589TIP3   OH234961   6.389   4.503  19.505  0.1042  0.5061 -0.1574
 3589TIP3    H134962   6.323   4.443  19.540 -0.0447  1.3281  1.0094
 3589TIP3    H234963   6.339   4.562  19.448 -0.1993  1.1899  0.8029
 3590TIP3   OH234964   0.242   3.998  17.900 -0.0612 -0.2422 -0.2720
 3590TIP3    H134965   0.255   3.964  17.812  1.6406  1.0974 -0.5718
 3590TIP3    H234966   0.273   3.928  17.958  1.0786 -0.2009 -0.8129
 3591TIP3   OH234967   6.281   0.658  17.670  0.1103 -0.1316 -0.9715
 3591TIP3    H134968   6.342   0.730  17.683  0.1002 -0.2759 -0.1023
 3591TIP3    H234969   6.333   0.579  17.681  0.4201 -0.3045 -3.2423
 3592TIP3   OH234970   4.893   1.204  18.209  0.0039  0.5100  0.0775
 3592TIP3    H134971   4.820   1.251  18.248 -0.6566 -1.2011  0.9893
 3592TIP3    H234972   4.852   1.138  18.153  0.7972 -0.9395  1.1408
 3593TIP3   OH234973   6.729   6.327  16.834 -0.5507  0.5288 -0.6281
 3593TIP3    H134974   6.649   6.326  16.780 -0.1984 -0.7667 -1.1616
 3593TIP3    H234975   6.788   6.387  16.787 -1.1820  1.4718 -0.2470
 3594TIP3   OH234976   0.108   1.601  18.885 -0.0755  0.0884  0.1155
 3594TIP3    H134977   0.114   1.554  18.802 -0.8480 -2.3331  1.3305
 3594TIP3    H234978   0.194   1.588  18.927 -0.3579 -0.4466  0.5434
 3595TIP3   OH234979   1.814   7.124  18.332 -0.2876  0.3064 -0.2370
 3595TIP3    H134980   1.773   7.166  18.256  0.4436  0.1438 -0.7258
 3595TIP3    H234981   1.908   7.133  18.317 -0.1263  0.6454  0.8589
 3596TIP3   OH234982   1.856   0.523  19.194 -0.3460 -0.0976 -0.4367
 3596TIP3    H134983   1.803   0.598  19.222  0.7152  0.4485  0.1824
 3596TIP3    H234984   1.946   0.557  19.191  0.0608 -1.1582 -0.8621
 3597TIP3   OH234985   2.748   4.850  17.088  0.3965 -0.0645  0.5206
 3597TIP3    H134986   2.695   4.870  17.165  1.1752 -1.0437  1.3244
 3597TIP3    H234987   2.816   4.791  17.120 -0.1111 -1.6589 -1.1894
 3598TIP3   OH234988   7.578   0.772  18.822  0.2820  0.4102  1.0670
 3598TIP3    H134989   7.623   0.701  18.777  0.7395 -0.4199  2.7494
 3598TIP3    H234990   7.648   0.830  18.852  0.1836 -0.2116  2.5821
 3599TIP3   OH234991   4.592   7.310  18.502 -0.0157 -0.2250  0.2606
 3599TIP3    H134992   4.554   7.380  18.555  0.1555 -0.1514  0.2849
 3599TIP3    H234993   4.588   7.233  18.558 -1.2172 -0.4862 -0.1664
 3600TIP3   OH234994   5.132   7.573  17.577  0.1726 -0.9774  0.0561
 3600TIP3    H134995   5.118   7.491  17.625  0.1804 -0.2958  1.2518
 3600TIP3    H234996   5.226   7.574  17.557  0.1509 -1.3053 -0.0754
 3601TIP3   OH234997   4.092   5.616  19.171 -0.1630 -0.6019 -0.2381
 3601TIP3    H134998   4.130   5.561  19.103 -1.7176 -1.6449 -0.3085
 3601TIP3    H234999   4.081   5.702  19.130 -0.5769 -1.0769 -1.1431
 3602TIP3   OH235000   6.555   0.131  18.754  0.0900  0.6988 -0.0335
 3602TIP3    H135001   6.522   0.140  18.843  0.4754 -2.7434  0.5995
 3602TIP3    H235002   6.623   0.198  18.746  1.1998  0.0339  2.8711
 3603TIP3   OH235003   2.512   0.365  18.706  0.0314 -0.1743  0.4091
 3603TIP3    H135004   2.424   0.356  18.668  0.2031  0.7692 -0.2699
 3603TIP3    H235005   2.504   0.329  18.794 -1.2880  0.7125  0.6891
 3604TIP3   OH235006   5.043   5.512  17.944  0.1245 -0.3169 -0.6534
 3604TIP3    H135007   5.031   5.542  18.034 -1.4357  2.7894 -1.7469
 3604TIP3    H235008   5.136   5.527  17.926  0.3080 -0.3509  0.2143
 3605TIP3   OH235009   2.317   1.443  19.128  0.1822 -0.5519  0.2067
 3605TIP3    H135010   2.292   1.473  19.215 -0.1953 -0.8391  0.1937
 3605TIP3    H235011   2.375   1.368  19.144 -1.1033 -1.5693  0.1863
 3606TIP3   OH235012   4.809   4.419  17.073 -0.3438  0.1053  0.0639
 3606TIP3    H135013   4.787   4.491  17.013  0.8436  0.0659 -0.4484
 3606TIP3    H235014   4.809   4.460  17.159 -1.4239  0.3151 -0.0231
 3607TIP3   OH235015   7.224   1.886  18.445 -0.1855  0.0787 -0.0589
 3607TIP3    H135016   7.242   1.909  18.537 -0.7660 -0.6758  0.2500
 3607TIP3    H235017   7.131   1.863  18.444 -0.5435  1.4936 -1.1391
 3608TIP3   OH235018   1.036   0.773  18.337  0.1615 -0.7585 -0.2991
 3608TIP3    H135019   1.116   0.739  18.376  0.1846 -1.2374 -0.7526
 3608TIP3    H235020   0.977   0.697  18.332  0.1223 -0.6896 -1.0925
 3609TIP3   OH235021   3.700   0.101  18.870 -0.2684  0.2835 -0.1778
 3609TIP3    H135022   3.644   0.127  18.797 -0.3864  1.2372  0.2328
 3609TIP3    H235023   3.786   0.087  18.831 -0.9121 -1.8777 -0.9276
 3610TIP3   OH235024   4.757   1.427  16.657  0.1515 -0.5814 -0.3832
 3610TIP3    H135025   4.676   1.379  16.675 -0.3891  0.0443 -1.0578
 3610TIP3    H235026   4.797   1.440  16.743 -0.1899 -1.3604 -0.0972
 3611TIP3   OH235027   5.605   5.380  17.797 -0.3998 -0.9699 -0.0547
 3611TIP3    H135028   5.698   5.397  17.783 -0.4944  0.0168  0.4017
 3611TIP3    H235029   5.598   5.368  17.892 -1.0001  0.8670  0.1725
 3612TIP3   OH235030   0.724   5.752  17.355 -0.5681 -0.1914  0.6544
 3612TIP3    H135031   0.678   5.778  17.275  1.3624  0.1446 -0.4066
 3612TIP3    H235032   0.702   5.821  17.418 -1.6584 -0.1499  0.2448
 3613TIP3   OH235033   5.419   1.585  17.543 -0.3091  0.4003  0.0327
 3613TIP3    H135034   5.345   1.628  17.585 -0.6559 -1.2384  1.2058
 3613TIP3    H235035   5.445   1.516  17.605 -0.5242 -1.8248 -2.2007
 3614TIP3   OH235036   1.636   0.275  18.954  0.4972 -0.1201  0.6419
 3614TIP3    H135037   1.546   0.284  18.923  1.2459 -0.6812 -1.9447
 3614TIP3    H235038   1.639   0.188  18.994  0.0271 -0.3468  0.1907
 3615TIP3   OH235039   2.175   4.961  19.151  0.2277  0.7813  0.8539
 3615TIP3    H135040   2.113   5.009  19.206 -2.2441 -0.2386 -0.8956
 3615TIP3    H235041   2.137   4.874  19.141  1.7044  0.2520 -0.6648
 3616TIP3   OH235042   7.165   0.102  19.357 -0.0893  0.4513  0.7945
 3616TIP3    H135043   7.251   0.106  19.315 -0.7463  2.5324 -0.5117
 3616TIP3    H235044   7.148   0.192  19.384 -2.3784  0.3514 -0.1229
 3617TIP3   OH235045   0.666   4.909  16.676  0.6274 -0.1162  0.0144
 3617TIP3    H135046   0.644   4.816  16.666 -1.0431  0.2595 -0.0733
 3617TIP3    H235047   0.631   4.932  16.762 -1.1415  0.9669 -0.9244
 3618TIP3   OH235048   3.685   1.967  19.344 -0.2032 -0.3245  0.0627
 3618TIP3    H135049   3.757   1.928  19.294 -0.1221 -0.2925  0.1546
 3618TIP3    H235050   3.727   2.002  19.423 -0.0653  1.0554 -0.5834
 3619TIP3   OH235051   5.538   7.334  18.272  0.6229 -0.5904  0.1010
 3619TIP3    H135052   5.451   7.344  18.232 -0.6608  0.2375  2.8395
 3619TIP3    H235053   5.595   7.310  18.199 -1.0376  2.8397 -2.6309
 3620TIP3   OH235054   2.666   0.272  18.153 -0.0722  0.2885 -0.2886
 3620TIP3    H135055   2.637   0.183  18.133  0.9449 -0.2706  0.6572
 3620TIP3    H235056   2.588   0.326  18.140 -1.0914 -0.9352  0.5389
 3621TIP3   OH235057   0.228   5.259  19.141  0.2568  0.4519  0.2070
 3621TIP3    H135058   0.270   5.284  19.223 -0.6307  2.7551  0.0400
 3621TIP3    H235059   0.195   5.341  19.105 -3.4526 -0.9977 -0.1828
 3622TIP3   OH235060   1.325   5.903  17.514 -0.2555 -0.4546  0.6358
 3622TIP3    H135061   1.362   5.827  17.560 -0.6845 -0.4065  1.0679
 3622TIP3    H235062   1.342   5.976  17.573  0.2632 -0.1895  0.1669
 3623TIP3   OH235063   3.872   6.876  18.674 -0.5861 -0.2185  0.1572
 3623TIP3    H135064   3.954   6.834  18.646  0.7072  1.7459  0.7910
 3623TIP3    H235065   3.854   6.837  18.759 -0.2790 -0.6412  0.0337
 3624TIP3   OH235066   6.847   5.783  18.987  0.2611 -0.5887 -0.6391
 3624TIP3    H135067   6.848   5.702  18.937 -0.0064 -1.2020  0.3272
 3624TIP3    H235068   6.755   5.804  18.999  0.3271 -0.1567 -0.8462
 3625TIP3   OH235069   4.505   3.504  19.010 -0.4530 -0.2286  0.3731
 3625TIP3    H135070   4.511   3.593  19.043 -0.3853  0.3784 -1.1861
 3625TIP3    H235071   4.439   3.509  18.941  0.6881 -1.0230 -0.8215
 3626TIP3   OH235072   5.204   5.160  18.762 -0.0647  0.3569  0.0038
 3626TIP3    H135073   5.244   5.083  18.722  1.1077 -0.9719  3.3192
 3626TIP3    H235074   5.276   5.223  18.770 -0.2527  0.5645  0.0788
 3627TIP3   OH235075   1.308   0.348  17.427  0.2213  0.2067 -0.6025
 3627TIP3    H135076   1.343   0.374  17.513  0.6335  0.2609 -0.7855
 3627TIP3    H235077   1.382   0.355  17.368  0.1042 -0.4812 -0.8388
 3628TIP3   OH235078   0.581   1.043  17.614 -0.5996 -0.0879  0.3722
 3628TIP3    H135079   0.534   1.098  17.676 -0.2757  0.7931 -0.1511
 3628TIP3    H235080   0.553   1.074  17.528 -0.3936 -0.7263  0.0699
 3629TIP3   OH235081   7.497   4.054  19.336  0.5145 -0.0524 -0.2083
 3629TIP3    H135082   7.510   3.995  19.410  2.9309  0.9744  0.2554
 3629TIP3    H235083   7.423   4.108  19.363  1.2632  0.2239  1.4406
 3630TIP3   OH235084   4.651   0.082  18.863  0.1454  0.2665  0.1223
 3630TIP3    H135085   4.740   0.054  18.886  0.1506  1.2596  1.4064
 3630TIP3    H235086   4.664   0.161  18.811  0.0204  1.0467  1.2359
 3631TIP3   OH235087   4.791   2.161  17.810 -0.3135 -0.4121  0.0346
 3631TIP3    H135088   4.809   2.178  17.718 -2.8401  1.2130 -0.2673
 3631TIP3    H235089   4.824   2.239  17.856 -1.6594  0.1360  0.1063
 3632TIP3   OH235090   1.075   6.106  16.733 -0.1786 -0.2826 -0.2703
 3632TIP3    H135091   1.075   6.192  16.690 -1.7167 -1.1403 -2.1550
 3632TIP3    H235092   0.999   6.108  16.792  0.9352  0.2956  1.1933
 3633TIP3   OH235093   5.832   7.518  18.211 -0.1824 -0.2318 -0.0002
 3633TIP3    H135094   5.912   7.553  18.172 -0.8886  2.5460  0.7536
 3633TIP3    H235095   5.774   7.502  18.137 -0.4058  1.9903 -0.3934
 3634TIP3   OH235096   3.531   6.230  18.707 -0.1315 -0.1714  0.0190
 3634TIP3    H135097   3.552   6.168  18.777  1.3705 -0.2480 -0.4599
 3634TIP3    H235098   3.607   6.227  18.649 -1.6121 -0.6534 -2.0197
 3635TIP3   OH235099   7.660   7.229  18.537  0.1582  0.4226  0.2682
 3635TIP3    H135100   7.650   7.137  18.563  1.9143  0.1191 -0.0079
 3635TIP3    H235101   7.742   7.257  18.577 -0.4489  1.9577  0.5116
 3636TIP3   OH235102   4.153   3.435  19.675 -0.4604 -0.1070 -0.1016
 3636TIP3    H135103   4.123   3.349  19.704 -0.0489 -0.1974  0.0467
 3636TIP3    H235104   4.176   3.422  19.583  1.8457 -0.7317  0.5150
 3637TIP3   OH235105   5.669   6.461  19.253 -0.1142 -0.4060  0.2462
 3637TIP3    H135106   5.724   6.489  19.180 -0.3303  0.1048  0.2736
 3637TIP3    H235107   5.729   6.452  19.327  0.0317 -0.4742  0.1195
 3638TIP3   OH235108   1.593   7.056  17.222 -0.5375 -0.0951  0.0630
 3638TIP3    H135109   1.671   7.062  17.277 -1.0003 -0.1259  0.7334
 3638TIP3    H235110   1.522   7.039  17.284 -1.1733  0.5630 -0.4804
 3639TIP3   OH235111   2.105   6.084  16.467  0.3485 -0.3516  0.3646
 3639TIP3    H135112   2.042   6.028  16.423 -0.7169  0.0125  1.3894
 3639TIP3    H235113   2.062   6.111  16.548  1.7520  0.0492  1.0175
 3640TIP3   OH235114   4.242   6.015  17.737 -0.0565  1.0779  0.2156
 3640TIP3    H135115   4.319   6.036  17.790  0.5495 -2.0409  0.8058
 3640TIP3    H235116   4.241   5.919  17.734 -2.2268  1.0627 -2.3353
 3641TIP3   OH235117   6.668   6.604  17.778  0.4571 -0.6194 -0.2974
 3641TIP3    H135118   6.582   6.582  17.741  0.8798 -1.0158 -1.0600
 3641TIP3    H235119   6.657   6.693  17.812  0.0574 -0.2308 -1.4067
 3642TIP3   OH235120   1.276   2.664  18.844 -0.1304 -0.3326 -0.0831
 3642TIP3    H135121   1.186   2.690  18.867 -0.7552 -3.6241  1.8615
 3642TIP3    H235122   1.329   2.742  18.863 -1.9787  0.2816  3.5452
 3643TIP3   OH235123   2.986   6.057  18.494  0.0215  0.2128 -1.1251
 3643TIP3    H135124   2.977   5.962  18.493  0.5257  0.0521  1.5285
 3643TIP3    H235125   3.075   6.073  18.465 -0.2837 -0.0628 -2.2340
 3644TIP3   OH235126   5.868   0.783  19.009  0.2025  0.3171 -0.7506
 3644TIP3    H135127   5.956   0.750  18.993  0.3472  0.8195 -1.0278
 3644TIP3    H235128   5.873   0.876  18.987 -0.0977  0.6171  0.3644
 3645TIP3   OH235129   2.242   0.557  18.573 -0.4387  0.0425  0.4360
 3645TIP3    H135130   2.256   0.548  18.668  0.7859 -0.3371  0.2338
 3645TIP3    H235131   2.277   0.643  18.552  0.2044 -0.2766  0.1768
 3646TIP3   OH235132   0.097   2.645  17.892  0.2167 -0.0711  0.0047
 3646TIP3    H135133   0.102   2.668  17.799  0.1546  0.8260  0.2174
 3646TIP3    H235134   0.182   2.606  17.911  0.8187  1.1603 -0.0680
 3647TIP3   OH235135   2.766   6.369  17.268 -0.1962 -0.5102  0.1512
 3647TIP3    H135136   2.791   6.313  17.194 -1.2034  0.7476 -1.1855
 3647TIP3    H235137   2.849   6.404  17.300  0.4684 -2.6896  1.0267
 3648TIP3   OH235138   3.069   0.828  18.500 -0.1262  0.0840  0.2127
 3648TIP3    H135139   3.057   0.865  18.412  1.0078 -1.5596 -0.7013
 3648TIP3    H235140   3.068   0.733  18.486  0.7889 -0.2057  1.8736
 3649TIP3   OH235141   4.965   1.173  16.940 -0.5151  0.0812 -0.2737
 3649TIP3    H135142   4.998   1.192  17.027 -2.4309 -1.3213  0.8333
 3649TIP3    H235143   5.036   1.199  16.881  0.7408  1.2664  1.6605
 3650TIP3   OH235144   6.382   5.238  19.143  0.2481 -0.2250 -0.2688
 3650TIP3    H135145   6.468   5.274  19.163 -0.4067  1.3087 -0.0332
 3650TIP3    H235146   6.376   5.241  19.048  0.3345 -0.0135 -0.2684
 3651TIP3   OH235147   2.836   5.647  17.117  0.4319  0.1200 -0.2263
 3651TIP3    H135148   2.791   5.650  17.032 -0.5610  0.5201  0.3075
 3651TIP3    H235149   2.788   5.707  17.173  0.3952 -0.9695  0.9609
 3652TIP3   OH235150   2.006   1.074  19.172 -0.8077  0.1761 -0.5231
 3652TIP3    H135151   1.964   1.159  19.182  1.9358  1.8029 -1.8318
 3652TIP3    H235152   2.038   1.072  19.082 -1.5370 -2.6618 -0.8219
 3653TIP3   OH235153   3.132   6.480  17.082 -0.4246 -0.0025 -0.3008
 3653TIP3    H135154   3.194   6.437  17.141 -0.3217  0.1915 -0.2668
 3653TIP3    H235155   3.160   6.454  16.995 -0.4068 -0.0643 -0.2770
 3654TIP3   OH235156   6.013   0.228  19.026 -0.0821  0.2036  0.1913
 3654TIP3    H135157   6.059   0.281  19.091  0.1438  0.2562 -0.0102
 3654TIP3    H235158   6.083   0.188  18.975 -0.2196 -1.2701  1.1057
 3655TIP3   OH235159   1.162   4.680  18.613 -0.1819 -0.0427  0.4941
 3655TIP3    H135160   1.248   4.720  18.599 -1.6245  3.6626  0.9919
 3655TIP3    H235161   1.174   4.622  18.688  2.1587 -0.7654 -0.3555
 3656TIP3   OH235162   2.113   3.178  17.785  0.0056  0.0439 -0.0417
 3656TIP3    H135163   2.040   3.222  17.742 -0.2672 -1.4874 -1.2246
 3656TIP3    H235164   2.191   3.216  17.744 -0.1235  0.9946  0.5503
 3657TIP3   OH235165   0.472   5.316  19.543 -0.4476 -0.5053 -0.1917
 3657TIP3    H135166   0.539   5.268  19.494 -0.9839 -2.0373  0.5007
 3657TIP3    H235167   0.463   5.398  19.496  0.9059 -0.8410 -1.1246
 3658TIP3   OH235168   5.426   6.559  17.392 -0.2900 -0.2295  0.5226
 3658TIP3    H135169   5.375   6.547  17.472 -1.0910  0.1616  0.0807
 3658TIP3    H235170   5.364   6.596  17.329  0.8060  1.3575  0.3063
 3659TIP3   OH235171   0.655   2.116  17.400  0.0715  0.5207 -0.4871
 3659TIP3    H135172   0.707   2.056  17.453  0.7633 -0.1097 -1.8298
 3659TIP3    H235173   0.714   2.145  17.331 -1.1977  0.1498 -1.7958
 3660TIP3   OH235174   1.598   1.917  18.145 -0.2407 -0.3014 -0.4120
 3660TIP3    H135175   1.621   1.868  18.223 -1.1632 -0.6931 -0.3733
 3660TIP3    H235176   1.669   1.899  18.083  0.6564  0.2691  0.4322
 3661TIP3   OH235177   5.282   4.137  19.670  0.0339 -0.2193  0.4525
 3661TIP3    H135178   5.203   4.178  19.704  0.4176  1.5373 -0.6228
 3661TIP3    H235179   5.347   4.208  19.669  1.9243 -1.7889  2.0945
 3662TIP3   OH235180   6.676   5.006  17.887 -0.2866 -0.3741 -0.0010
 3662TIP3    H135181   6.689   5.023  17.980 -2.7649 -0.4758  0.4319
 3662TIP3    H235182   6.670   4.911  17.881  0.0365 -0.3763 -0.2955
 3663TIP3   OH235183   3.992   1.391  17.506 -0.0960 -0.0901  0.3474
 3663TIP3    H135184   4.058   1.322  17.494 -0.6683 -0.5161 -0.4462
 3663TIP3    H235185   3.978   1.427  17.418 -0.2561  0.6253  0.6569
 3664TIP3   OH235186   0.725   3.812  18.629  0.2147 -0.3950  0.4624
 3664TIP3    H135187   0.808   3.826  18.674  0.2980  0.6864  0.0186
 3664TIP3    H235188   0.660   3.805  18.699  0.3264  1.3701  0.7915
 3665TIP3   OH235189   7.516   0.015  17.840  0.1075  0.2565  0.2283
 3665TIP3    H135190   7.546   0.087  17.784  1.1892 -1.0895 -1.0087
 3665TIP3    H235191   7.597  -0.032  17.863 -0.6137 -0.7724  0.7306
 3666TIP3   OH235192   0.800   0.190  17.600 -0.6330 -0.1920  0.7574
 3666TIP3    H135193   0.799   0.125  17.530 -1.8190  0.4422  0.1667
 3666TIP3    H235194   0.888   0.183  17.638  0.1076 -0.4176 -0.9171
 3667TIP3   OH235195   7.388   4.703  17.446  0.4427 -0.2422  0.7150
 3667TIP3    H135196   7.394   4.775  17.508 -0.2950 -0.3627  0.9393
 3667TIP3    H235197   7.393   4.624  17.500  0.4703 -0.3547  0.5488
 3668TIP3   OH235198   4.393   1.232  18.068  0.3564  0.1144 -0.0190
 3668TIP3    H135199   4.323   1.288  18.033 -0.5785 -0.9017  0.1852
 3668TIP3    H235200   4.349   1.152  18.095  2.0024 -2.0593 -3.1164
 3669TIP3   OH235201   1.508   4.714  19.072 -0.0076 -0.1517 -0.1822
 3669TIP3    H135202   1.419   4.686  19.092  0.1656 -0.4738  0.1532
 3669TIP3    H235203   1.517   4.699  18.978 -0.7432  1.1359 -0.4752
 3670TIP3   OH235204   3.149   1.723  18.640 -0.4719  0.2154 -0.5109
 3670TIP3    H135205   3.100   1.734  18.721 -0.3887 -1.6845 -0.1554
 3670TIP3    H235206   3.139   1.631  18.618  1.7756  0.0704 -1.1905
 3671TIP3   OH235207   1.135   6.730  18.929 -0.3979 -0.2384 -0.0011
 3671TIP3    H135208   1.169   6.683  18.853  0.1278  0.0487  0.0517
 3671TIP3    H235209   1.213   6.755  18.978 -0.7151 -0.0432  0.4060
 3672TIP3   OH235210   3.687   4.339  19.055 -0.6098 -0.2956  0.1940
 3672TIP3    H135211   3.621   4.337  18.986 -1.0183 -0.4730  0.5833
 3672TIP3    H235212   3.708   4.432  19.065 -0.1972 -0.3153 -0.4986
 3673TIP3   OH235213   0.975   0.648  17.924  0.5897  0.3571  0.3767
 3673TIP3    H135214   1.070   0.658  17.923  0.7925 -1.1860  1.0191
 3673TIP3    H235215   0.948   0.664  17.834  1.5936 -0.2929 -0.0541
 3674TIP3   OH235216   6.191   3.445  19.270  0.0852 -0.1346 -0.1005
 3674TIP3    H135217   6.168   3.507  19.340  0.1973  0.0181 -0.2009
 3674TIP3    H235218   6.238   3.375  19.315  0.4989  0.1542 -0.0817
 3675TIP3   OH235219   2.071   2.672  18.185 -0.4214  0.1523 -0.3085
 3675TIP3    H135220   2.047   2.764  18.177  0.1447  0.3623  0.3481
 3675TIP3    H235221   2.077   2.641  18.094 -0.2432  0.8581 -0.5425
 3676TIP3   OH235222   1.172   0.615  17.568 -0.2458  0.4683  0.3956
 3676TIP3    H135223   1.081   0.589  17.558 -0.8065  2.5967 -0.6314
 3676TIP3    H235224   1.185   0.624  17.662 -1.4138  1.0720  0.5232
 3677TIP3   OH235225   4.911   6.980  19.230 -0.2520  0.3857 -0.5388
 3677TIP3    H135226   4.867   7.036  19.166  1.2742  1.6241 -0.5561
 3677TIP3    H235227   4.860   6.991  19.310 -1.0503  0.3447 -1.0325
 3678TIP3   OH235228   3.715   1.741  17.216  0.3035  0.0318  1.5557
 3678TIP3    H135229   3.775   1.813  17.198  0.9182 -1.0486 -1.1512
 3678TIP3    H235230   3.659   1.774  17.287  0.1020  3.4348 -0.0061
 3679TIP3   OH235231   1.982   7.317  18.874 -0.0211 -0.4208  0.8849
 3679TIP3    H135232   2.022   7.270  18.801  0.9398  1.0894  0.3806
 3679TIP3    H235233   2.057   7.355  18.921 -0.7807  1.4796  0.6275
 3680TIP3   OH235234   6.185   7.594  18.424 -0.1072 -0.3942 -0.6297
 3680TIP3    H135235   6.206   7.668  18.481 -0.2127 -1.2838  0.6101
 3680TIP3    H235236   6.265   7.579  18.374 -0.1643  0.6991 -1.0847
 3681TIP3   OH235237   5.297   3.540  19.896  0.5292  0.3981 -0.1014
 3681TIP3    H135238   5.255   3.457  19.916 -0.9500  1.0393 -0.4378
 3681TIP3    H235239   5.378   3.539  19.948  0.3220 -1.0509  0.2201
 3682TIP3   OH235240   4.604   0.588  19.359  0.5834  0.2955  0.4121
 3682TIP3    H135241   4.597   0.543  19.443  1.7878  2.0062  1.4993
 3682TIP3    H235242   4.689   0.563  19.324 -0.5573 -1.6588 -1.1286
 3683TIP3   OH235243   3.993   1.575  17.927 -0.4080  0.3643  0.0232
 3683TIP3    H135244   3.949   1.616  17.853  0.6483  0.1899 -0.7316
 3683TIP3    H235245   4.043   1.646  17.968  0.2642  0.1530 -0.4049
 3684TIP3   OH235246   4.440   0.861  17.294 -0.1443  0.2272 -0.0411
 3684TIP3    H135247   4.345   0.869  17.285 -0.5417 -1.0880  2.2813
 3684TIP3    H235248   4.465   0.794  17.231 -0.6537  0.9062 -0.9973
 3685TIP3   OH235249   2.044   6.118  16.931  0.7139  0.4186 -0.3971
 3685TIP3    H135250   1.997   6.095  16.851 -1.0960 -0.0256  0.7415
 3685TIP3    H235251   2.010   6.204  16.955 -0.3407 -0.3571  1.0008
 3686TIP3   OH235252   5.362   6.735  18.984 -0.1138 -0.7949 -0.1454
 3686TIP3    H135253   5.288   6.778  19.026  1.3389  2.6706 -0.7759
 3686TIP3    H235254   5.439   6.781  19.017  1.5448 -2.2054 -1.8064
 3687TIP3   OH235255   7.418   0.107  19.217  0.6782  0.0772 -0.5110
 3687TIP3    H135256   7.429   0.101  19.122  0.4540  0.7173 -0.5801
 3687TIP3    H235257   7.422   0.201  19.236 -1.1645  0.1040 -0.1153
 3688TIP3   OH235258   2.243   5.546  16.577  0.7374 -0.1411  0.4788
 3688TIP3    H135259   2.285   5.494  16.645 -1.9850 -3.4647 -0.0954
 3688TIP3    H235260   2.208   5.622  16.623  3.2081  0.3150  1.7512
 3689TIP3   OH235261   5.011   4.254  19.708  0.7389  0.1900 -0.0911
 3689TIP3    H135262   4.924   4.277  19.740  1.3898  1.5986  0.8033
 3689TIP3    H235263   5.008   4.272  19.614 -0.0154 -0.0528 -0.1153
 3690TIP3   OH235264   0.285   5.844  19.020 -0.3131 -0.2251  0.1131
 3690TIP3    H135265   0.204   5.833  18.970 -0.1918  2.8117 -0.9806
 3690TIP3    H235266   0.272   5.925  19.069  2.0468  0.3628 -0.1126
 3691TIP3   OH235267   6.861   0.910  18.497  0.0160 -0.3098 -0.9204
 3691TIP3    H135268   6.851   0.989  18.550  0.1003 -0.9446  0.0795
 3691TIP3    H235269   6.831   0.840  18.555 -2.6849 -0.7633 -2.6914
 3692TIP3   OH235270   6.765   3.791  18.143  0.1019  0.1020  0.0532
 3692TIP3    H135271   6.808   3.869  18.179  1.0816  0.0109 -0.8815
 3692TIP3    H235272   6.708   3.825  18.074 -1.8808  0.2914  1.6970
 3693TIP3   OH235273   3.783   5.696  17.548 -0.3572 -0.1186  0.5822
 3693TIP3    H135274   3.691   5.680  17.529 -0.1230  0.8516 -1.6697
 3693TIP3    H235275   3.818   5.612  17.577 -1.7709 -0.6657  0.7234
 3694TIP3   OH235276   0.804   1.724  17.761 -0.6502  0.7110  0.2759
 3694TIP3    H135277   0.837   1.701  17.674 -0.3033  0.7336  0.3999
 3694TIP3    H235278   0.824   1.647  17.815  1.1248  1.5320  0.8563
 3695TIP3   OH235279   2.713   1.333  18.418 -0.4307  0.3620  0.1125
 3695TIP3    H135280   2.742   1.300  18.333 -0.3367 -0.2483  0.3811
 3695TIP3    H235281   2.667   1.259  18.458 -0.8038  0.7642  0.4373
 3696TIP3   OH235282   2.903   2.817  17.313  0.2929 -0.1747 -0.0460
 3696TIP3    H135283   2.820   2.781  17.281 -1.0666  1.3339  1.5690
 3696TIP3    H235284   2.879   2.869  17.390  2.3219  2.5845 -1.0967
 3697TIP3   OH235285   2.364   3.158  18.206  0.0508  0.2885 -0.0584
 3697TIP3    H135286   2.309   3.159  18.284  1.1873  0.1187  0.7536
 3697TIP3    H235287   2.447   3.195  18.233  0.5511  0.0084 -1.1283
 3698TIP3   OH235288   6.358   2.237  17.880  0.2077  0.1597  0.0763
 3698TIP3    H135289   6.413   2.298  17.833 -1.3922  1.8644  0.2986
 3698TIP3    H235290   6.385   2.246  17.972  1.1462 -0.8070 -0.0780
 3699TIP3   OH235291   1.377   4.574  17.837  0.1152  0.1728  0.4589
 3699TIP3    H135292   1.409   4.648  17.786 -1.0371  0.5276  0.2212
 3699TIP3    H235293   1.309   4.611  17.893 -1.2330 -0.8719 -0.4226
 3700TIP3   OH235294   3.655   3.403  18.389  0.0411  0.3959  0.0462
 3700TIP3    H135295   3.678   3.488  18.353  0.0721  0.7309  0.8305
 3700TIP3    H235296   3.561   3.406  18.403 -0.2391 -0.3209 -1.4767
 3701TIP3   OH235297   1.178   7.538  16.291 -0.0527 -0.1739  1.1750
 3701TIP3    H135298   1.178   7.567  16.199 -1.1880  0.1543  1.2578
 3701TIP3    H235299   1.227   7.456  16.290 -0.3674 -0.3688  0.1965
 3702TIP3   OH235300   3.677   6.067  17.769  0.0407 -1.1069 -0.2778
 3702TIP3    H135301   3.742   6.042  17.704  0.6473 -2.3225  0.7622
 3702TIP3    H235302   3.679   5.997  17.834  0.3283  0.6397  1.7133
 3703TIP3   OH235303   0.836   5.259  17.628 -0.0524 -0.5864  0.0355
 3703TIP3    H135304   0.926   5.277  17.601  0.8164 -1.6723  1.9619
 3703TIP3    H235305   0.795   5.345  17.636  0.6069 -0.1106 -1.4325
 3704TIP3   OH235306   6.534   7.113  19.253 -0.1176 -0.5142  0.5816
 3704TIP3    H135307   6.479   7.039  19.278  1.8959 -1.9926  0.9164
 3704TIP3    H235308   6.474   7.177  19.215 -1.9284 -2.3155  0.2919
 3705TIP3   OH235309   7.564   4.392  18.924 -0.0496  0.1631  0.1459
 3705TIP3    H135310   7.649   4.433  18.937  0.0778 -0.1110  0.1654
 3705TIP3    H235311   7.582   4.298  18.922 -0.2188  0.1502 -0.8670
 3706TIP3   OH235312   4.189   2.888  18.296  0.5970  0.2802 -0.0141
 3706TIP3    H135313   4.246   2.923  18.228  1.3502 -0.5593  0.1608
 3706TIP3    H235314   4.140   2.817  18.253  0.7803  0.0158  0.2077
 3707TIP3   OH235315   4.096   1.751  18.927 -0.5348  0.4606 -0.2375
 3707TIP3    H135316   4.055   1.826  18.885  0.8592  0.6281 -1.3627
 3707TIP3    H235317   4.023   1.692  18.948 -1.4829  1.4314 -0.7596
 3708TIP3   OH235318   2.077   5.411  17.879 -0.1865 -0.1716 -0.4615
 3708TIP3    H135319   1.987   5.442  17.887  0.4855  1.8051 -0.0295
 3708TIP3    H235320   2.104   5.392  17.970 -0.1122 -0.5579 -0.5639
 3709TIP3   OH235321   6.248   1.868  18.989 -0.7157  0.5481  0.3166
 3709TIP3    H135322   6.206   1.787  19.019  0.1571  0.6809  1.9995
 3709TIP3    H235323   6.210   1.936  19.043  0.9421  0.8003  1.2289
 3710TIP3   OH235324   3.570   3.591  18.933 -0.4335  0.2992 -0.2223
 3710TIP3    H135325   3.607   3.679  18.933  0.8342 -0.2045  0.4963
 3710TIP3    H235326   3.599   3.553  18.850 -0.5438  0.3760 -0.2980
 3711TIP3   OH235327   6.837   2.285  19.140 -0.9198 -0.6708  0.3992
 3711TIP3    H135328   6.858   2.218  19.075 -0.2581  0.5480 -0.6904
 3711TIP3    H235329   6.746   2.307  19.123 -0.6675 -0.1504 -0.3353
 3712TIP3   OH235330   4.269   0.173  18.393  0.0867  0.1656 -0.1466
 3712TIP3    H135331   4.266   0.194  18.299  0.3175 -0.4045 -0.2838
 3712TIP3    H235332   4.355   0.133  18.406 -0.2539 -0.4807  0.1488
 3713TIP3   OH235333   5.855   3.574  18.918  0.5084  0.4789  0.0508
 3713TIP3    H135334   5.898   3.651  18.952 -1.1270  0.8522  1.4118
 3713TIP3    H235335   5.869   3.578  18.823  0.3854  2.4980  0.0811
 3714TIP3   OH235336   1.351   6.876  18.171 -0.2487 -0.3590 -0.3397
 3714TIP3    H135337   1.391   6.920  18.096 -1.3333  1.4155  0.0575
 3714TIP3    H235338   1.305   6.946  18.218 -2.0432 -1.9291  0.3658
 3715TIP3   OH235339   2.564   2.768  18.994 -0.3620  0.7057  0.3228
 3715TIP3    H135340   2.579   2.858  19.024 -1.2634  0.8092  0.4930
 3715TIP3    H235341   2.636   2.717  19.034  2.8229  1.9531 -3.2242
 3716TIP3   OH235342   0.980   5.671  19.060 -0.2649 -0.6735 -0.0411
 3716TIP3    H135343   0.928   5.722  19.122 -1.5334  0.5426 -1.9965
 3716TIP3    H235344   0.986   5.727  18.983  4.9987 -0.1854  0.3572
 3717TIP3   OH235345   6.366   5.628  19.257 -0.0334  0.2650 -0.0209
 3717TIP3    H135346   6.378   5.604  19.165  0.1965 -0.9525  0.3026
 3717TIP3    H235347   6.273   5.614  19.273 -0.1840  1.0147 -0.2009
 3718TIP3   OH235348   6.638   1.803  19.696 -0.0606 -0.2993  0.0564
 3718TIP3    H135349   6.614   1.878  19.751  0.1429  0.2971 -0.6586
 3718TIP3    H235350   6.560   1.784  19.645 -0.0741 -0.5104  0.1518
 3719TIP3   OH235351   2.696   3.630  18.739 -0.3553  0.3068  1.0703
 3719TIP3    H135352   2.765   3.696  18.750 -0.3575  0.0820  2.6149
 3719TIP3    H235353   2.614   3.678  18.749 -0.4033  0.3800  0.3530
 3720TIP3   OH235354   0.186   4.768  19.246  0.5635 -0.3297  0.0584
 3720TIP3    H135355   0.193   4.815  19.329 -1.4463 -1.8942  1.2136
 3720TIP3    H235356   0.093   4.749  19.236  0.7007 -0.0112 -2.7283
 3721TIP3   OH235357   5.524   4.656  18.090 -0.0655  0.2405  0.0780
 3721TIP3    H135358   5.607   4.612  18.111  0.2928  1.7441  2.2174
 3721TIP3    H235359   5.471   4.589  18.050  1.4126 -1.4015  0.7136
 3722TIP3   OH235360   1.065   4.748  16.870 -0.3551 -0.0069  0.0632
 3722TIP3    H135361   1.112   4.664  16.869 -0.5002 -0.0899  0.2341
 3722TIP3    H235362   0.977   4.727  16.900 -0.2839  0.2603  0.4841
 3723TIP3   OH235363   4.178   4.721  18.494  0.4879  0.1949  0.5020
 3723TIP3    H135364   4.148   4.740  18.583 -1.8638 -0.1502 -0.1431
 3723TIP3    H235365   4.112   4.661  18.459  2.4777 -1.3551 -0.8014
 3724TIP3   OH235366   6.012   7.335  18.778 -0.5879  0.3084  0.5856
 3724TIP3    H135367   6.094   7.383  18.790 -0.7028  0.9480 -0.9620
 3724TIP3    H235368   6.037   7.255  18.734 -0.7433  0.3350  0.4461
 3725TIP3   OH235369   2.239   2.279  17.852  0.0167  0.0762 -0.8306
 3725TIP3    H135370   2.253   2.188  17.880 -1.8071  0.4449  1.6675
 3725TIP3    H235371   2.260   2.330  17.930  1.8548  1.9587 -2.4386
 3726TIP3   OH235372   2.014   2.821  17.456  0.5213  0.1540  0.5900
 3726TIP3    H135373   1.985   2.799  17.544  1.1412  0.0884  0.7847
 3726TIP3    H235374   2.098   2.866  17.468  2.2509 -2.6463 -0.0750
 3727TIP3   OH235375   2.595   3.011  17.857  0.6069 -0.1858  0.7161
 3727TIP3    H135376   2.605   2.968  17.942 -1.9546  0.0517  1.2220
 3727TIP3    H235377   2.517   2.970  17.819  2.2291 -1.0132 -2.0339
 3728TIP3   OH235378   5.001   3.268  16.655  0.1195  0.3494 -0.7343
 3728TIP3    H135379   4.999   3.245  16.748  0.0260 -0.8656 -1.0213
 3728TIP3    H235380   5.092   3.255  16.629  0.8326  3.4133 -0.2118
 3729TIP3   OH235381   4.530   0.088  18.432  0.5708 -0.0384  0.4461
 3729TIP3    H135382   4.499   0.017  18.375 -1.3398  0.4560  0.7953
 3729TIP3    H235383   4.492   0.068  18.517  1.3603  0.5585  0.9573
 3730TIP3   OH235384   0.461   4.733  18.750  0.1814  0.6318  0.3454
 3730TIP3    H135385   0.532   4.786  18.786  1.3956 -0.1359 -0.8103
 3730TIP3    H235386   0.453   4.659  18.810  1.6307 -0.2110 -0.4295
 3731TIP3   OH235387   4.546   7.309  18.897  0.5589 -0.2041  0.0769
 3731TIP3    H135388   4.539   7.399  18.866 -1.2070 -0.4413 -0.3162
 3731TIP3    H235389   4.603   7.265  18.834  1.2548  0.5687  0.1549
 3732TIP3   OH235390   7.614   7.402  18.019  0.0847 -0.3911 -0.0445
 3732TIP3    H135391   7.630   7.377  18.110 -1.4833  0.1466  0.4148
 3732TIP3    H235392   7.662   7.484  18.008  1.2767 -1.0701 -0.0978
 3733TIP3   OH235393   7.072   5.126  18.941  1.0239  0.0427 -0.1888
 3733TIP3    H135394   7.040   5.093  18.857  0.3747  0.6821 -0.2033
 3733TIP3    H235395   7.078   5.049  18.997  1.0247 -0.3213 -0.6912
 3734TIP3   OH235396   6.772   6.781  18.854  0.0813  0.5790 -0.4770
 3734TIP3    H135397   6.747   6.809  18.766  0.7099  1.6809 -0.3181
 3734TIP3    H235398   6.831   6.707  18.839  0.9945  1.4029 -1.0322
 3735TIP3   OH235399   3.356   6.715  17.188 -0.1780 -0.3626 -0.3223
 3735TIP3    H135400   3.316   6.739  17.104  0.8356  0.7333 -0.5295
 3735TIP3    H235401   3.449   6.702  17.167  0.3618  1.2502  0.8159
 3736TIP3   OH235402   2.931   4.174  19.107 -0.1732  0.5694 -0.0609
 3736TIP3    H135403   2.998   4.106  19.115 -1.8711 -0.9917  2.3957
 3736TIP3    H235404   2.968   4.249  19.153  0.4178  0.1964  0.0941
 3737TIP3   OH235405   4.983   5.556  18.209 -1.3879  0.3997 -0.6281
 3737TIP3    H135406   4.922   5.482  18.212 -0.0731 -0.6929  1.4513
 3737TIP3    H235407   4.962   5.607  18.287 -0.3265  0.5619 -0.4370
 3738TIP3   OH235408   1.840   5.283  19.364  0.2098  0.1452 -0.5765
 3738TIP3    H135409   1.861   5.346  19.296 -1.1802  0.4700 -0.7477
 3738TIP3    H235410   1.760   5.317  19.405  1.3745  0.3415  1.7046
 3739TIP3   OH235411   5.244   6.139  18.841 -0.0719 -0.5761 -0.2313
 3739TIP3    H135412   5.293   6.059  18.857  0.2494 -0.4858 -0.7472
 3739TIP3    H235413   5.309   6.209  18.850 -0.5694 -0.2668  1.3513
 3740TIP3   OH235414   2.815   5.010  18.676 -0.0602 -0.6232 -0.1573
 3740TIP3    H135415   2.728   5.035  18.707  0.6379  0.8184  0.7864
 3740TIP3    H235416   2.814   5.028  18.582 -0.6124 -0.0844 -0.0546
 3741TIP3   OH235417   2.721   6.816  17.826  0.5075  0.1768  0.6310
 3741TIP3    H135418   2.787   6.780  17.767  0.0994 -1.4797  1.1457
 3741TIP3    H235419   2.667   6.871  17.769  0.8104 -0.4716 -0.3200
 3742TIP3   OH235420   5.638   1.881  18.825  0.0605  0.2830 -0.4769
 3742TIP3    H135421   5.706   1.841  18.770  2.2107  0.0148  2.1470
 3742TIP3    H235422   5.556   1.844  18.791  1.5730 -3.1428 -0.9108
 3743TIP3   OH235423   1.783   4.590  18.617  0.4827  0.4118 -0.0428
 3743TIP3    H135424   1.738   4.671  18.640  1.3998  1.2345 -1.0713
 3743TIP3    H235425   1.771   4.581  18.523 -1.8943 -2.1054  0.3568
 3744TIP3   OH235426   4.484   3.325  18.005 -0.1724 -0.2512 -0.1332
 3744TIP3    H135427   4.390   3.344  18.009 -0.4141 -1.3898 -0.0032
 3744TIP3    H235428   4.490   3.230  18.016  0.9553 -0.2773 -0.7866
 3745TIP3   OH235429   5.314   3.857  19.631 -0.3300  0.0778  0.2601
 3745TIP3    H135430   5.266   3.866  19.549 -1.0219 -1.2456  0.4857
 3745TIP3    H235431   5.302   3.941  19.675  1.0454  1.2571 -1.4703
 3746TIP3   OH235432   1.308   7.608  18.864  0.0637 -0.0736 -0.4669
 3746TIP3    H135433   1.266   7.601  18.950 -0.7422  0.2536 -0.8259
 3746TIP3    H235434   1.396   7.572  18.878  0.3546  1.0314  0.7780
 3747TIP3   OH235435   1.418   4.479  18.545 -0.4327 -0.3810 -0.1488
 3747TIP3    H135436   1.325   4.458  18.534 -0.6912 -1.3572  2.9842
 3747TIP3    H235437   1.428   4.564  18.502 -3.3833  0.9088  1.3919
 3748TIP3   OH235438   1.669   0.320  19.369  0.3923 -0.1898  0.1547
 3748TIP3    H135439   1.591   0.353  19.324  0.0930  1.5376  1.8392
 3748TIP3    H235440   1.635   0.259  19.434  0.1819  1.8594  2.0815
 3749TIP3   OH235441   0.035   3.012  19.060 -0.2737  0.2358 -0.3449
 3749TIP3    H135442   0.130   3.009  19.074 -0.2264  0.5977 -0.5697
 3749TIP3    H235443   0.025   2.993  18.966 -0.3063  1.8181 -0.6871
 3750TIP3   OH235444   4.496   7.641  17.010 -0.1559  0.1678 -0.2989
 3750TIP3    H135445   4.591   7.633  17.025  0.3573  1.1339 -2.5883
 3750TIP3    H235446   4.474   7.727  17.046  0.3326  0.9195 -1.7179
 3751TIP3   OH235447   2.540   7.183  19.316 -0.0697  0.3001  0.8029
 3751TIP3    H135448   2.536   7.159  19.224 -0.7560  1.1738  0.5870
 3751TIP3    H235449   2.632   7.175  19.340  0.0681 -0.1841  0.1185
 3752TIP3   OH235450   0.784   4.502  19.303 -0.1910  0.5066 -0.3510
 3752TIP3    H135451   0.857   4.454  19.342  0.7405  1.6405 -0.6445
 3752TIP3    H235452   0.708   4.445  19.316  0.9211 -1.2022 -0.9777
 3753TIP3   OH235453   0.894   3.509  18.052  0.0420  0.0313  0.1184
 3753TIP3    H135454   0.803   3.515  18.024  0.4504 -0.1279 -1.3711
 3753TIP3    H235455   0.890   3.505  18.147 -1.4669  0.5994  0.1108
 3754TIP3   OH235456   3.918   1.737  16.990  0.2165  0.0143  0.1304
 3754TIP3    H135457   3.863   1.807  16.953  0.7844  1.2388  1.5034
 3754TIP3    H235458   3.952   1.691  16.914 -1.8503 -0.1296 -0.7952
 3755TIP3   OH235459   5.447   5.588  17.648 -0.4299  0.4592  0.5934
 3755TIP3    H135460   5.528   5.541  17.667 -0.1334  0.0801 -1.4364
 3755TIP3    H235461   5.399   5.531  17.588 -1.6733  1.2062  0.8440
 3756TIP3   OH235462   6.091   2.349  19.273 -0.3521 -0.6572 -0.3810
 3756TIP3    H135463   6.156   2.345  19.343  0.0303 -1.5301 -0.7615
 3756TIP3    H235464   6.116   2.425  19.221 -2.5459  2.0686  2.1771
 3757TIP3   OH235465   6.719   1.347  16.919  0.6223  0.2397 -0.2392
 3757TIP3    H135466   6.767   1.427  16.901 -1.7415  1.9952  0.7663
 3757TIP3    H235467   6.650   1.345  16.852  0.5452 -0.8983 -0.1503
 3758TIP3   OH235468   3.948   4.806  19.104 -0.2813 -0.0688  0.1869
 3758TIP3    H135469   4.042   4.815  19.091 -0.3474 -0.4416 -0.5842
 3758TIP3    H235470   3.912   4.893  19.083 -0.2032 -0.1797 -0.4061
 3759TIP3   OH235471   6.110   0.417  17.490 -0.0232 -0.9540  0.4730
 3759TIP3    H135472   6.200   0.399  17.463 -0.4183 -1.5305 -0.5113
 3759TIP3    H235473   6.112   0.411  17.585  1.5209  1.6240  0.6826
 3760TIP3   OH235474   2.789   5.956  19.061 -0.0790 -0.3951 -0.1923
 3760TIP3    H135475   2.702   5.948  19.099  0.1903  1.1169  0.7950
 3760TIP3    H235476   2.838   6.011  19.122  0.8932  0.6730 -1.8637
 3761TIP3   OH235477   1.321   3.378  17.933 -0.3691  0.2169  0.2375
 3761TIP3    H135478   1.286   3.402  17.847 -1.5813 -1.3243  0.2503
 3761TIP3    H235479   1.415   3.366  17.919 -0.4736  0.5016 -0.7514
 3762TIP3   OH235480   5.074   6.681  16.651 -0.1660 -0.0752 -0.6731
 3762TIP3    H135481   5.017   6.717  16.583  0.7849  1.2594 -0.8009
 3762TIP3    H235482   5.079   6.750  16.717  1.3485 -0.1231 -0.7043
 3763TIP3   OH235483   3.321   0.048  18.171  0.2789  0.3950  0.1925
 3763TIP3    H135484   3.324   0.142  18.157  0.4710  0.2910 -0.4622
 3763TIP3    H235485   3.252   0.036  18.236  0.6673  1.0388  0.7354
 3764TIP3   OH235486   6.718   5.785  18.560 -0.1773  0.0662 -0.0376
 3764TIP3    H135487   6.711   5.695  18.592 -0.4559 -0.2533 -0.9679
 3764TIP3    H235488   6.628   5.818  18.560 -0.3817 -0.4208 -1.8110
 3765TIP3   OH235489   4.223   4.713  17.548 -0.4710  0.8850 -0.4450
 3765TIP3    H135490   4.221   4.736  17.455  0.1369  3.2098  0.0602
 3765TIP3    H235491   4.197   4.793  17.594 -2.1111 -0.5861  1.3744
 3766TIP3   OH235492   3.390   6.287  18.995  0.0567  0.0207  0.2292
 3766TIP3    H135493   3.353   6.354  19.052  1.6047  1.1981 -0.0807
 3766TIP3    H235494   3.409   6.333  18.913  2.7296 -0.3121  0.5702
 3767TIP3   OH235495   6.758   4.864  18.725 -0.2715 -0.1532  0.5640
 3767TIP3    H135496   6.725   4.817  18.648 -2.6087 -0.0539  1.4069
 3767TIP3    H235497   6.818   4.802  18.767  0.5534 -0.4368 -0.9660
 3768TIP3   OH235498   6.064   6.494  17.239 -0.0143 -0.1782 -0.1381
 3768TIP3    H135499   6.005   6.440  17.186 -1.4346  2.1823 -1.1082
 3768TIP3    H235500   6.131   6.523  17.178  0.1870 -0.0635  0.1363
 3769TIP3   OH235501   4.032   0.155  18.504  0.1169  0.1501  0.0965
 3769TIP3    H135502   4.025   0.120  18.592 -0.5504 -0.8818 -0.3609
 3769TIP3    H235503   4.124   0.141  18.480 -0.3570 -2.3129 -0.4803
 3770TIP3   OH235504   2.393   5.959  17.829 -0.0762  0.3286  0.3539
 3770TIP3    H135505   2.326   5.902  17.868  0.0237  0.4749  0.7404
 3770TIP3    H235506   2.343   6.028  17.786 -0.1923  0.0641  0.0526
 3771TIP3   OH235507   6.920   4.952  19.567  0.3228  0.0169  0.4500
 3771TIP3    H135508   6.877   5.022  19.518  0.3492 -0.1003  0.2592
 3771TIP3    H235509   6.853   4.886  19.580  0.4300 -0.1433  0.1953
 3772TIP3   OH235510   3.768   6.472  18.234  0.0383 -0.2908 -0.3225
 3772TIP3    H135511   3.846   6.479  18.179  0.0407  0.0354 -0.2816
 3772TIP3    H235512   3.729   6.559  18.231 -0.2367 -0.4094 -0.2105
 3773TIP3   OH235513   1.667   2.258  17.583 -0.4360  0.6892  0.3420
 3773TIP3    H135514   1.677   2.163  17.582  0.0891  0.7315  0.7143
 3773TIP3    H235515   1.746   2.290  17.539 -1.4444  0.9119 -1.3985
 3774TIP3   OH235516   2.494   7.420  19.461 -0.0460  0.1638 -0.5552
 3774TIP3    H135517   2.497   7.344  19.402 -1.2109 -3.0186  3.0630
 3774TIP3    H235518   2.585   7.437  19.483  0.1848 -1.6842  0.1487
 3775TIP3   OH235519   4.460   1.137  17.365 -0.1981  0.1525 -0.7753
 3775TIP3    H135520   4.446   1.044  17.384 -2.6805  0.6987  0.4983
 3775TIP3    H235521   4.525   1.164  17.429 -1.0428 -0.2796  0.3059
 3776TIP3   OH235522   0.652   6.193  18.536  0.0571 -0.7827 -0.1616
 3776TIP3    H135523   0.700   6.195  18.618 -0.5039  0.4713  0.1620
 3776TIP3    H235524   0.564   6.161  18.559 -0.1850 -0.1693 -0.2171
 3777TIP3   OH235525   0.331   0.480  17.664  0.0465 -0.1792  0.4407
 3777TIP3    H135526   0.366   0.396  17.694 -0.1437 -0.6712 -0.6557
 3777TIP3    H235527   0.302   0.524  17.744  0.3995 -1.0421  1.0608
 3778TIP3   OH235528   2.334   2.040  17.306  0.0131  0.4589 -0.0774
 3778TIP3    H135529   2.260   2.100  17.302 -1.2608 -1.1147 -1.1290
 3778TIP3    H235530   2.357   2.024  17.215  0.3199 -0.6662  0.1896
 3779TIP3   OH235531   2.374   1.168  18.205 -0.3992 -0.0976 -0.0873
 3779TIP3    H135532   2.342   1.231  18.270  1.4229  0.5943  0.2102
 3779TIP3    H235533   2.420   1.222  18.141 -0.1983 -0.9958 -0.7188
 3780TIP3   OH235534   5.568   4.990  19.292 -0.2622 -0.9185 -0.5202
 3780TIP3    H135535   5.601   4.937  19.220 -2.4700 -0.1543 -2.2171
 3780TIP3    H235536   5.589   4.940  19.370  0.6604 -2.6496 -1.8052
 3781TIP3   OH235537   0.605   1.066  18.015  0.0590 -0.9071  0.0932
 3781TIP3    H135538   0.529   1.015  18.043  0.3545 -0.9709  0.7847
 3781TIP3    H235539   0.581   1.098  17.928 -0.0603 -2.3768 -0.4479
 3782TIP3   OH235540   0.034   5.832  17.075 -0.6587  0.2503 -0.0581
 3782TIP3    H135541  -0.032   5.781  17.123  0.0648 -0.7156 -0.0568
 3782TIP3    H235542   0.063   5.773  17.005  0.4397  0.5279  0.1440
 3783TIP3   OH235543   1.590   3.901  19.446  0.1791  1.0392  0.2755
 3783TIP3    H135544   1.637   3.960  19.505 -0.5394  2.9487 -0.9757
 3783TIP3    H235545   1.527   3.957  19.401 -1.6101 -0.9828  0.1067
 3784TIP3   OH235546   0.310   4.536  19.187  0.7393 -0.3120 -0.0401
 3784TIP3    H135547   0.315   4.627  19.216  1.4615 -0.3161 -0.1320
 3784TIP3    H235548   0.221   4.526  19.154  0.9069  0.6004 -0.8084
 3785TIP3   OH235549   6.303   2.409  18.305  0.1124 -0.6454  0.8074
 3785TIP3    H135550   6.270   2.499  18.304 -0.8916 -0.8785 -3.0226
 3785TIP3    H235551   6.311   2.387  18.398 -1.4427  2.7192  1.8825
 3786TIP3   OH235552   1.736   1.303  17.797 -0.0384 -0.6176 -0.3313
 3786TIP3    H135553   1.780   1.317  17.881  0.4227 -1.6180 -0.3882
 3786TIP3    H235554   1.656   1.256  17.819 -2.1008  2.7359 -0.0305
 3787TIP3   OH235555   6.759   3.731  18.688  0.5893 -0.2036  0.2616
 3787TIP3    H135556   6.820   3.758  18.619  1.7116  0.2049  1.3722
 3787TIP3    H235557   6.748   3.810  18.742 -0.3323 -0.4949  0.5102
 3788TIP3   OH235558   6.119   4.941  18.622 -0.4214  0.1191  0.1625
 3788TIP3    H135559   6.095   5.008  18.558 -1.0194 -0.2727 -0.0275
 3788TIP3    H235560   6.046   4.940  18.684 -0.4726 -0.4487  0.0898
 3789TIP3   OH235561   5.336   2.044  18.106  0.3860  0.8406 -0.2887
 3789TIP3    H135562   5.424   2.076  18.090  0.8260 -0.7015 -1.1479
 3789TIP3    H235563   5.291   2.056  18.022  0.6189 -0.8594 -0.6963
 3790TIP3   OH235564   5.554   1.808  17.736 -0.1527  0.4195 -0.5036
 3790TIP3    H135565   5.465   1.789  17.707 -0.4785  0.0120  0.7068
 3790TIP3    H235566   5.577   1.890  17.692 -0.9338  0.2619 -1.2168
 3791TIP3   OH235567   1.260   5.215  16.995 -0.2136  0.2133 -0.6333
 3791TIP3    H135568   1.274   5.207  16.901 -2.5259  0.5621 -1.0633
 3791TIP3    H235569   1.176   5.172  17.011 -0.0483  0.4893  1.2146
 3792TIP3   OH235570   0.728   3.037  17.749  0.0988 -0.0433  0.2822
 3792TIP3    H135571   0.746   2.982  17.672 -0.3601  0.5591 -0.2637
 3792TIP3    H235572   0.814   3.048  17.791  0.2202 -1.0848  0.3480
 3793TIP3   OH235573   5.707   7.374  17.519  0.5137  0.2859  0.9309
 3793TIP3    H135574   5.643   7.307  17.495  1.0938  0.1090 -0.1849
 3793TIP3    H235575   5.735   7.351  17.607  1.5156 -1.5979  0.1580
 3794TIP3   OH235576   7.071   4.113  18.372 -0.3557  0.0802 -0.2673
 3794TIP3    H135577   7.072   4.038  18.312 -1.9381  0.2755 -0.5767
 3794TIP3    H235578   6.982   4.116  18.405 -0.5848  2.3637 -0.9479
 3795TIP3   OH235579   0.638   4.432  18.478 -0.1601 -0.0826  0.1521
 3795TIP3    H135580   0.712   4.376  18.505  0.4610  1.1882  1.1740
 3795TIP3    H235581   0.564   4.400  18.529 -0.2905 -1.1726 -0.6607
 3796TIP3   OH235582   2.413   3.342  18.843 -0.2779  0.6381 -0.1316
 3796TIP3    H135583   2.355   3.266  18.843 -2.0226  1.8401  2.7078
 3796TIP3    H235584   2.384   3.394  18.767  0.1033 -0.8567 -1.3512
 3797TIP3   OH235585   2.259   4.288  17.885 -0.2866 -0.0608  0.6646
 3797TIP3    H135586   2.282   4.207  17.930 -0.6004 -0.2603  0.4711
 3797TIP3    H235587   2.227   4.346  17.954 -0.1780 -0.1437  0.7841
 3798TIP3   OH235588   5.225   4.136  19.394 -0.0241  0.3389  0.3619
 3798TIP3    H135589   5.319   4.143  19.377 -0.3269  0.5248 -1.4049
 3798TIP3    H235590   5.218   4.134  19.490  1.8326 -0.7318  0.5112
 3799TIP3   OH235591   7.482   7.008  16.729 -0.4571 -0.2104  0.8507
 3799TIP3    H135592   7.526   7.063  16.793  2.2618 -2.3505  1.0167
 3799TIP3    H235593   7.441   6.938  16.782 -0.5429 -0.4939  0.4176
 3800TIP3   OH235594   4.892   7.589  17.370  0.1275  0.2244  0.2461
 3800TIP3    H135595   4.875   7.497  17.390  1.4118 -0.6720 -2.2807
 3800TIP3    H235596   4.939   7.622  17.446 -0.8550 -1.0237  1.4491
 3801TIP3   OH235597   5.861   5.385  19.433  0.1716 -0.4114 -0.7181
 3801TIP3    H135598   5.907   5.435  19.366  0.8471 -1.3965 -1.0083
 3801TIP3    H235599   5.779   5.358  19.391 -0.2785  0.5854 -0.5019
 3802TIP3   OH235600   3.502   6.561  17.619 -0.4119  0.1225 -0.0447
 3802TIP3    H135601   3.516   6.477  17.575  0.0101 -0.5282  1.2797
 3802TIP3    H235602   3.416   6.590  17.589 -0.8519 -1.1136  0.0041
 3803TIP3   OH235603   1.757   6.408  17.307  0.1747  0.1255  0.3098
 3803TIP3    H135604   1.836   6.438  17.352  0.1129 -0.0374  0.5284
 3803TIP3    H235605   1.771   6.431  17.216  1.5151 -1.9489 -0.0823
 3804TIP3   OH235606   6.348   0.879  18.527 -0.1711 -0.2638  0.3672
 3804TIP3    H135607   6.439   0.864  18.500  0.0525 -1.5677  1.7229
 3804TIP3    H235608   6.301   0.889  18.445  1.1969  0.5197 -0.3696
 3805TIP3   OH235609   2.653   0.501  18.521 -0.2104 -0.1364  0.3285
 3805TIP3    H135610   2.592   0.467  18.586  0.2771 -1.0171  0.3432
 3805TIP3    H235611   2.700   0.423  18.490 -0.5370  0.2391 -1.1895
 3806TIP3   OH235612   4.166   5.499  18.912 -0.0550 -0.2008 -0.0924
 3806TIP3    H135613   4.242   5.441  18.908 -1.3745 -2.1065  0.7891
 3806TIP3    H235614   4.142   5.513  18.820 -0.6202 -2.4246 -0.3452
 3807TIP3   OH235615   1.992   2.614  18.713 -0.1996 -0.7551 -0.4476
 3807TIP3    H135616   2.063   2.651  18.764 -0.7067 -1.7342  1.0339
 3807TIP3    H235617   1.993   2.663  18.631  1.4101  0.0390  0.0172
 3808TIP3   OH235618   5.036   3.105  17.837 -0.1012 -0.0452  0.0462
 3808TIP3    H135619   5.062   3.151  17.757 -0.5341  0.0438 -0.0461
 3808TIP3    H235620   5.041   3.013  17.814  0.0063 -0.0252 -0.0101
 3809TIP3   OH235621   6.440   1.913  17.238 -0.0067 -0.4178  0.4133
 3809TIP3    H135622   6.490   1.910  17.157  0.7471  0.0529  0.8510
 3809TIP3    H235623   6.403   2.002  17.240 -1.5054 -1.0018 -0.2781
 3810TIP3   OH235624   6.135   2.999  18.056 -0.1705 -0.7874 -0.6601
 3810TIP3    H135625   6.111   2.913  18.092  0.5305 -0.6879  0.0767
 3810TIP3    H235626   6.119   3.060  18.128  1.8320 -0.6601 -0.2710
 3811TIP3   OH235627   4.143   5.364  17.162  0.3907 -0.0632 -0.1739
 3811TIP3    H135628   4.170   5.282  17.120  1.5514  0.1870  0.0676
 3811TIP3    H235629   4.220   5.420  17.159 -0.0559  0.6240  0.6615
 3812TIP3   OH235630   1.497   5.767  18.420  0.3346  0.1658 -0.0864
 3812TIP3    H135631   1.545   5.733  18.496  1.1040  1.1189 -0.1317
 3812TIP3    H235632   1.563   5.771  18.351 -0.4108 -0.9031 -0.8831
 3813TIP3   OH235633   4.220   4.794  19.008  0.3439  0.4080  0.0900
 3813TIP3    H135634   4.235   4.707  18.970 -0.5046  0.3908 -0.2418
 3813TIP3    H235635   4.235   4.855  18.935 -0.8087  0.4063 -0.1756
 3814TIP3   OH235636   0.639   1.241  17.161  0.1869  0.0261  0.2272
 3814TIP3    H135637   0.690   1.301  17.106 -3.3670  0.4275 -3.0603
 3814TIP3    H235638   0.652   1.155  17.122  1.2810 -0.5925  1.8252
 3815TIP3   OH235639   0.701   6.178  16.571 -0.3379  0.2492 -0.1572
 3815TIP3    H135640   0.654   6.201  16.652  0.5084 -0.0195  0.4210
 3815TIP3    H235641   0.683   6.085  16.559 -0.5673  0.3186 -0.3482
 3816TIP3   OH235642   4.494   4.359  19.114 -0.0640 -0.1582  0.2478
 3816TIP3    H135643   4.516   4.299  19.185 -0.6611 -0.8986 -0.1742
 3816TIP3    H235644   4.548   4.330  19.041 -0.8214 -0.6052 -0.1475
 3817TIP3   OH235645   6.483   0.035  18.355  0.1720  0.1404 -0.1663
 3817TIP3    H135646   6.490   0.095  18.430 -1.5249 -0.4987  0.5598
 3817TIP3    H235647   6.421   0.078  18.296  0.8368  0.2287 -0.8144
 3818TIP3   OH235648   1.774   5.753  17.241 -0.0432 -0.1973  0.3931
 3818TIP3    H135649   1.858   5.799  17.234 -0.8855  1.4238  0.3427
 3818TIP3    H235650   1.779   5.683  17.176  0.9560  0.4012 -0.1964
 3819TIP3   OH235651   4.139   1.379  17.796  0.5189  0.0171  0.5350
 3819TIP3    H135652   4.117   1.448  17.859  2.3442  0.8622  0.3039
 3819TIP3    H235653   4.125   1.419  17.710 -1.0508 -0.8303  0.3538
 3820TIP3   OH235654   6.629   7.194  17.757 -0.3378  0.4312  0.2838
 3820TIP3    H135655   6.567   7.195  17.831 -1.6440  0.1719 -0.7703
 3820TIP3    H235656   6.623   7.282  17.719 -0.1514  0.3640  0.0972
 3821TIP3   OH235657   4.397   2.150  18.970  0.3130 -0.4331 -0.2706
 3821TIP3    H135658   4.356   2.191  19.046  0.6619 -0.9029  0.1793
 3821TIP3    H235659   4.431   2.067  19.003  0.1802 -0.7927 -1.0207
 3822TIP3   OH235660   1.767   1.813  18.909  0.0160 -0.0706  0.2252
 3822TIP3    H135661   1.811   1.897  18.902  0.1940 -0.1982 -0.1733
 3822TIP3    H235662   1.683   1.833  18.950  1.0257 -0.0165  2.4106
 3823TIP3   OH235663   2.146   4.356  19.213  0.3304  0.7535  0.6570
 3823TIP3    H135664   2.189   4.308  19.284  0.1120 -0.1169  0.2143
 3823TIP3    H235665   2.152   4.297  19.138  0.0252  1.4144  0.1061
 3824TIP3   OH235666   2.171   6.062  18.771  0.3147 -0.0856  0.0560
 3824TIP3    H135667   2.194   6.035  18.682  1.4516  0.4447  0.1707
 3824TIP3    H235668   2.138   6.152  18.761 -1.4915 -0.7122 -0.0608
 3825TIP3   OH235669   0.845   2.871  19.341 -0.1867  0.0888  0.5022
 3825TIP3    H135670   0.916   2.833  19.392 -1.0229  0.0494  1.6746
 3825TIP3    H235671   0.877   2.870  19.251  0.4289 -1.9897  0.6920
 3826TIP3   OH235672   7.230   2.708  19.423 -0.2679  0.3168  0.4383
 3826TIP3    H135673   7.292   2.781  19.428  0.7280 -0.4423 -0.3327
 3826TIP3    H235674   7.283   2.631  19.443 -1.2499 -0.2287  0.9889
 3827TIP3   OH235675   3.369   4.598  19.453  0.2519  0.1216  0.0064
 3827TIP3    H135676   3.322   4.670  19.411  0.2939 -1.2241 -2.4993
 3827TIP3    H235677   3.347   4.607  19.546 -0.6964  2.6226 -0.3717
 3828TIP3   OH235678   3.198   7.537  18.524  0.0927 -0.2458 -0.6620
 3828TIP3    H135679   3.202   7.619  18.475 -1.3362  0.3640  0.1600
 3828TIP3    H235680   3.233   7.558  18.610 -1.0853 -0.2444 -0.1645
 3829TIP3   OH235681   3.115   1.013  17.532  0.2738 -0.3988 -0.3183
 3829TIP3    H135682   3.053   0.983  17.466  0.8904 -1.2589 -0.5195
 3829TIP3    H235683   3.175   1.070  17.483 -0.8801  1.2411  0.0583
 3830TIP3   OH235684   5.937   7.296  16.551 -0.3787  0.2970 -0.0070
 3830TIP3    H135685   5.874   7.359  16.517 -2.3769 -2.2538 -1.3641
 3830TIP3    H235686   5.902   7.210  16.526  1.9988 -1.4250  1.9983
 3831TIP3   OH235687   2.934   3.565  17.369 -0.1195  0.3882 -0.2660
 3831TIP3    H135688   2.900   3.629  17.432  1.5327  0.2406  0.8261
 3831TIP3    H235689   2.932   3.482  17.416  0.7229  0.2020 -0.5436
 3832TIP3   OH235690   6.214   1.381  19.054 -0.7194  0.6666 -0.4294
 3832TIP3    H135691   6.205   1.301  19.001  0.5287 -0.1608  0.5234
 3832TIP3    H235692   6.262   1.442  18.998 -1.8988  0.8652 -1.2564
 3833TIP3   OH235693   7.305   2.799  17.040  0.1897 -0.2257 -0.2923
 3833TIP3    H135694   7.316   2.704  17.045  0.6725 -0.1354  0.5125
 3833TIP3    H235695   7.284   2.816  16.948  0.5327 -1.0672 -0.5354
 3834TIP3   OH235696   6.720   1.303  17.682 -0.4807  0.1555  0.1896
 3834TIP3    H135697   6.637   1.309  17.634  0.2115 -0.1016 -1.0794
 3834TIP3    H235698   6.775   1.247  17.628  0.1192 -0.7306  1.6363
 3835TIP3   OH235699   6.926   7.434  18.693 -0.1261  0.0467 -0.0719
 3835TIP3    H135700   6.938   7.400  18.782  0.3261 -2.5494 -1.0515
 3835TIP3    H235701   7.005   7.484  18.676  1.7158 -2.7777 -0.3769
 3836TIP3   OH235702   4.644   0.835  17.491  0.8445 -0.2140  0.0330
 3836TIP3    H135703   4.715   0.811  17.431  0.6743 -0.1889 -0.1766
 3836TIP3    H235704   4.568   0.847  17.435  0.4437 -1.1503  0.3647
 3837TIP3   OH235705   5.434   6.059  16.971  0.1516  0.2637 -0.2848
 3837TIP3    H135706   5.476   6.018  16.896 -1.0619  0.4304 -1.0801
 3837TIP3    H235707   5.350   6.015  16.979 -0.2330  1.0693  0.2305
 3838TIP3   OH235708   3.761   3.920  19.340  0.4397  0.0931  0.0305
 3838TIP3    H135709   3.854   3.934  19.324  0.3391 -1.3729 -2.4785
 3838TIP3    H235710   3.718   3.999  19.309  0.6248 -0.9209 -3.1416
 3839TIP3   OH235711   7.534   5.927  17.328  0.0464  0.3468  0.0844
 3839TIP3    H135712   7.602   5.967  17.274 -0.6912  0.6230 -0.6644
 3839TIP3    H235713   7.524   5.839  17.293  2.3288 -0.9152  2.3322
 3840TIP3   OH235714   4.277   7.370  16.814  0.2673  0.7291 -0.1317
 3840TIP3    H135715   4.242   7.381  16.903 -1.0890  3.7216 -0.9402
 3840TIP3    H235716   4.361   7.414  16.816  0.9399 -0.5158  0.0058
 3841TIP3   OH235717   7.327   0.328  18.307 -0.4135  0.2891  0.1245
 3841TIP3    H135718   7.421   0.314  18.302 -0.2715  0.6017  1.5308
 3841TIP3    H235719   7.313   0.366  18.394 -1.9479 -0.6486  0.3150
 3842TIP3   OH235720   3.094   6.554  19.077 -0.9137 -0.1114 -0.5195
 3842TIP3    H135721   3.176   6.506  19.077 -0.0865  0.9248 -4.2191
 3842TIP3    H235722   3.075   6.572  19.169  1.4995 -2.7627  0.6214
 3843TIP3   OH235723   6.398   5.665  18.994  0.1750  0.1757  0.0378
 3843TIP3    H135724   6.450   5.745  19.005  0.7060 -0.0107 -0.9703
 3843TIP3    H235725   6.460   5.601  18.959 -0.7753  0.0325 -1.4927
 3844TIP3   OH235726   3.895   4.188  19.169  0.3818 -0.3932 -0.3134
 3844TIP3    H135727   3.914   4.271  19.124 -2.4092  1.0064  0.8458
 3844TIP3    H235728   3.800   4.186  19.176  0.4846 -2.7566  1.5002
 3845TIP3   OH235729   5.119   3.035  18.937 -0.0312 -0.1996  0.1614
 3845TIP3    H135730   5.088   3.125  18.927 -1.5831 -0.5286  1.5400
 3845TIP3    H235731   5.153   3.012  18.851 -1.0360  1.2026 -0.6556
 3846TIP3   OH235732   7.337   4.550  18.841  0.0554 -0.1018  0.1809
 3846TIP3    H135733   7.404   4.502  18.889  1.1735  2.0532  0.9065
 3846TIP3    H235734   7.289   4.483  18.793  0.3793 -2.1041  2.4795
 3847TIP3   OH235735   1.443   7.501  19.406  0.1488 -0.0659 -0.0641
 3847TIP3    H135736   1.388   7.446  19.462  1.1832 -0.0655  0.9838
 3847TIP3    H235737   1.483   7.441  19.344 -0.8574 -0.0945 -0.6977
 3848TIP3   OH235738   1.181   0.109  18.033 -0.3747  0.2393 -0.9400
 3848TIP3    H135739   1.190   0.037  17.970 -0.5616 -0.3842 -0.2714
 3848TIP3    H235740   1.257   0.100  18.090 -1.2762 -0.5035  0.1990
 3849TIP3   OH235741   1.554   4.028  18.644  0.2802 -0.7810  0.1534
 3849TIP3    H135742   1.602   4.058  18.567  0.3442 -0.0279  0.4837
 3849TIP3    H235743   1.608   4.054  18.718 -0.2351 -0.6707  0.4942
 3850TIP3   OH235744   7.086   0.858  18.298  0.0434  0.0857 -0.4708
 3850TIP3    H135745   7.009   0.881  18.350  0.0598  0.3581 -0.5640
 3850TIP3    H235746   7.152   0.833  18.363  0.1784  0.7684 -0.3357
 3851TIP3   OH235747   6.931   6.662  17.104  0.1185  0.2250 -0.6884
 3851TIP3    H135748   6.910   6.738  17.157  1.8936  0.7958 -0.7487
 3851TIP3    H235749   6.864   6.662  17.035 -1.6066  0.0459  0.9187
 3852TIP3   OH235750   2.784   0.123  17.745  0.0107  0.3459 -0.0034
 3852TIP3    H135751   2.701   0.159  17.776  1.4170  2.1724  1.9262
 3852TIP3    H235752   2.834   0.108  17.825  0.4570 -3.8924 -0.8225
 3853TIP3   OH235753   6.295   1.088  17.394  0.3062 -0.2789 -0.1638
 3853TIP3    H135754   6.224   1.151  17.398 -0.6847 -1.4468  1.8098
 3853TIP3    H235755   6.346   1.115  17.318 -1.6470  1.2013 -1.0336
 3854TIP3   OH235756   1.473   0.290  18.639  0.3039 -0.1049  0.4175
 3854TIP3    H135757   1.539   0.347  18.599  1.3197 -1.2421  0.4052
 3854TIP3    H235758   1.417   0.263  18.566  0.5822 -0.1141  0.2035
 3855TIP3   OH235759   6.602   6.969  17.108  0.2476 -0.2664 -0.3330
 3855TIP3    H135760   6.670   6.964  17.041 -0.1637  0.3771 -0.8190
 3855TIP3    H235761   6.552   7.048  17.086  1.2994  1.1078  1.8699
 3856TIP3   OH235762   5.059   6.877  16.942 -0.0425  0.1550  0.4578
 3856TIP3    H135763   5.057   6.968  16.972  0.7517  0.4189 -0.2643
 3856TIP3    H235764   5.152   6.853  16.943 -0.2515 -0.7064  0.7785
 3857TIP3   OH235765   5.320   1.369  18.758 -0.3077  0.0924 -0.4514
 3857TIP3    H135766   5.372   1.390  18.681 -0.7370  0.6959 -0.5814
 3857TIP3    H235767   5.338   1.276  18.774 -0.6022 -0.1807 -1.5796
 3858TIP3   OH235768   3.621   6.524  19.441 -0.2305 -0.6700 -0.4029
 3858TIP3    H135769   3.599   6.468  19.516  0.4729  0.2584  0.5140
 3858TIP3    H235770   3.572   6.485  19.368 -3.1749 -0.0226  1.0560
 3859TIP3   OH235771   1.930   4.124  17.557  0.0682  0.6330 -0.0879
 3859TIP3    H135772   1.980   4.050  17.591  0.5230  0.8982 -0.1756
 3859TIP3    H235773   1.911   4.100  17.466 -0.9792  0.0105  0.2826
 3860TIP3   OH235774   1.632   4.811  18.637 -0.2500  0.3338 -0.2450
 3860TIP3    H135775   1.705   4.869  18.615 -0.7869  0.7796 -0.8705
 3860TIP3    H235776   1.601   4.843  18.722  0.4339 -0.0175  0.1488
 3861TIP3   OH235777   0.580   6.684  17.198  0.2052 -0.2934  0.3079
 3861TIP3    H135778   0.583   6.666  17.104 -1.2087  1.1960 -0.0813
 3861TIP3    H235779   0.492   6.720  17.212 -0.1886 -1.9053  2.4991
 3862TIP3   OH235780   5.588   4.192  18.926 -0.1772 -0.2657  0.1470
 3862TIP3    H135781   5.632   4.273  18.899  0.7413 -0.4693  0.9692
 3862TIP3    H235782   5.624   4.174  19.013 -1.5678 -0.6961  0.6507
 3863TIP3   OH235783   5.409   2.152  17.308  0.1252 -1.0228 -0.5714
 3863TIP3    H135784   5.372   2.234  17.277 -1.0955  0.2040  3.5433
 3863TIP3    H235785   5.349   2.085  17.277 -0.2004 -0.1377 -1.9488
 3864TIP3   OH235786   6.760   6.206  17.668  0.6443 -0.3803  0.0628
 3864TIP3    H135787   6.753   6.203  17.763 -0.7409 -1.4961 -0.0444
 3864TIP3    H235788   6.827   6.273  17.651  1.5566 -0.7797  1.8240
 3865TIP3   OH235789   6.826   6.871  17.244  0.4126  0.1409  0.1899
 3865TIP3    H135790   6.735   6.898  17.234 -0.0855 -1.1684  0.9237
 3865TIP3    H235791   6.877   6.952  17.236 -0.9304  1.1412  1.3268
 3866TIP3   OH235792   5.092   4.672  17.472  0.0381 -0.1413 -0.2601
 3866TIP3    H135793   5.157   4.629  17.415 -2.4694 -1.8255 -2.0760
 3866TIP3    H235794   5.031   4.713  17.411 -2.9114 -2.2138  1.0572
 3867TIP3   OH235795   2.338   1.909  18.674  0.0656 -0.0172 -0.2856
 3867TIP3    H135796   2.293   1.943  18.597 -0.8488 -0.6152 -0.0253
 3867TIP3    H235797   2.370   1.823  18.648 -0.2256 -0.2112 -0.0131
 3868TIP3   OH235798   3.192   0.047  17.577 -0.5463  0.6408  0.2852
 3868TIP3    H135799   3.147   0.001  17.648 -1.1794  0.1233 -0.4392
 3868TIP3    H235800   3.156   0.136  17.580  1.1793  1.3694  2.1333
 3869TIP3   OH235801   1.169   2.489  16.854 -0.7590 -0.8276 -0.0545
 3869TIP3    H135802   1.083   2.530  16.849 -0.6777 -0.7922 -1.2927
 3869TIP3    H235803   1.201   2.487  16.764  0.0868 -1.7976  0.2453
 3870TIP3   OH235804   0.736   0.650  19.181  0.3366  0.0136  0.9195
 3870TIP3    H135805   0.696   0.648  19.094 -0.7457  1.4105  1.3484
 3870TIP3    H235806   0.819   0.696  19.169  0.3215 -0.0435  0.5800
 3871TIP3   OH235807   5.700   1.555  19.184 -0.2502 -0.1700 -0.1896
 3871TIP3    H135808   5.696   1.649  19.164  2.1721 -0.2037 -1.2832
 3871TIP3    H235809   5.612   1.522  19.165 -0.2724  1.2928 -3.2199
 3872TIP3   OH235810   7.414   3.650  19.759  0.3918 -0.3722  0.4690
 3872TIP3    H135811   7.348   3.694  19.813  1.0209 -0.1416  1.0558
 3872TIP3    H235812   7.397   3.683  19.670  0.4674  0.6034  0.7989
 3873TIP3   OH235813   6.816   4.542  19.239  0.0436 -0.2144 -0.0920
 3873TIP3    H135814   6.885   4.475  19.241 -0.1972 -0.4561  0.6772
 3873TIP3    H235815   6.743   4.502  19.286 -0.0571  0.6371  0.5000
 3874TIP3   OH235816   3.003   2.480  17.843 -0.4833  0.2253 -0.5785
 3874TIP3    H135817   2.975   2.506  17.931 -1.0485  1.2481 -1.0426
 3874TIP3    H235818   2.995   2.385  17.843 -1.6083  0.2937  0.1188
 3875TIP3   OH235819   2.454   1.754  17.423 -0.1538 -0.2526  0.0748
 3875TIP3    H135820   2.374   1.707  17.398 -0.2416  0.2916 -0.7072
 3875TIP3    H235821   2.484   1.795  17.342 -0.3171  1.4161  0.8220
 3876TIP3   OH235822   4.916   4.451  18.291 -0.3045  0.3804 -0.4110
 3876TIP3    H135823   4.850   4.485  18.351 -0.8158  0.2304 -0.8807
 3876TIP3    H235824   4.951   4.374  18.335  0.0414  0.8435  0.1402
 3877TIP3   OH235825   6.267   1.203  18.860  0.5260  0.1394  0.4432
 3877TIP3    H135826   6.362   1.213  18.860  0.9576 -2.9296 -0.7865
 3877TIP3    H235827   6.252   1.118  18.902 -1.7066  0.5542  0.6147
 3878TIP3   OH235828   7.253   2.332  19.651  0.4980 -0.4037 -0.3896
 3878TIP3    H135829   7.334   2.378  19.633  1.0332 -0.6995  1.0815
 3878TIP3    H235830   7.270   2.242  19.623  2.1727 -1.4492  3.2716
 3879TIP3   OH235831   7.094   6.425  16.945  0.3679 -0.2003  0.4035
 3879TIP3    H135832   7.187   6.448  16.934  0.4019 -0.5921 -0.1431
 3879TIP3    H235833   7.056   6.441  16.859 -0.7292  2.8948  1.3192
 3880TIP3   OH235834   2.639   2.099  18.489 -0.2303  0.2229  0.2757
 3880TIP3    H135835   2.596   2.063  18.411 -0.9113  1.2309  0.1660
 3880TIP3    H235836   2.686   2.176  18.457  0.9526 -0.3616  0.5596
 3881TIP3   OH235837   2.334   0.671  16.867  0.4899 -0.4225 -0.4420
 3881TIP3    H135838   2.241   0.667  16.888  0.8134 -0.8936  1.0019
 3881TIP3    H235839   2.356   0.582  16.840  0.1546  0.0970 -2.5919
 3882TIP3   OH235840   2.731   0.618  19.031 -0.2948  0.0414 -0.0589
 3882TIP3    H135841   2.743   0.524  19.043 -0.5026  0.1119  0.8064
 3882TIP3    H235842   2.817   0.656  19.048  0.1616 -0.0931 -1.8766
 3883TIP3   OH235843   4.121   2.093  18.537  0.5529 -0.1062 -0.3824
 3883TIP3    H135844   4.189   2.155  18.510  2.0209 -1.2197  0.5422
 3883TIP3    H235845   4.090   2.127  18.621 -0.4954  0.7143 -1.0731
 3884TIP3   OH235846   5.084   2.692  19.296 -0.2446  0.2920 -0.5787
 3884TIP3    H135847   5.011   2.645  19.337  1.3728 -1.0356  0.9149
 3884TIP3    H235848   5.162   2.650  19.330  1.2714  2.1392 -1.5664
 3885TIP3   OH235849   1.176   6.619  18.673 -0.1711  0.3014  0.7479
 3885TIP3    H135850   1.259   6.573  18.671 -0.1420  0.3416  0.9979
 3885TIP3    H235851   1.192   6.701  18.626  0.6494  1.4962  2.9654
 3886TIP3   OH235852   1.718   5.425  17.186 -0.3581 -0.1839 -0.9816
 3886TIP3    H135853   1.638   5.404  17.138 -2.1439  0.3548  1.5514
 3886TIP3    H235854   1.687   5.469  17.266  2.0118 -3.9541  2.4277
 3887TIP3   OH235855   4.186   2.388  19.428 -0.1350  0.0081  0.0045
 3887TIP3    H135856   4.157   2.455  19.490  0.1454  2.7425 -2.5933
 3887TIP3    H235857   4.106   2.366  19.379  0.6429  2.4495 -2.5893
 3888TIP3   OH235858   7.074   3.510  19.597  0.0410 -0.4972 -0.4764
 3888TIP3    H135859   7.084   3.599  19.565 -0.8698  0.0973  0.7996
 3888TIP3    H235860   7.164   3.477  19.605  0.4025  0.4402 -0.6053
 3889TIP3   OH235861   0.939   0.502  18.259 -0.1476 -0.4105 -0.1295
 3889TIP3    H135862   0.880   0.507  18.184 -1.1967 -1.1569  0.6106
 3889TIP3    H235863   1.009   0.442  18.231 -0.2661 -0.3019 -0.6641
 3890TIP3   OH235864   5.689   2.683  17.068  0.3148 -0.3721  0.4788
 3890TIP3    H135865   5.703   2.720  17.155 -1.4196  1.2102  0.1575
 3890TIP3    H235866   5.675   2.589  17.083 -0.4687 -0.0480  1.9828
 3891TIP3   OH235867   2.321   3.134  19.206  0.1520  0.3578 -0.4410
 3891TIP3    H135868   2.290   3.220  19.234 -0.1162 -0.3157  1.4108
 3891TIP3    H235869   2.403   3.122  19.253  0.2239 -0.3884 -0.7465
 3892TIP3   OH235870   4.391   7.112  19.463  0.5522 -0.9105 -0.0415
 3892TIP3    H135871   4.349   7.150  19.386  1.0716  1.8981  0.9355
 3892TIP3    H235872   4.333   7.135  19.536  3.2904  2.7655  1.2871
 3893TIP3   OH235873   6.079   3.669  18.360 -0.5903  1.1087  0.2408
 3893TIP3    H135874   6.168   3.696  18.337 -0.5476  0.1273 -0.8885
 3893TIP3    H235875   6.023   3.713  18.296 -0.7821  0.7654  0.1667
 3894TIP3   OH235876   7.489   5.423  19.110 -0.4746 -0.1441  0.7947
 3894TIP3    H135877   7.546   5.424  19.033  1.5648 -0.7763  2.2133
 3894TIP3    H235878   7.430   5.348  19.095  0.1207 -0.4755  0.0113
 3895TIP3   OH235879   0.495   7.261  17.929 -0.2318  0.4808 -0.5119
 3895TIP3    H135880   0.416   7.221  17.892 -0.1243 -0.2521  0.0304
 3895TIP3    H235881   0.502   7.222  18.016  0.6486  0.6570 -0.5027
 3896TIP3   OH235882   4.755   0.948  18.156 -0.2213 -0.1097 -0.0683
 3896TIP3    H135883   4.735   0.986  18.242 -0.9072 -1.0349  0.1917
 3896TIP3    H235884   4.794   0.863  18.176  0.9164  0.2445 -0.6615
 3897TIP3   OH235885   7.385   3.205  17.491  0.5791  0.1693 -0.3262
 3897TIP3    H135886   7.339   3.157  17.422  1.4770 -0.5744 -0.4255
 3897TIP3    H235887   7.456   3.250  17.446  0.7283  0.2728  0.0109
 3898TIP3   OH235888   5.234   4.809  17.874 -0.0187 -0.0398 -0.3819
 3898TIP3    H135889   5.327   4.817  17.896 -0.1133 -2.8973  1.5072
 3898TIP3    H235890   5.229   4.731  17.819 -1.2854  0.1801 -0.6006
 3899TIP3   OH235891   3.908   7.589  19.109  0.5566  0.5769 -0.5696
 3899TIP3    H135892   3.913   7.497  19.135 -0.5181  0.5825 -0.3250
 3899TIP3    H235893   3.999   7.614  19.093  0.9511 -0.2546  0.3108
 3900TIP3   OH235894   3.613   7.194  17.255  0.2920 -0.1913  0.0550
 3900TIP3    H135895   3.569   7.279  17.264  1.4690  1.0272 -3.7262
 3900TIP3    H235896   3.544   7.129  17.269 -1.4704  1.5080 -0.3585
 3901TIP3   OH235897   2.782   0.647  18.181 -0.4190 -0.1750  0.4156
 3901TIP3    H135898   2.815   0.720  18.127 -3.5968  0.7724 -0.4242
 3901TIP3    H235899   2.792   0.570  18.125  1.3812 -0.1652  0.6583
 3902TIP3   OH235900   5.591   3.306  17.678 -0.1187  0.6463 -0.4483
 3902TIP3    H135901   5.584   3.372  17.609  0.0030  0.7738 -0.3398
 3902TIP3    H235902   5.682   3.275  17.672 -0.0895  0.7040 -0.3024
 3903TIP3   OH235903   3.565   0.441  17.426  0.1500  0.3113  0.2024
 3903TIP3    H135904   3.509   0.498  17.373  1.5644 -0.2348 -2.0041
 3903TIP3    H235905   3.546   0.352  17.394  0.9463 -0.0584  0.7133
 3904TIP3   OH235906   0.907   7.228  17.480  0.3489  0.5658  0.2120
 3904TIP3    H135907   0.958   7.233  17.561 -0.0366 -0.5810  0.5438
 3904TIP3    H235908   0.856   7.310  17.478  0.0735  0.4354  1.3253
 3905TIP3   OH235909   4.378   4.086  17.215 -0.2117  0.3099 -0.2896
 3905TIP3    H135910   4.443   4.078  17.145  1.2039  0.1633  1.0039
 3905TIP3    H235911   4.338   3.999  17.220 -1.5200  0.7457 -1.9725
 3906TIP3   OH235912   3.487   0.823  17.294  0.3797 -0.4999 -0.1335
 3906TIP3    H135913   3.427   0.865  17.232 -1.1500  0.8791  2.1404
 3906TIP3    H235914   3.551   0.891  17.316  1.5853 -1.3246 -0.9615
 3907TIP3   OH235915   7.185   6.720  19.432  0.7026 -0.9008 -0.3973
 3907TIP3    H135916   7.223   6.751  19.350  1.1109 -2.2225 -0.7319
 3907TIP3    H235917   7.212   6.628  19.438 -0.8164 -1.3362  0.3237
 3908TIP3   OH235918   2.778   3.645  19.124 -0.2818 -0.2807 -0.0453
 3908TIP3    H135919   2.701   3.693  19.094  0.9106 -0.6858 -4.5692
 3908TIP3    H235920   2.763   3.555  19.096  0.8567 -0.8599  1.1102
 3909TIP3   OH235921   3.194   1.315  19.063  0.4788  0.1186  0.0812
 3909TIP3    H135922   3.169   1.255  18.993 -0.6106  1.3531 -0.6479
 3909TIP3    H235923   3.190   1.263  19.143  1.3294 -1.2094 -0.7120
 3910TIP3   OH235924   6.354   7.586  17.704  0.0081 -0.0485 -0.6640
 3910TIP3    H135925   6.365   7.492  17.718 -0.2430 -0.0623 -0.5449
 3910TIP3    H235926   6.391   7.602  17.618  3.1376  0.3137  0.6158
 3911TIP3   OH235927   0.492   3.986  18.504 -0.4856 -0.0885  0.2186
 3911TIP3    H135928   0.506   3.968  18.411 -1.7405  0.1069 -0.0242
 3911TIP3    H235929   0.577   3.968  18.544  0.1390  0.0157 -0.9861
 3912TIP3   OH235930   3.644   1.189  18.942  0.2126 -0.0401  0.1838
 3912TIP3    H135931   3.667   1.210  19.032 -1.2244 -0.0462  0.5747
 3912TIP3    H235932   3.577   1.121  18.949 -0.1585  0.1894 -0.8681
 3913TIP3   OH235933   5.623   4.666  18.698 -0.4133  0.2905  0.1321
 3913TIP3    H135934   5.610   4.572  18.689 -2.1334  0.5497 -0.4580
 3913TIP3    H235935   5.572   4.705  18.626 -1.0267  1.7347  1.2965
 3914TIP3   OH235936   1.801   3.571  18.903 -0.2338 -0.6362 -0.0608
 3914TIP3    H135937   1.723   3.584  18.850  0.0449 -1.0631 -0.5948
 3914TIP3    H235938   1.799   3.478  18.927 -1.2745 -0.1014  2.1972
 3915TIP3   OH235939   5.860   7.481  18.984 -0.3349 -0.4283  0.1534
 3915TIP3    H135940   5.867   7.450  18.894  0.2067 -0.9871  0.3828
 3915TIP3    H235941   5.804   7.559  18.978 -0.1600 -0.3576 -0.6817
 3916TIP3   OH235942   3.331   3.743  18.359 -0.0901  0.2647 -0.4809
 3916TIP3    H135943   3.284   3.660  18.361 -0.3493  0.2555 -3.2542
 3916TIP3    H235944   3.346   3.764  18.451 -0.9189 -2.3155  0.3334
 3917TIP3   OH235945   2.843   2.177  19.294  0.0132  0.0298  0.2475
 3917TIP3    H135946   2.840   2.087  19.327 -0.8427 -0.3967 -0.9376
 3917TIP3    H235947   2.901   2.223  19.356  1.3203 -1.5686  0.2971
 3918TIP3   OH235948   0.864   6.361  16.446  0.1446  0.1327  0.1179
 3918TIP3    H135949   0.789   6.319  16.487 -0.5156 -0.6431 -1.7682
 3918TIP3    H235950   0.927   6.290  16.434  0.1591  0.2601 -0.5701
 3919TIP3   OH235951   7.624   3.939  17.031 -0.3402  0.5516  0.3280
 3919TIP3    H135952   7.594   3.965  16.944  0.2356  1.1694  0.3135
 3919TIP3    H235953   7.709   3.897  17.016 -0.3652  0.4123  0.5646
 3920TIP3   OH235954   1.607   6.198  17.536 -0.4170  0.7186 -0.2431
 3920TIP3    H135955   1.674   6.261  17.562 -0.4827  0.8224 -0.3196
 3920TIP3    H235956   1.528   6.251  17.523 -0.8361  0.4456  1.0362
 3921TIP3   OH235957   2.961   6.898  17.020  0.4299 -0.1761  0.2124
 3921TIP3    H135958   3.026   6.955  16.979 -0.6481  0.1674 -1.0790
 3921TIP3    H235959   2.881   6.912  16.970 -0.2694 -1.6936  0.8314
 3922TIP3   OH235960   4.779   4.730  18.020 -0.0187  0.2383 -0.1770
 3922TIP3    H135961   4.866   4.694  18.007 -0.0095  0.5363 -0.9619
 3922TIP3    H235962   4.789   4.790  18.094  0.1425 -0.7116  0.6054
 3923TIP3   OH235963   3.276   6.082  17.999 -0.0725 -0.3699 -0.1598
 3923TIP3    H135964   3.348   6.138  17.969 -0.8977  1.0616  0.4261
 3923TIP3    H235965   3.301   5.994  17.971  2.3686 -0.0729  0.8201
 3924TIP3   OH235966   6.899   0.871  19.163 -0.5219  0.3459  0.1346
 3924TIP3    H135967   6.818   0.905  19.200 -1.4261 -2.1956  0.7122
 3924TIP3    H235968   6.873   0.833  19.080  0.5517  1.4622 -0.7492
 3925TIP3   OH235969   2.919   1.385  17.861 -0.1754  0.7450 -0.6896
 3925TIP3    H135970   2.832   1.347  17.849 -0.5399  0.3454  2.2838
 3925TIP3    H235971   2.909   1.477  17.838 -1.5280  0.7977  0.0051
 3926TIP3   OH235972   6.097   6.585  17.523  0.3377 -0.8653 -0.6294
 3926TIP3    H135973   6.011   6.623  17.545  0.4189 -1.2180  0.3497
 3926TIP3    H235974   6.086   6.550  17.435 -0.9827 -2.1992  0.0181
 3927TIP3   OH235975   6.757   7.208  18.575  0.0119  0.1388  0.2796
 3927TIP3    H135976   6.730   7.234  18.487  2.3517 -0.6959 -0.7632
 3927TIP3    H235977   6.831   7.266  18.595 -0.2940  0.1105  1.5877
 3928TIP3   OH235978   4.277   1.544  18.055 -0.0381  0.1063  0.5505
 3928TIP3    H135979   4.350   1.570  18.111  2.2605 -2.0591 -1.1794
 3928TIP3    H235980   4.279   1.606  17.982  0.9845 -0.7153 -0.1462
 3929TIP3   OH235981   0.834   6.505  17.936 -0.0612 -0.9735  0.4662
 3929TIP3    H135982   0.907   6.450  17.965  0.3836 -1.0888 -0.8253
 3929TIP3    H235983   0.766   6.492  18.003  0.0295 -3.0909  0.2113
 3930TIP3   OH235984   3.506   0.187  17.340 -0.0672 -0.6011 -0.0350
 3930TIP3    H135985   3.424   0.233  17.329  0.2701  0.0407  0.1037
 3930TIP3    H235986   3.511   0.127  17.265 -0.5349 -0.4612 -0.1769
 3931TIP3   OH235987   7.597   5.202  17.706  0.5548 -0.3824  0.3636
 3931TIP3    H135988   7.575   5.110  17.690 -0.3271  0.1330 -1.7127
 3931TIP3    H235989   7.548   5.250  17.639  2.0316  1.5049  0.5638
 3932TIP3   OH235990   1.236   5.532  19.193  0.2260 -0.3980 -0.2844
 3932TIP3    H135991   1.206   5.621  19.210  0.8621  0.5477 -3.3965
 3932TIP3    H235992   1.159   5.487  19.160  0.3378 -0.4035 -0.5435
 3933TIP3   OH235993   3.733   6.646  17.390 -0.5849 -0.1732 -0.4803
 3933TIP3    H135994   3.791   6.626  17.463  0.1969  1.1771 -0.6904
 3933TIP3    H235995   3.654   6.682  17.431 -0.6614 -0.5820 -0.2619
 3934TIP3   OH235996   3.634   5.525  16.700 -0.4301 -0.1356 -0.1664
 3934TIP3    H135997   3.675   5.571  16.773  1.5823  0.3168 -1.4627
 3934TIP3    H235998   3.580   5.591  16.657  0.6493  0.4345 -0.6961
 3935TIP3   OH235999   4.762   2.268  19.810 -0.2203 -0.3280 -0.1839
 3935TIP3    H136000   4.830   2.293  19.873 -0.0532  0.3641 -0.6195
 3935TIP3    H236001   4.806   2.209  19.749 -0.1924 -0.4392 -0.0541
 3936TIP3   OH236002   0.867   7.130  19.393 -0.1897  0.3183  0.1716
 3936TIP3    H136003   0.882   7.224  19.382  0.2236  0.2658  0.2674
 3936TIP3    H236004   0.795   7.110  19.334  1.2187  0.2616 -1.6419
 3937TIP3   OH236005   7.021   1.469  19.221  0.2442  0.5064 -0.2066
 3937TIP3    H136006   6.981   1.434  19.142  1.0040 -2.1551  0.5024
 3937TIP3    H236007   6.956   1.456  19.290  0.0279  1.7824 -0.1350
 3938TIP3   OH236008   0.863   5.122  19.027 -0.0145 -0.2971 -0.4763
 3938TIP3    H136009   0.857   5.171  19.109 -0.4298 -0.4587 -0.4111
 3938TIP3    H236010   0.879   5.189  18.960  1.2018 -0.2411 -0.1627
 3939TIP3   OH236011   4.536   1.799  17.726  0.2207 -0.2935  0.0874
 3939TIP3    H136012   4.506   1.718  17.685  2.1644 -0.9695 -0.0973
 3939TIP3    H236013   4.599   1.771  17.792 -0.6571  0.9704  1.5238
 3940TIP3   OH236014   4.174   3.773  18.793  0.8859 -0.3774  0.1033
 3940TIP3    H136015   4.113   3.815  18.733 -0.2808 -0.9745  0.8393
 3940TIP3    H236016   4.237   3.842  18.815 -0.3927  0.7033  0.4978
 3941TIP3   OH236017   2.593   1.523  17.474 -0.9652 -0.0478 -0.0040
 3941TIP3    H136018   2.577   1.602  17.424 -1.0008  0.6869  1.1302
 3941TIP3    H236019   2.682   1.497  17.450 -1.2752 -0.1807 -1.0473
 3942TIP3   OH236020   2.172   4.721  18.519 -0.1252  0.4054  0.5046
 3942TIP3    H136021   2.134   4.757  18.439  1.8862  1.1615 -0.1783
 3942TIP3    H236022   2.116   4.754  18.590 -1.8774 -0.1924 -0.5483
 3943TIP3   OH236023   1.967   0.864  18.306 -0.0945  0.0687 -0.4036
 3943TIP3    H136024   2.002   0.896  18.222  0.4534  1.9058  0.4687
 3943TIP3    H236025   1.923   0.782  18.283  0.4995  0.2282 -2.3926
 3944TIP3   OH236026   7.273   7.290  18.898 -0.0831 -0.2010  0.0653
 3944TIP3    H136027   7.208   7.358  18.917  1.1613  0.9732  0.2764
 3944TIP3    H236028   7.271   7.234  18.975  0.5035  0.9562  0.9661
 3945TIP3   OH236029   5.793   4.483  19.474  0.1102  0.0277 -0.5044
 3945TIP3    H136030   5.780   4.392  19.449 -0.7680  0.5776 -2.1756
 3945TIP3    H236031   5.705   4.522  19.473  0.2035  0.4760  2.0916
 3946TIP3   OH236032   0.289   3.915  19.040 -0.3726  0.5741 -0.4636
 3946TIP3    H136033   0.198   3.888  19.026 -0.0412 -1.0716  0.2551
 3946TIP3    H236034   0.334   3.891  18.959 -0.5699  1.4370 -0.8405
 3947TIP3   OH236035   6.464   1.614  19.149  0.0817  0.3440 -0.1721
 3947TIP3    H136036   6.435   1.701  19.173 -0.4899 -0.4895  2.4670
 3947TIP3    H236037   6.403   1.586  19.081  0.8485  2.2667 -1.7775
 3948TIP3   OH236038   3.466   4.673  18.650 -0.4108  0.0697  0.1625
 3948TIP3    H136039   3.397   4.636  18.595 -0.6983 -0.2729  0.7361
 3948TIP3    H236040   3.547   4.655  18.602 -0.8412  3.0132 -1.9518
 3949TIP3   OH236041   4.606   6.932  19.111  1.2273 -0.0906  0.0657
 3949TIP3    H136042   4.520   6.900  19.137  1.0455  1.9802  2.3153
 3949TIP3    H236043   4.635   6.870  19.044 -2.0463 -0.7385 -0.9135
 3950TIP3   OH236044   5.772   5.276  18.879  0.7012 -0.1749  0.3955
 3950TIP3    H136045   5.692   5.224  18.880 -0.3411  1.3736  1.1701
 3950TIP3    H236046   5.838   5.219  18.917  0.2483 -1.8680 -1.2084
 3951TIP3   OH236047   7.166   3.388  18.771  0.2551 -0.1654 -0.4683
 3951TIP3    H136048   7.183   3.412  18.680  0.1929 -0.0460 -0.4481
 3951TIP3    H236049   7.200   3.299  18.779  1.3984  0.2820 -0.2662
 3952TIP3   OH236050   1.669   5.962  17.449  0.2450 -0.0197  0.1769
 3952TIP3    H136051   1.589   5.910  17.459  0.0443  0.2106 -0.2144
 3952TIP3    H236052   1.644   6.051  17.472  0.1352  0.2421 -0.8884
 3953TIP3   OH236053   4.631   4.167  19.272  0.3134 -0.5576  0.0957
 3953TIP3    H136054   4.679   4.151  19.191 -0.5354 -0.2067 -0.5011
 3953TIP3    H236055   4.617   4.080  19.309  2.4470 -0.5918  0.9399
 3954TIP3   OH236056   4.393   0.445  17.799 -0.1209 -0.0217 -0.5820
 3954TIP3    H136057   4.422   0.389  17.727 -0.3842  0.6064 -1.1833
 3954TIP3    H236058   4.298   0.448  17.791 -0.1436  0.1517 -0.2832
 3955TIP3   OH236059   3.900   6.092  19.527 -0.3072 -0.1568 -0.2860
 3955TIP3    H136060   3.871   6.067  19.439  1.8681  0.7609 -1.3342
 3955TIP3    H236061   3.937   6.012  19.564 -1.5529 -0.6357 -0.0332
 3956TIP3   OH236062   2.273   1.562  17.382  0.0109  0.7993 -0.7582
 3956TIP3    H136063   2.195   1.535  17.334  0.6276 -0.4125 -1.1243
 3956TIP3    H236064   2.333   1.488  17.374  0.5370  0.9884  0.9779
 3957TIP3   OH236065   6.262   6.765  17.677  0.3603 -0.1006  0.4893
 3957TIP3    H136066   6.185   6.736  17.628  1.8315 -0.1646 -1.9375
 3957TIP3    H236067   6.283   6.692  17.735  0.1693 -1.2230 -0.8010
 3958TIP3   OH236068   6.588   3.220  16.794 -0.5273  0.3235  0.1060
 3958TIP3    H136069   6.661   3.262  16.748 -0.8602  1.3600  0.4994
 3958TIP3    H236070   6.563   3.146  16.737 -0.9563  1.5945 -1.4388
 3959TIP3   OH236071   5.410   6.439  19.289  0.2026 -0.2377  0.2940
 3959TIP3    H136072   5.506   6.444  19.288  0.2467 -0.6014  1.7256
 3959TIP3    H236073   5.390   6.362  19.235  0.7468 -0.6060  0.6112
 3960TIP3   OH236074   0.387   6.218  17.821  0.4272  0.3524  0.5639
 3960TIP3    H136075   0.364   6.170  17.742  1.0104 -2.3664  1.9346
 3960TIP3    H236076   0.328   6.294  17.821  0.4092  0.4231 -2.3920
 3961TIP3   OH236077   4.038   4.119  18.796 -0.3734 -0.5155 -0.0899
 3961TIP3    H136078   4.080   4.127  18.710 -1.6948  0.5762 -0.6686
 3961TIP3    H236079   3.969   4.185  18.795  0.9994  1.1069  2.7010
 3962TIP3   OH236080   0.231   5.993  17.181  0.3719  0.1175 -0.2238
 3962TIP3    H136081   0.207   5.961  17.268  1.7698 -2.4797 -0.6962
 3962TIP3    H236082   0.166   5.953  17.122  2.0070 -1.8713 -0.8012
 3963TIP3   OH236083   0.776   4.815  17.340  0.3590 -0.3138  0.2691
 3963TIP3    H136084   0.780   4.853  17.252  1.7994 -2.2823 -0.5918
 3963TIP3    H236085   0.731   4.882  17.393  0.7756  1.5648 -1.6017
 3964TIP3   OH236086   3.873   5.614  18.629 -0.3460  0.1741 -0.4050
 3964TIP3    H136087   3.964   5.587  18.618 -0.1067  1.3683 -1.6065
 3964TIP3    H236088   3.875   5.681  18.696 -0.5662 -0.8236  0.6258
 3965TIP3   OH236089   1.847   7.327  17.303 -0.1737 -0.4029  0.0494
 3965TIP3    H136090   1.874   7.238  17.327 -0.2827 -0.7251 -0.9772
 3965TIP3    H236091   1.924   7.381  17.320  0.3224 -0.9131 -0.5439
 3966TIP3   OH236092   5.298   0.608  18.698 -0.3566 -0.0408 -0.1014
 3966TIP3    H136093   5.269   0.566  18.779  0.5804 -0.1285  0.2013
 3966TIP3    H236094   5.219   0.612  18.644 -0.6837 -1.3591  0.2225
 3967TIP3   OH236095   6.122   2.598  17.397 -0.2703  0.5457  0.2701
 3967TIP3    H136096   6.142   2.692  17.398 -0.2949  0.5486  0.4956
 3967TIP3    H236097   6.031   2.594  17.367 -0.7449  0.6905  1.5900
 3968TIP3   OH236098   0.447   2.310  17.733  0.8911  0.4881  0.1776
 3968TIP3    H136099   0.482   2.221  17.746  1.6694  0.8322  0.5019
 3968TIP3    H236100   0.524   2.367  17.738  0.1194  1.4742  2.7537
 3969TIP3   OH236101   1.792   1.869  17.959  0.4011 -0.0703  0.0655
 3969TIP3    H136102   1.725   1.852  17.894  1.2587 -0.8600 -0.6381
 3969TIP3    H236103   1.831   1.953  17.933 -1.3433  1.2408  1.4074
 3970TIP3   OH236104   7.226   5.920  19.409 -0.7290  0.1924  0.8581
 3970TIP3    H136105   7.295   5.902  19.345 -1.4272 -0.4700  0.2776
 3970TIP3    H236106   7.210   5.837  19.453 -0.9347  0.4144  1.2141
 3971TIP3   OH236107   6.450   0.348  19.331  0.5681  0.0632 -0.5009
 3971TIP3    H136108   6.488   0.424  19.376 -1.1781 -0.6789  2.5422
 3971TIP3    H236109   6.523   0.287  19.321  1.4367  1.0838 -0.5858
 3972TIP3   OH236110   3.564   6.026  19.660 -0.2404 -0.2762 -0.5440
 3972TIP3    H136111   3.618   5.991  19.732 -0.4087  1.1785  0.3325
 3972TIP3    H236112   3.623   6.026  19.585  0.0182 -1.5907 -0.3782
 3973TIP3   OH236113   2.297   2.788  18.511  0.2316  0.3032 -0.0118
 3973TIP3    H136114   2.339   2.760  18.592  0.9251 -0.3415 -0.5835
 3973TIP3    H236115   2.343   2.869  18.487 -0.9733  1.3263  1.0078
 3974TIP3   OH236116   3.478   0.250  19.179 -0.1973  0.7994 -0.1105
 3974TIP3    H136117   3.526   0.169  19.159  1.2073  1.2598  1.1586
 3974TIP3    H236118   3.526   0.318  19.131 -0.3248  1.1011  0.1889
 3975TIP3   OH236119   0.245   4.929  19.696 -0.0432 -0.0941  1.1117
 3975TIP3    H136120   0.212   4.962  19.612  1.3465  0.7091  0.8397
 3975TIP3    H236121   0.216   4.993  19.760  3.3596  2.3714  0.4773
 3976TIP3   OH236122   4.726   4.267  19.717 -0.6436  0.4239 -0.1972
 3976TIP3    H136123   4.644   4.267  19.767  0.2525 -0.4502  1.3380
 3976TIP3    H236124   4.710   4.329  19.646 -1.2661  3.5205  2.3931
 3977TIP3   OH236125   7.438   1.308  19.131  0.1954  0.2199 -0.3576
 3977TIP3    H136126   7.431   1.219  19.095 -1.2037  0.4721 -0.7294
 3977TIP3    H236127   7.459   1.363  19.055 -0.7658  0.4611 -0.4608
 3978TIP3   OH236128   5.049   3.583  17.349 -0.1262 -0.2064 -0.3610
 3978TIP3    H136129   5.053   3.631  17.266 -1.0386 -3.1346 -2.2236
 3978TIP3    H236130   4.958   3.554  17.356 -0.4718  1.2049  2.5066
 3979TIP3   OH236131   4.974   5.737  18.954  0.1416 -0.1090 -0.6453
 3979TIP3    H136132   4.998   5.818  18.909 -1.6094 -0.2607 -1.9467
 3979TIP3    H236133   4.880   5.727  18.938  0.0039 -1.6032  0.8023
 3980TIP3   OH236134   6.595   3.514  18.761  0.3578 -0.2915 -0.3198
 3980TIP3    H136135   6.575   3.487  18.671  0.8510  0.1539 -0.5751
 3980TIP3    H236136   6.667   3.576  18.751 -0.6293  0.9941  0.2440
 3981TIP3   OH236137   0.622   2.915  18.014 -0.7444 -0.1479  0.4372
 3981TIP3    H136138   0.682   2.924  18.088 -2.1152  0.2017  1.5496
 3981TIP3    H236139   0.676   2.934  17.937  0.4603  0.6055  1.4292
 3982TIP3   OH236140   1.474   4.063  17.986  0.1965  0.4482 -0.7497
 3982TIP3    H136141   1.393   4.076  17.935  0.4395  1.8226 -0.8055
 3982TIP3    H236142   1.446   4.012  18.062 -1.0037  2.0211 -0.0867
 3983TIP3   OH236143   4.396   4.496  18.452  0.3223  0.0716  0.0256
 3983TIP3    H136144   4.384   4.402  18.437  0.3665  0.0807 -0.0729
 3983TIP3    H236145   4.400   4.533  18.364  0.6927  0.1131  0.0577
 3984TIP3   OH236146   3.559   0.136  16.848 -0.4597 -0.2262  0.1103
 3984TIP3    H136147   3.577   0.096  16.763 -1.5172 -0.6115  0.0507
 3984TIP3    H236148   3.579   0.229  16.836 -1.0109 -0.2046 -0.6928
 3985TIP3   OH236149   7.674   5.593  18.666  0.3599  0.2367  0.7440
 3985TIP3    H136150   7.767   5.607  18.649  0.0606  1.2826 -0.1512
 3985TIP3    H236151   7.630   5.639  18.595 -0.8085 -3.9561 -1.5839
 3986TIP3   OH236152   4.023   1.748  17.453  0.1557 -0.2588 -0.6861
 3986TIP3    H136153   3.950   1.809  17.449 -0.8582 -1.4346 -0.4418
 3986TIP3    H236154   4.027   1.710  17.365 -0.8127 -1.6434 -0.1553
 3987TIP3   OH236155   3.844   6.407  17.300  0.0805  0.0194 -0.1650
 3987TIP3    H136156   3.779   6.473  17.325  0.6022  1.5734 -2.5722
 3987TIP3    H236157   3.806   6.362  17.225  1.1191 -0.1039 -0.6454
 3988TIP3   OH236158   3.431   2.611  18.469  0.5295 -0.0428 -0.3022
 3988TIP3    H136159   3.490   2.536  18.482  1.8220  0.8948 -0.5146
 3988TIP3    H236160   3.426   2.621  18.374 -0.6731 -0.6341 -0.3084
 3989TIP3   OH236161   4.264   1.657  17.578 -0.4905 -0.0406  0.1238
 3989TIP3    H136162   4.179   1.667  17.536 -0.6312  1.9307  0.7992
 3989TIP3    H236163   4.321   1.624  17.508 -1.1442  1.3629 -1.1259
 3990TIP3   OH236164   2.647   6.642  19.159  0.0500  0.1110  0.0986
 3990TIP3    H136165   2.710   6.679  19.220 -1.0219  0.0552  1.2658
 3990TIP3    H236166   2.607   6.718  19.117  1.1590  0.1431 -0.9752
 3991TIP3   OH236167   6.653   7.413  17.132  0.0853  0.0559  0.1613
 3991TIP3    H136168   6.667   7.386  17.042 -0.0114 -0.6467  0.3510
 3991TIP3    H236169   6.623   7.334  17.177 -1.4042  0.7603  0.4658
 3992TIP3   OH236170   7.159   5.520  17.765  0.2917 -0.3476 -0.4556
 3992TIP3    H136171   7.231   5.488  17.819  0.0160 -0.9477 -0.4404
 3992TIP3    H236172   7.202   5.574  17.698  0.4938  1.9632  1.4089
 3993TIP3   OH236173   6.256   1.359  17.049  0.2396 -0.6498 -0.1957
 3993TIP3    H136174   6.175   1.410  17.059  0.0425 -1.0755  0.4228
 3993TIP3    H236175   6.324   1.425  17.036 -0.0215 -0.2221  0.5409
 3994TIP3   OH236176   1.465   5.127  18.525 -0.4142  0.8858 -0.9958
 3994TIP3    H136177   1.469   5.077  18.443 -0.1075  2.5183 -2.0405
 3994TIP3    H236178   1.557   5.135  18.552 -0.6097 -0.9386  0.3904
 3995TIP3   OH236179   7.537   4.975  19.358 -0.3135  0.2369 -0.4662
 3995TIP3    H136180   7.442   4.967  19.358 -0.2182 -1.5778  1.1044
 3995TIP3    H236181   7.553   5.066  19.331 -2.4488  0.4946 -1.0681
 3996TIP3   OH236182   3.718   6.087  17.223 -0.1857 -0.0931 -0.7349
 3996TIP3    H136183   3.757   6.073  17.137  0.8248 -1.8556 -0.0405
 3996TIP3    H236184   3.663   6.010  17.238 -0.0578  0.0004  0.3316
 3997TIP3   OH236185   2.536   4.084  18.824 -0.1508  0.2470  0.1676
 3997TIP3    H136186   2.607   4.088  18.888 -0.0102  1.3385 -0.0352
 3997TIP3    H236187   2.498   4.171  18.824  0.8683  0.8066 -2.3232
 3998TIP3   OH236188   2.014   1.200  18.463  0.0438 -0.1021 -0.2074
 3998TIP3    H136189   2.036   1.117  18.506  0.2532 -1.1963 -2.2798
 3998TIP3    H236190   1.921   1.192  18.441 -0.0109  0.3333 -0.1393
 3999TIP3   OH236191   3.590   7.219  18.347  0.7661  0.2476 -0.3356
 3999TIP3    H136192   3.538   7.170  18.283  0.4370 -0.6931  0.6233
 3999TIP3    H236193   3.538   7.297  18.365 -0.2471 -0.5789  0.4533
 4000TIP3   OH236194   5.739   0.500  16.782  0.2183 -0.9085 -0.1081
 4000TIP3    H136195   5.800   0.509  16.709  0.0966 -2.4278 -0.4239
 4000TIP3    H236196   5.781   0.546  16.854 -0.4954  2.3277 -1.5540
 4001TIP3   OH236197   0.737   3.764  17.198  0.7709 -0.3164 -0.2013
 4001TIP3    H136198   0.668   3.827  17.174 -0.3785 -0.8238  1.6295
 4001TIP3    H236199   0.751   3.713  17.118  0.9844  1.5300 -1.4185
 4002TIP3   OH236200   0.662   0.085  17.173  0.7014 -0.5850  0.0281
 4002TIP3    H136201   0.598   0.154  17.150  0.7134 -0.4029  0.5295
 4002TIP3    H236202   0.614   0.003  17.159  0.1454 -0.4399  0.9808
 4003TIP3   OH236203   2.527   6.178  16.495 -0.3307  0.3924  0.5030
 4003TIP3    H136204   2.484   6.230  16.562  0.5840  0.4358  1.0727
 4003TIP3    H236205   2.612   6.156  16.532  0.1476  0.3126 -0.5909
 4004TIP3   OH236206   6.348   7.152  16.772  0.0389  0.1137 -0.6803
 4004TIP3    H136207   6.312   7.087  16.711 -0.6683  0.0569 -0.2225
 4004TIP3    H236208   6.301   7.232  16.752 -1.3346 -0.2723  0.7873
 4005TIP3   OH236209   5.352   3.394  18.926 -0.3209 -0.6160  0.5834
 4005TIP3    H136210   5.309   3.476  18.951 -0.5129 -0.6919  0.5080
 4005TIP3    H236211   5.432   3.393  18.978  0.1032  0.0227 -0.0359
 4006TIP3   OH236212   6.118   1.535  17.555  0.0426  0.3490 -0.6264
 4006TIP3    H136213   6.031   1.497  17.563  1.0190 -1.9004  0.0641
 4006TIP3    H236214   6.104   1.630  17.561 -2.3074  0.0336 -0.3632
 4007TIP3   OH236215   3.385   7.623  17.901 -0.4809 -0.1480  0.1137
 4007TIP3    H136216   3.469   7.584  17.880  0.7836  2.3336  0.1576
 4007TIP3    H236217   3.388   7.638  17.996 -0.7161  0.4475  0.0334
 4008TIP3   OH236218   6.355   6.511  18.782 -0.1627  0.0272 -0.0955
 4008TIP3    H136219   6.371   6.605  18.778 -1.3637  0.2437 -0.4122
 4008TIP3    H236220   6.407   6.480  18.856 -1.6377  1.3764  1.6002
 4009TIP3   OH236221   2.829   0.362  16.976  0.4809 -0.1410 -0.3267
 4009TIP3    H136222   2.789   0.403  16.899  0.6398 -0.5847 -0.6538
 4009TIP3    H236223   2.777   0.283  16.991 -0.6680  0.8552  1.1284
 4010TIP3   OH236224   6.762   4.923  17.051 -0.2530  0.6130  1.0777
 4010TIP3    H136225   6.709   4.843  17.042  0.9959 -0.2311  0.9355
 4010TIP3    H236226   6.711   4.990  17.007 -1.3555 -0.0876  1.2217
 4011TIP3   OH236227   3.176   2.822  18.871  0.7439  0.4106  0.5878
 4011TIP3    H136228   3.196   2.734  18.902 -1.3213 -0.4343 -0.3106
 4011TIP3    H236229   3.082   2.832  18.888  0.3987  1.4358 -1.6758
 4012TIP3   OH236230   6.215   4.706  19.003  0.0584 -0.2243 -0.2850
 4012TIP3    H136231   6.261   4.767  19.061  1.8791 -2.1423  0.4129
 4012TIP3    H236232   6.130   4.692  19.046  0.3032  0.4772  0.4523
 4013TIP3   OH236233   4.918   0.176  18.170  0.3431 -0.0616  0.5325
 4013TIP3    H136234   4.988   0.123  18.131  0.3169 -0.0519  0.4713
 4013TIP3    H236235   4.918   0.257  18.119 -0.4232 -0.4880 -0.1704
 4014TIP3   OH236236   6.113   2.136  19.608  0.1226 -0.1564  0.0798
 4014TIP3    H136237   6.196   2.178  19.590 -0.4162  0.4895 -0.9683
 4014TIP3    H236238   6.136   2.050  19.643  1.2128 -0.3802 -1.1646
 4015TIP3   OH236239   7.319   1.511  17.706  0.2121 -0.2216  0.4279
 4015TIP3    H136240   7.394   1.563  17.677 -0.4788  0.7478  0.3373
 4015TIP3    H236241   7.358   1.435  17.749  1.2523  0.5821  0.9599
 4016TIP3   OH236242   1.643   4.252  18.084 -0.3370 -0.3631 -0.5187
 4016TIP3    H136243   1.588   4.327  18.107  0.4223  0.9266 -2.5808
 4016TIP3    H236244   1.584   4.193  18.038 -0.6889 -0.5015  0.1002
 4017TIP3   OH236245   6.055   1.775  19.335  0.0830 -0.1520 -0.0986
 4017TIP3    H136246   6.050   1.847  19.399  1.5932  1.6639 -1.8964
 4017TIP3    H236247   6.105   1.707  19.380  1.0053  1.0355  0.7563
 4018TIP3   OH236248   4.590   2.926  18.342  0.3159 -0.6912  0.3081
 4018TIP3    H136249   4.649   2.902  18.414 -1.3526 -1.0148  1.6284
 4018TIP3    H236250   4.561   2.842  18.306 -0.5745 -0.5853  0.7488
 4019TIP3   OH236251   0.457   7.604  17.164  0.0996 -0.0303 -0.1291
 4019TIP3    H136252   0.400   7.680  17.171  0.2757  0.0379  0.6521
 4019TIP3    H236253   0.409   7.543  17.108 -0.5827  0.1688  0.2364
 4020TIP3   OH236254   0.820   2.512  18.270  0.1696  0.3185  0.2317
 4020TIP3    H136255   0.892   2.493  18.330  0.0629  0.6742  0.4757
 4020TIP3    H236256   0.796   2.603  18.290 -2.9667 -0.8795  2.9788
 4021TIP3   OH236257   0.005   5.395  18.906  0.3246 -0.1445  0.0375
 4021TIP3    H136258   0.084   5.355  18.871  1.5899  2.2842 -0.1391
 4021TIP3    H236259  -0.024   5.455  18.838 -1.7233 -0.9908  0.1049
 4022TIP3   OH236260   5.172   4.268  19.157 -0.5345 -0.3250  0.0104
 4022TIP3    H136261   5.168   4.217  19.238  0.0509 -1.6319 -0.7434
 4022TIP3    H236262   5.265   4.284  19.143 -0.7221  1.4344  0.4750
 4023TIP3   OH236263   2.530   1.775  18.369  0.1757  0.5596 -0.0701
 4023TIP3    H136264   2.472   1.701  18.387 -1.2712  1.8076  0.7125
 4023TIP3    H236265   2.612   1.753  18.414 -0.1874 -0.5783  0.0785
 4024TIP3   OH236266   2.739   2.822  18.064 -0.5893 -0.0298  0.1405
 4024TIP3    H136267   2.711   2.900  18.112  0.4456  0.7455 -0.4626
 4024TIP3    H236268   2.703   2.749  18.113 -0.5804  0.7915  1.4096
 4025TIP3   OH236269   2.688   1.825  19.025  0.1260  0.1955 -0.3621
 4025TIP3    H136270   2.691   1.917  19.048  0.7771  0.0805  0.0610
 4025TIP3    H236271   2.769   1.789  19.061  0.4393 -0.3058 -1.5157
 4026TIP3   OH236272   2.362   3.041  18.578  0.0498 -0.2477  0.3675
 4026TIP3    H136273   2.447   3.029  18.621  1.4120 -1.3957 -2.3938
 4026TIP3    H236274   2.372   3.121  18.526 -1.0143  0.2545  0.8947
 4027TIP3   OH236275   0.043   0.836  18.137 -0.3753 -0.3388 -0.4750
 4027TIP3    H136276   0.129   0.840  18.094 -0.3692  0.4614 -0.3990
 4027TIP3    H236277   0.011   0.926  18.136  0.1419 -0.0328  2.2552
 4028TIP3   OH236278   7.059   3.181  18.285 -0.9929 -0.0441  0.1643
 4028TIP3    H136279   7.059   3.181  18.189  0.0087  0.7987  0.1333
 4028TIP3    H236280   7.074   3.090  18.310 -2.4948 -0.4776 -0.4440
 4029TIP3   OH236281   5.480   6.687  18.567  0.0974 -0.6318  0.2333
 4029TIP3    H136282   5.566   6.728  18.579  0.4289 -1.3969  0.4973
 4029TIP3    H236283   5.489   6.636  18.487 -0.4477  0.1299 -0.3316
 4030TIP3   OH236284   6.671   6.952  18.135  0.3314  0.1136  0.1719
 4030TIP3    H136285   6.761   6.958  18.167  1.8729 -0.9425 -3.5081
 4030TIP3    H236286   6.634   7.039  18.152  2.4391  0.9650  0.6950
 4031TIP3   OH236287   1.227   5.300  18.149 -0.2775  0.2021  0.0147
 4031TIP3    H136288   1.288   5.321  18.220  0.0430  0.8107 -0.4296
 4031TIP3    H236289   1.274   5.240  18.093 -0.0234  0.7802 -0.4034
 4032TIP3   OH236290   2.392   6.645  18.099  0.8871  0.0800  0.3711
 4032TIP3    H136291   2.401   6.627  18.192 -3.1583  0.7601  1.0587
 4032TIP3    H236292   2.391   6.558  18.058 -2.1071 -0.6083  1.6622
 4033TIP3   OH236293   3.322   3.519  18.997  0.2563  0.0378 -0.1374
 4033TIP3    H136294   3.304   3.556  19.083  1.9191 -1.1267  0.7518
 4033TIP3    H236295   3.407   3.554  18.972  1.0668 -1.7724 -0.0389
 4034TIP3   OH236296   6.891   2.336  17.754  0.3897 -0.0387 -0.1999
 4034TIP3    H136297   6.911   2.262  17.696  0.3575  0.6978 -1.1727
 4034TIP3    H236298   6.958   2.401  17.733  0.6198  0.0830  0.8938
 4035TIP3   OH236299   4.022   3.504  17.986  0.3565 -0.2091 -0.3099
 4035TIP3    H136300   3.991   3.584  18.029  0.4451 -0.4472  0.2079
 4035TIP3    H236301   3.964   3.436  18.019  0.7916 -0.4913 -0.1195
 4036TIP3   OH236302   4.766   7.344  17.069 -0.2170  0.1965  0.2141
 4036TIP3    H136303   4.828   7.351  16.996 -0.5477  0.8918 -0.0084
 4036TIP3    H236304   4.681   7.333  17.027 -0.4870  1.1886  0.4682
 4037TIP3   OH236305   5.023   0.038  18.517 -0.1835  0.5497  0.3348
 4037TIP3    H136306   4.983   0.115  18.558  0.0125  0.3062  1.0076
 4037TIP3    H236307   5.107   0.028  18.562 -1.0715 -1.2471  1.7256
 4038TIP3   OH236308   3.187   2.121  19.356 -0.1177 -0.7603 -0.0157
 4038TIP3    H136309   3.180   2.200  19.302  1.6380 -1.8353 -1.9589
 4038TIP3    H236310   3.267   2.134  19.406 -0.1133 -1.0813  0.0591
 4039TIP3   OH236311   7.481   2.817  18.203  0.2264  0.1048 -0.0414
 4039TIP3    H136312   7.424   2.875  18.152 -0.4291 -1.8082 -1.5900
 4039TIP3    H236313   7.542   2.781  18.139  1.8639  0.5001  1.2339
 4040TIP3   OH236314   3.134   7.232  17.794 -0.0100 -0.4944  0.2442
 4040TIP3    H136315   3.070   7.254  17.726  1.0219 -0.4373 -0.7332
 4040TIP3    H236316   3.116   7.294  17.864 -0.1066  0.4553 -0.5997
 4041TIP3   OH236317   5.874   0.424  18.876 -0.0645 -0.1838 -0.0061
 4041TIP3    H136318   5.801   0.457  18.928  0.2507  0.7155 -0.1234
 4041TIP3    H236319   5.912   0.354  18.929 -0.1588  0.2713  0.6639
 4042TIP3   OH236320   6.120   2.149  19.019  0.4774  0.2210 -0.0046
 4042TIP3    H136321   6.193   2.193  18.976 -0.1549  2.3910  1.0096
 4042TIP3    H236322   6.048   2.212  19.013 -0.6698 -0.9502  0.9890
 4043TIP3   OH236323   2.264   7.040  18.792  0.4801 -0.2143  0.1764
 4043TIP3    H136324   2.219   7.048  18.708  1.7849  0.4277 -0.5028
 4043TIP3    H236325   2.348   7.084  18.778  1.9031 -2.4932  0.9702
 4044TIP3   OH236326   4.184   7.347  18.902 -0.0112  0.4837  0.5910
 4044TIP3    H136327   4.240   7.279  18.864  2.2125  0.1198  4.1217
 4044TIP3    H236328   4.105   7.300  18.929 -1.4537  0.6689 -2.7292
 4045TIP3   OH236329   4.646   3.937  17.827  0.7898 -0.2969  0.4201
 4045TIP3    H136330   4.662   3.843  17.840  1.4500 -0.1998  0.3453
 4045TIP3    H236331   4.734   3.976  17.826  0.5199  0.9798  5.1544
 4046TIP3   OH236332   4.584   6.743  17.453 -0.1279  0.3690  0.4064
 4046TIP3    H136333   4.643   6.701  17.390  0.3623  2.0480 -0.3195
 4046TIP3    H236334   4.585   6.686  17.529  0.0677 -1.1928 -0.7229
 4047TIP3   OH236335   1.533   4.831  18.011  0.0388 -0.0797 -0.9609
 4047TIP3    H136336   1.532   4.924  18.034  1.1159  0.1241 -1.6394
 4047TIP3    H236337   1.613   4.821  17.959 -0.8552 -1.0856 -2.1950
 4048TIP3   OH236338   5.424   6.283  17.441 -0.3512  0.1563 -0.6634
 4048TIP3    H136339   5.487   6.246  17.379 -0.5988  3.2601 -3.0151
 4048TIP3    H236340   5.404   6.370  17.406 -1.5231  1.6359  3.1461
 4049TIP3   OH236341   2.133   6.341  19.500 -0.1566 -0.1388 -0.2225
 4049TIP3    H136342   2.108   6.356  19.591  0.0952 -0.5590 -0.0810
 4049TIP3    H236343   2.137   6.428  19.461 -1.0117 -0.0076 -0.0278
 4050TIP3   OH236344   0.066   6.879  18.798 -0.2893 -0.1353 -0.1843
 4050TIP3    H136345   0.038   6.903  18.886  0.7057  1.6092 -0.2885
 4050TIP3    H236346   0.114   6.796  18.810 -0.2117  0.0521  0.8973
 4051TIP3   OH236347   3.451   2.781  17.794 -0.0367 -0.0173 -0.0640
 4051TIP3    H136348   3.361   2.776  17.825 -1.1242  0.5919 -2.8178
 4051TIP3    H236349   3.455   2.864  17.746  1.8545 -0.2534 -0.3866
 4052TIP3   OH236350   5.738   0.823  19.238  0.6733  0.1763 -0.1030
 4052TIP3    H136351   5.793   0.808  19.162  0.1815 -0.0541 -0.4163
 4052TIP3    H236352   5.800   0.837  19.310  1.1442 -0.4458 -0.3746
 4053TIP3   OH236353   3.205   7.585  18.791 -0.0148 -0.0997  0.1122
 4053TIP3    H136354   3.146   7.633  18.849  0.9092  1.5590 -0.2575
 4053TIP3    H236355   3.217   7.500  18.835  0.6176  1.0706  2.3781
 4054TIP3   OH236356   2.056   3.998  18.662  0.2978 -0.3547  0.3051
 4054TIP3    H136357   1.986   4.054  18.696  0.0340  0.5431 -1.6027
 4054TIP3    H236358   2.111   3.979  18.738 -0.5136  1.1611  1.3117
 4055TIP3   OH236359   3.610   6.971  18.933  0.3167  0.2948  0.6324
 4055TIP3    H136360   3.527   6.934  18.905  0.4847  0.0449  0.4625
 4055TIP3    H236361   3.663   6.895  18.959  1.5447  0.1596 -1.9921
 4056TIP3   OH236362   3.597   2.713  18.113 -0.4644 -0.0972 -0.1112
 4056TIP3    H136363   3.620   2.728  18.022 -0.4513 -0.6814 -0.2118
 4056TIP3    H236364   3.538   2.637  18.111 -1.8901  0.9405  0.1970
 4057TIP3   OH236365   4.968   0.384  18.003  0.3492  0.1533 -0.2334
 4057TIP3    H136366   4.893   0.437  17.975 -1.4669 -1.8999  0.4210
 4057TIP3    H236367   5.012   0.359  17.922 -0.8400 -0.1725 -0.8025
 4058TIP3   OH236368   1.827   4.678  17.623 -0.2367 -0.0117 -0.0350
 4058TIP3    H136369   1.916   4.702  17.649  0.4621 -2.2125 -0.1983
 4058TIP3    H236370   1.793   4.628  17.697 -0.8754 -0.2366 -0.4728
 4059TIP3   OH236371   0.381   2.959  17.754  0.5503 -0.0493 -0.0795
 4059TIP3    H136372   0.456   2.906  17.727  0.5302 -0.0787 -0.0772
 4059TIP3    H236373   0.306   2.918  17.711  0.3174 -0.9486  1.1374
 4060TIP3   OH236374   2.814   5.401  17.926  0.6387 -0.6700  0.3998
 4060TIP3    H136375   2.771   5.330  17.878 -2.2555  0.7940  0.6331
 4060TIP3    H236376   2.876   5.439  17.864  1.4976 -2.6753 -0.0476
 4061TIP3   OH236377   3.295   5.865  17.353 -0.1314 -0.2460  0.4045
 4061TIP3    H136378   3.298   5.772  17.332 -1.1546 -0.0225 -0.9061
 4061TIP3    H236379   3.202   5.885  17.364  0.1311  0.4610  1.5143
 4062TIP3   OH236380   2.591   2.948  17.039  0.4172 -0.2519  0.1086
 4062TIP3    H136381   2.509   2.962  16.992 -0.0488 -0.3124  0.8797
 4062TIP3    H236382   2.599   2.853  17.047  0.8013 -0.2642 -0.3606
 4063TIP3   OH236383   1.289   6.136  17.164 -0.2108  0.6806 -0.5735
 4063TIP3    H136384   1.226   6.064  17.157 -1.2238  1.4994 -0.1696
 4063TIP3    H236385   1.252   6.205  17.109  1.3581  0.5046 -1.9184
 4064TIP3   OH236386   0.065   3.808  19.294 -0.7778  0.0650 -0.0702
 4064TIP3    H136387   0.011   3.856  19.357 -0.7439  0.2488 -0.1776
 4064TIP3    H236388   0.154   3.838  19.310 -0.7948  0.2723 -0.3408
 4065TIP3   OH236389   7.294   3.349  17.214 -0.1701 -0.2223  0.1878
 4065TIP3    H136390   7.345   3.272  17.189  1.1556  1.1056 -1.4700
 4065TIP3    H236391   7.205   3.328  17.186 -0.2051 -1.8150  1.3609
 4066TIP3   OH236392   7.008   1.466  17.804 -0.3709 -0.8686  0.2440
 4066TIP3    H136393   6.973   1.418  17.879 -0.4729 -1.0536  0.0764
 4066TIP3    H236394   7.049   1.400  17.749 -1.2452 -0.8917 -0.4040
 4067TIP3   OH236395   2.759   7.049  17.991 -0.4037 -0.0084 -0.3260
 4067TIP3    H136396   2.854   7.048  17.988 -0.3710 -0.7692  0.4720
 4067TIP3    H236397   2.731   6.977  17.935 -0.4283 -0.9059  0.7840
 4068TIP3   OH236398   4.814   4.822  17.248 -0.0292  0.2524 -0.0039
 4068TIP3    H136399   4.769   4.780  17.175  0.3216  1.5246 -0.9970
 4068TIP3    H236400   4.907   4.814  17.226  0.1660 -0.5676  1.0174
 4069TIP3   OH236401   5.485   4.287  17.881  0.5839  0.1096  0.1699
 4069TIP3    H136402   5.560   4.312  17.827 -0.7459  1.5581 -1.0917
 4069TIP3    H236403   5.441   4.369  17.902  0.2338 -0.5594  2.2922
 4070TIP3   OH236404   5.553   5.670  17.939 -0.0493  0.5095  0.2400
 4070TIP3    H136405   5.642   5.642  17.920 -0.0160  1.1143 -0.5576
 4070TIP3    H236406   5.533   5.631  18.024  0.9308  0.2820  0.3771
 4071TIP3   OH236407   1.163   5.150  19.170  0.1453 -0.3911 -0.2733
 4071TIP3    H136408   1.205   5.236  19.173  0.0036 -0.3464  0.6307
 4071TIP3    H236409   1.132   5.143  19.080  2.6544 -0.7195 -1.2094
 4072TIP3   OH236410   5.520   0.088  17.050  0.0837 -0.1479  0.0074
 4072TIP3    H136411   5.568   0.143  17.112 -1.5879  1.3125  0.0850
 4072TIP3    H236412   5.475   0.024  17.105 -0.9572  0.8019  0.2937
 4073TIP3   OH236413   3.576   4.651  17.610  0.1999  0.4165  0.0134
 4073TIP3    H136414   3.587   4.640  17.516  0.0847 -0.0516  0.0517
 4073TIP3    H236415   3.518   4.579  17.636 -0.0213  0.7274  0.3907
 4074TIP3   OH236416   1.885   3.099  18.007 -0.0292  0.0337  0.3306
 4074TIP3    H136417   1.920   3.162  17.945  0.6588  0.2483  0.9140
 4074TIP3    H236418   1.892   3.143  18.092 -1.8098  0.1118  0.4702
 4075TIP3   OH236419   2.157   6.352  18.716 -0.2005  0.3608  0.2459
 4075TIP3    H136420   2.179   6.405  18.639 -0.0081 -1.3760 -0.9518
 4075TIP3    H236421   2.136   6.416  18.784  1.1808  1.9762 -0.7783
 4076TIP3   OH236422   4.946   6.424  17.975  0.0006  0.3425 -0.3979
 4076TIP3    H136423   4.988   6.389  17.896 -0.6259 -1.7263  0.1307
 4076TIP3    H236424   4.957   6.355  18.040 -1.2761  1.1588  0.7328
 4077TIP3   OH236425   3.610   3.843  19.084  0.3606 -0.6043 -0.0913
 4077TIP3    H136426   3.687   3.855  19.139  0.3224  1.5028 -0.4011
 4077TIP3    H236427   3.536   3.868  19.139  0.1363 -0.3796 -0.4840
 4078TIP3   OH236428   5.035   4.676  18.494  0.0171  0.3128  0.3697
 4078TIP3    H136429   4.994   4.604  18.446  0.2770  1.7021 -2.1823
 4078TIP3    H236430   4.969   4.746  18.492  0.3507  0.6689  1.3700
 4079TIP3   OH236431   4.873   0.516  16.344  0.5948 -0.1178 -0.1210
 4079TIP3    H136432   4.831   0.574  16.281  0.6860  1.3288  1.1154
 4079TIP3    H236433   4.838   0.543  16.429 -0.0570 -2.4854  0.4367
 4080TIP3   OH236434   3.058   1.158  19.483  0.0127  0.7527 -0.3220
 4080TIP3    H136435   3.040   1.229  19.545 -2.0097 -1.0546  1.3346
 4080TIP3    H236436   2.997   1.174  19.411  0.0710  1.0973 -0.2963
 4081TIP3   OH236437   4.698   3.660  17.836  0.1695  0.2951 -0.1048
 4081TIP3    H136438   4.628   3.595  17.832 -0.4445  0.7335  2.1026
 4081TIP3    H236439   4.754   3.632  17.909  1.1365  1.0721 -0.5061
 4082TIP3   OH236440   1.868   4.340  19.090  0.3143 -0.3196 -0.1701
 4082TIP3    H136441   1.949   4.295  19.066  0.5643 -1.4383  2.5063
 4082TIP3    H236442   1.870   4.345  19.185 -2.2167  0.7242 -0.0922
 4083TIP3   OH236443   7.279   0.881  16.799 -0.2498  0.2282 -0.5555
 4083TIP3    H136444   7.216   0.917  16.737 -0.9162 -0.5148 -0.3254
 4083TIP3    H236445   7.318   0.957  16.841  0.0577  0.7361 -1.7285
 4084TIP3   OH236446   4.464   1.139  17.726  0.7177 -0.1409  0.4307
 4084TIP3    H136447   4.393   1.077  17.740 -0.8001  1.3905 -0.1013
 4084TIP3    H236448   4.513   1.138  17.808 -1.0930  0.1632  1.5793
 4085TIP3   OH236449   4.266   3.224  17.263 -0.3292  0.6543 -0.6123
 4085TIP3    H136450   4.203   3.233  17.193 -0.8358  1.2230 -0.0899
 4085TIP3    H236451   4.215   3.235  17.344  0.1110 -0.6534 -0.1196
 4086TIP3   OH236452   1.022   3.349  19.305  0.2048 -0.6224 -0.5353
 4086TIP3    H136453   0.939   3.304  19.288 -0.8388  0.7727  0.5341
 4086TIP3    H236454   0.997   3.426  19.357  2.1935 -0.1950 -0.1185
 4087TIP3   OH236455   2.899   4.596  18.174 -0.4418  0.8635 -0.0012
 4087TIP3    H136456   2.959   4.540  18.223 -0.3491 -1.1401 -2.2199
 4087TIP3    H236457   2.815   4.587  18.218  0.0686  0.8001  0.9814
 4088TIP3   OH236458   4.577   4.673  19.422  0.3641  0.3397 -0.1286
 4088TIP3    H136459   4.604   4.592  19.467 -1.6175  0.6397  1.7517
 4088TIP3    H236460   4.516   4.644  19.355  2.4236  0.0100 -1.9864
 4089TIP3   OH236461   4.539   5.908  18.940 -0.0212 -0.8311 -0.0136
 4089TIP3    H136462   4.589   5.983  18.972 -0.4986 -0.1525 -0.8082
 4089TIP3    H236463   4.466   5.947  18.893 -0.0903 -1.8003 -0.7334
 4090TIP3   OH236464   2.452   0.805  17.069 -0.1157  0.1248  0.0123
 4090TIP3    H136465   2.396   0.792  16.993 -0.8842  0.5253  0.4923
 4090TIP3    H236466   2.515   0.872  17.042 -0.0733 -0.0919 -0.4265
 4091TIP3   OH236467   0.271   2.407  17.431  0.1623  0.3583  0.2070
 4091TIP3    H136468   0.315   2.423  17.348 -0.6979 -0.5938 -0.4729
 4091TIP3    H236469   0.338   2.369  17.488  0.3924 -0.4809 -0.6012
 4092TIP3   OH236470   1.427   1.719  17.993  0.2465 -0.5595 -0.4558
 4092TIP3    H136471   1.352   1.742  17.939 -2.3421  0.5800  3.2839
 4092TIP3    H236472   1.479   1.799  17.998  0.1216 -0.4624 -0.7075
 4093TIP3   OH236473   4.894   3.448  19.029  1.1543 -0.4064  0.0961
 4093TIP3    H136474   4.855   3.499  18.959  1.5056  0.5887  0.6109
 4093TIP3    H236475   4.821   3.402  19.070  0.8490 -0.3763 -0.4140
 4094TIP3   OH236476   3.764   2.763  18.318  0.4767  0.1190 -0.5136
 4094TIP3    H136477   3.700   2.725  18.258 -1.7270  0.1565  1.6705
 4094TIP3    H236478   3.796   2.689  18.370  2.7256  0.0067 -1.9015
 4095TIP3   OH236479   1.854   0.201  19.201  0.2821  0.2446  0.3338
 4095TIP3    H136480   1.920   0.187  19.268 -0.5428  0.8052  1.2982
 4095TIP3    H236481   1.782   0.246  19.247 -1.2727 -1.3883 -0.3581
 4096TIP3   OH236482   6.774   7.399  17.988 -0.0921  0.2257 -0.5016
 4096TIP3    H136483   6.799   7.345  18.062 -0.1333  1.2130  0.2483
 4096TIP3    H236484   6.691   7.439  18.014 -0.0574  0.6628 -1.0326
 4097TIP3   OH236485   1.402   0.622  18.171 -0.0512  0.2184 -0.2415
 4097TIP3    H136486   1.317   0.649  18.135  0.5153  0.7509 -1.2436
 4097TIP3    H236487   1.461   0.625  18.096  1.2893  1.8237  0.7952
 4098TIP3   OH236488   4.180   4.546  18.929  0.9255  0.1931  0.2551
 4098TIP3    H136489   4.211   4.509  18.846 -1.8478  0.9033 -1.2326
 4098TIP3    H236490   4.114   4.485  18.960  1.5186  0.2407  1.6525
 4099TIP3   OH236491   0.116   2.590  18.224  0.0225  0.0926  0.4020
 4099TIP3    H136492   0.043   2.638  18.262  0.1028  0.3759  0.2025
 4099TIP3    H236493   0.079   2.549  18.146  0.4332  1.5015 -0.5762
 4100TIP3   OH236494   1.730   1.407  18.929  0.5358 -0.3980 -0.2124
 4100TIP3    H136495   1.802   1.465  18.905 -1.0043  1.2859 -1.0384
 4100TIP3    H236496   1.751   1.324  18.885  2.9671 -0.6688  1.2941
 4101TIP3   OH236497   4.376   5.896  19.274  0.2029 -0.5520 -0.1023
 4101TIP3    H136498   4.313   5.968  19.280  1.3001  0.4288  0.0928
 4101TIP3    H236499   4.445   5.919  19.336  0.9280 -1.4107 -0.5645
 4102TIP3   OH236500   2.736   2.340  18.384  0.1977  0.1263 -0.0870
 4102TIP3    H136501   2.643   2.364  18.381  0.2787  0.3638 -1.4825
 4102TIP3    H236502   2.781   2.416  18.346  1.1542  0.7672  2.1894
 4103TIP3   OH236503   2.231   0.841  17.795  0.3329 -0.2237 -0.1260
 4103TIP3    H136504   2.262   0.765  17.845  2.2462 -0.3590 -1.4168
 4103TIP3    H236505   2.270   0.916  17.839  0.8898 -0.2305 -0.6109
 4104TIP3   OH236506   4.902   1.338  17.233  0.8138 -0.2614 -0.0334
 4104TIP3    H136507   4.846   1.269  17.198 -0.1881  0.0710  0.8713
 4104TIP3    H236508   4.990   1.314  17.205  0.4814 -1.8958  0.2323
 4105TIP3   OH236509   0.667   7.078  19.180 -0.1287  0.2857  0.1572
 4105TIP3    H136510   0.703   7.149  19.128  2.7813  0.9883  2.7619
 4105TIP3    H236511   0.693   6.998  19.134  1.1241  0.8888 -0.2221
 4106TIP3   OH236512   2.010   2.306  18.772 -0.5224  0.0281 -0.4653
 4106TIP3    H136513   2.064   2.371  18.728  0.6903  0.0996  1.0322
 4106TIP3    H236514   1.932   2.298  18.717 -0.2936  2.0516 -1.1605
 4107TIP3   OH236515   0.964   6.056  18.004 -0.0414  0.6486 -0.2889
 4107TIP3    H136516   0.868   6.061  17.998 -0.0746 -0.4264 -0.8504
 4107TIP3    H236517   0.992   6.033  17.916  0.4770 -2.1230  0.4864
 4108TIP3   OH236518   5.743   2.119  19.214 -0.1002  0.5809  0.3671
 4108TIP3    H136519   5.785   2.163  19.140  1.0155  1.7212  1.6326
 4108TIP3    H236520   5.810   2.060  19.248 -0.7824 -0.3263  0.1770
 4109TIP3   OH236521   4.741   4.624  18.412  0.4216  0.4068 -0.2148
 4109TIP3    H136522   4.686   4.682  18.361 -1.4739 -1.0507  0.0510
 4109TIP3    H236523   4.680   4.576  18.469  1.8233 -1.9420 -0.5297
 4110TIP3   OH236524   4.408   3.516  19.626  0.6523  0.2439 -0.2415
 4110TIP3    H136525   4.420   3.427  19.659 -0.8965 -0.1288 -0.5799
 4110TIP3    H236526   4.314   3.531  19.633  0.8415  1.7306 -0.5368
 4111TIP3   OH236527   7.608   0.309  18.274 -0.1574 -0.3379  0.0121
 4111TIP3    H136528   7.621   0.216  18.292  1.6245 -0.6148 -2.2244
 4111TIP3    H236529   7.677   0.353  18.324 -0.3554 -0.3203  0.2679
 4112TIP3   OH236530   3.918   7.349  18.562  0.1941  0.1374 -0.1363
 4112TIP3    H136531   3.923   7.437  18.524 -0.9327 -0.2883 -1.3903
 4112TIP3    H236532   3.891   7.363  18.653  0.6277  1.1143 -0.1511
 4113TIP3   OH236533   1.941   2.019  17.752 -0.1318 -0.4870 -0.1482
 4113TIP3    H136534   2.030   1.999  17.781 -0.3161 -1.3925 -0.1913
 4113TIP3    H236535   1.954   2.076  17.676  0.4211 -0.7943 -0.2948
 4114TIP3   OH236536   6.661   0.481  17.342 -0.1975 -0.8361 -0.1488
 4114TIP3    H136537   6.700   0.427  17.273  1.8860  1.1808 -0.6604
 4114TIP3    H236538   6.681   0.435  17.423 -2.5928 -3.1940 -0.7651
 4115TIP3   OH236539   1.227   3.618  18.532  0.9677  0.1953  0.4102
 4115TIP3    H136540   1.176   3.545  18.565  1.1370  0.2463  0.7993
 4115TIP3    H236541   1.317   3.585  18.528  1.1697  0.5913  1.2929
 4116TIP3   OH236542   0.513   5.093  19.312 -0.3827  0.1523  0.4272
 4116TIP3    H136543   0.498   5.134  19.227  0.7462 -0.4637 -0.1047
 4116TIP3    H236544   0.511   4.999  19.294 -3.1590 -0.1117  1.6544
 4117TIP3   OH236545   1.882   5.938  18.489  0.3203  0.0538 -0.0439
 4117TIP3    H136546   1.883   6.033  18.497  0.7280  0.1658 -1.1953
 4117TIP3    H236547   1.974   5.914  18.481  0.1095 -0.1756 -2.2429
 4118TIP3   OH236548   6.196   2.688  16.994 -0.1402  0.4482  0.3184
 4118TIP3    H136549   6.132   2.619  16.982 -0.4609  0.8950 -0.6938
 4118TIP3    H236550   6.145   2.764  17.023  0.2469  0.2041  1.7191
 4119TIP3   OH236551   2.775   6.690  18.124 -0.4596 -0.0126 -0.1894
 4119TIP3    H136552   2.857   6.648  18.097 -0.1687  0.2102  0.3204
 4119TIP3    H236553   2.754   6.750  18.052 -1.5223 -1.8484 -1.4832
 4120TIP3   OH236554   3.499   6.566  18.638  0.0492 -0.2153 -0.5876
 4120TIP3    H136555   3.471   6.476  18.619  2.4074 -0.7452 -1.9723
 4120TIP3    H236556   3.520   6.565  18.732 -1.1246 -0.7293 -0.3066
 4121TIP3   OH236557   2.884   6.566  18.887 -0.2896  0.4176  0.6138
 4121TIP3    H136558   2.846   6.481  18.863  0.3771 -0.2248  1.7603
 4121TIP3    H236559   2.948   6.545  18.955 -0.5767  1.9245  1.3782
 4122TIP3   OH236560   6.686   1.403  17.937 -0.1594  0.0319 -0.0886
 4122TIP3    H136561   6.680   1.320  17.983 -2.3705  0.9728  1.4922
 4122TIP3    H236562   6.699   1.379  17.845  0.2742 -1.9942  0.4606
 4123TIP3   OH236563   0.448   6.958  19.305 -0.1534  0.0188 -0.0075
 4123TIP3    H136564   0.518   7.015  19.274  1.2540 -1.6474 -0.0476
 4123TIP3    H236565   0.370   6.985  19.256  1.0713  0.1584 -1.9608
 4124TIP3   OH236566   2.291   7.175  19.458 -0.0129 -0.2408  0.0226
 4124TIP3    H136567   2.381   7.150  19.436  0.1377 -0.1521  0.5238
 4124TIP3    H236568   2.296   7.267  19.482 -0.4757  0.1428 -1.2676
 4125TIP3   OH236569   7.051   7.251  18.412 -0.1715 -0.2750 -0.3976
 4125TIP3    H136570   7.132   7.239  18.361  0.7015 -1.6814  1.2307
 4125TIP3    H236571   7.079   7.245  18.503 -2.2877 -1.9751  0.2065
 4126TIP3   OH236572   4.568   5.384  18.074 -0.2065 -0.0465 -0.1188
 4126TIP3    H136573   4.489   5.403  18.024 -0.3546  0.1376  0.1846
 4126TIP3    H236574   4.569   5.289  18.083  0.0915 -0.1229 -0.9130
 4127TIP3   OH236575   3.888   4.737  18.427 -0.6736 -0.0122  0.2410
 4127TIP3    H136576   3.882   4.654  18.473 -0.8763 -1.2147 -1.8251
 4127TIP3    H236577   3.868   4.716  18.336 -0.5709  2.2803 -0.3920
 4128TIP3   OH236578   6.400   5.521  16.872  0.1817 -0.5580 -0.2967
 4128TIP3    H136579   6.493   5.514  16.896  0.5068  0.9496 -0.9889
 4128TIP3    H236580   6.398   5.494  16.780 -0.0672 -0.5268 -0.3006
 4129TIP3   OH236581   0.491   6.871  17.728  0.2682  0.0702 -0.3342
 4129TIP3    H136582   0.535   6.786  17.735 -1.0470 -0.6906 -0.8211
 4129TIP3    H236583   0.555   6.928  17.686  0.4626 -1.2703 -1.9471
 4130TIP3   OH236584   6.231   0.125  17.249  0.5594  0.0899 -0.0607
 4130TIP3    H136585   6.230   0.036  17.284 -0.6716 -0.2397 -0.8762
 4130TIP3    H236586   6.324   0.148  17.247  0.8195 -0.7170  1.2626
 4131TIP3   OH236587   1.248   6.045  18.338  0.5801 -0.1803 -0.1120
 4131TIP3    H136588   1.240   5.959  18.380  2.0504 -0.5226 -0.4392
 4131TIP3    H236589   1.301   6.097  18.398 -0.5662  0.6147  0.2263
 4132TIP3   OH236590   7.305   2.496  17.898  0.1481 -0.7491 -0.2082
 4132TIP3    H136591   7.381   2.525  17.949 -1.0980  0.7752  0.8679
 4132TIP3    H236592   7.332   2.508  17.806  1.1342 -0.0350  0.1566
 4133TIP3   OH236593   0.319   6.778  17.101  0.2086  1.1352  0.1807
 4133TIP3    H136594   0.271   6.699  17.076  0.4289  0.1839  2.5381
 4133TIP3    H236595   0.381   6.792  17.029 -0.3471 -0.3958 -0.6448
 4134TIP3   OH236596   5.034   5.948  18.793  0.4743 -0.1697 -0.0641
 4134TIP3    H136597   5.061   5.922  18.704 -0.4835  0.7970 -0.6620
 4134TIP3    H236598   5.082   6.029  18.810  0.0894  0.0466 -0.0022
 4135TIP3   OH236599   2.215   0.462  17.282 -0.1696  0.7593 -0.3845
 4135TIP3    H136600   2.256   0.543  17.252 -0.6821  0.5282 -1.7687
 4135TIP3    H236601   2.122   0.474  17.263 -0.0129 -0.9491 -2.5524
 4136TIP3   OH236602   0.115   1.789  18.088  0.0026  0.0470 -0.4894
 4136TIP3    H136603   0.024   1.767  18.110 -0.0203  0.3439 -0.2799
 4136TIP3    H236604   0.141   1.723  18.024  0.2655 -1.2416  0.8865
 4137TIP3   OH236605   2.108   7.160  17.316  0.5378  0.3107  0.7226
 4137TIP3    H136606   2.141   7.200  17.236 -1.2155  0.7379  0.1687
 4137TIP3    H236607   2.145   7.213  17.387 -1.3008  2.6935  0.0298
 4138TIP3   OH236608   4.571   0.161  18.118 -0.1026  0.5087 -0.2366
 4138TIP3    H136609   4.519   0.088  18.088 -0.4368  1.0364 -0.9594
 4138TIP3    H236610   4.565   0.158  18.213 -0.3678 -0.2082 -0.2762
 4139TIP3   OH236611   2.520   4.383  19.116  0.0074 -0.1700 -0.0401
 4139TIP3    H136612   2.540   4.352  19.204 -3.3044 -0.1877  0.8655
 4139TIP3    H236613   2.515   4.478  19.124  2.4056  0.0910 -0.9443
 4140TIP3   OH236614   3.836   7.676  17.834 -0.2911 -0.5970 -0.6557
 4140TIP3    H136615   3.886   7.595  17.843  0.5899 -0.1238 -1.1535
 4140TIP3    H236616   3.744   7.649  17.841  0.0185 -1.5080  0.0528
 4141TIP3   OH236617   0.943   0.145  18.854 -0.2720 -0.6422 -0.4564
 4141TIP3    H136618   1.018   0.198  18.826  0.0347 -0.7526  0.1423
 4141TIP3    H236619   0.901   0.118  18.773  0.1080 -0.2491 -0.7895
 4142TIP3   OH236620   6.975   5.172  18.427  0.1140 -0.1218  0.1291
 4142TIP3    H136621   6.996   5.259  18.461  0.1166 -0.8231  2.0607
 4142TIP3    H236622   7.035   5.160  18.353  0.1539  1.4637 -0.1262
 4143TIP3   OH236623   1.882   4.583  16.737 -0.0760  0.4233 -0.3703
 4143TIP3    H136624   1.855   4.557  16.825  0.5807 -0.7273 -0.4809
 4143TIP3    H236625   1.804   4.623  16.698 -0.5062  0.5160  0.5638
 4144TIP3   OH236626   5.376   7.478  19.069 -0.0890 -0.3367  0.0202
 4144TIP3    H136627   5.342   7.426  19.141 -2.2253  0.8005 -0.0809
 4144TIP3    H236628   5.303   7.483  19.006  0.8679  0.7549 -1.0660
 4145TIP3   OH236629   0.285   7.501  18.930  0.3368  0.7147 -0.1741
 4145TIP3    H136630   0.317   7.564  18.865 -0.4507  1.0541 -0.2451
 4145TIP3    H236631   0.230   7.553  18.988 -0.1500  0.1283 -0.1062
 4146TIP3   OH236632   2.821   0.118  18.567  0.6143 -0.0286  0.3808
 4146TIP3    H136633   2.772   0.184  18.519  1.9805  0.8247  0.1168
 4146TIP3    H236634   2.841   0.050  18.501  3.3990  1.6288 -0.6734
 4147TIP3   OH236635   7.648   2.156  18.360 -0.1057  0.5246  0.1705
 4147TIP3    H136636   7.667   2.246  18.386  0.3735  0.9109 -1.4093
 4147TIP3    H236637   7.734   2.119  18.338 -0.6305  0.9952 -3.1084
 4148TIP3   OH236638   3.750   7.325  19.194 -0.0512  0.2237 -0.8047
 4148TIP3    H136639   3.744   7.280  19.110 -1.5398 -0.6592 -0.2658
 4148TIP3    H236640   3.661   7.354  19.213  0.0995 -0.2010  0.7699
 4149TIP3   OH236641   4.161   2.793  18.798  0.3610 -0.3657  0.2362
 4149TIP3    H136642   4.221   2.729  18.759 -1.1001 -1.4230 -0.3581
 4149TIP3    H236643   4.140   2.853  18.727  1.3150  0.5009  0.6579
 4150TIP3   OH236644   6.505   5.183  17.393  0.6570 -0.3331 -0.4547
 4150TIP3    H136645   6.488   5.165  17.486  1.0701  2.0295  0.1469
 4150TIP3    H236646   6.442   5.251  17.370  1.1762 -0.2415 -1.6449
 4151TIP3   OH236647   0.714   5.822  18.843  0.3515 -0.0850  0.5600
 4151TIP3    H136648   0.681   5.892  18.787  0.2666 -0.1266  0.5564
 4151TIP3    H236649   0.808   5.818  18.824  1.1931  2.6231  3.3573
 4152TIP3   OH236650   6.475   1.873  18.829 -0.5132  0.0623  0.2658
 4152TIP3    H136651   6.408   1.838  18.888 -1.0278  1.5604  0.6313
 4152TIP3    H236652   6.426   1.919  18.761  0.1237  1.1971  0.5442
 4153TIP3   OH236653   5.903   6.585  17.834 -0.0580 -0.2760 -0.3519
 4153TIP3    H136654   5.820   6.539  17.823  1.1070 -2.1644 -1.7473
 4153TIP3    H236655   5.905   6.649  17.763  0.1455 -1.0080 -1.0186
 4154TIP3   OH236656   1.455   3.847  16.886  0.7718 -0.5044  0.4288
 4154TIP3    H136657   1.531   3.797  16.855  0.7979 -0.5175  0.5143
 4154TIP3    H236658   1.450   3.922  16.826  0.0319 -1.2227 -0.4340
 4155TIP3   OH236659   3.644   5.186  17.107  0.0251 -0.7984  0.4232
 4155TIP3    H136660   3.706   5.240  17.057  1.7731 -1.6044  1.6073
 4155TIP3    H236661   3.670   5.096  17.088 -0.7697 -1.1623  0.9932
 4156TIP3   OH236662   1.909   3.659  19.219 -0.0487  0.4953 -0.3865
 4156TIP3    H136663   1.943   3.686  19.134 -0.1932 -1.9458 -1.3051
 4156TIP3    H236664   1.814   3.664  19.211 -0.1118 -0.9328 -0.8637
 4157TIP3   OH236665   0.562   2.445  18.515 -0.0804  0.0480  0.1538
 4157TIP3    H136666   0.493   2.509  18.498 -0.0589  0.1913  0.5988
 4157TIP3    H236667   0.548   2.377  18.449 -1.7860 -0.8587  1.3671
 4158TIP3   OH236668   0.766   0.077  18.633  0.0216 -0.1457  0.6900
 4158TIP3    H136669   0.693   0.015  18.641  0.4799 -0.4948  2.6389
 4158TIP3    H236670   0.726   0.157  18.600 -1.0437 -0.6572  0.6866
 4159TIP3   OH236671   2.037   2.138  16.976 -0.1842  0.2182 -0.1185
 4159TIP3    H136672   2.038   2.045  17.000  2.1765  0.8910  3.1078
 4159TIP3    H236673   1.958   2.172  17.018  0.4521  0.1315  1.2135
 4160TIP3   OH236674   4.085   1.215  18.668  0.1326  0.1221 -0.2120
 4160TIP3    H136675   4.156   1.152  18.654 -0.9546 -1.4265  0.8606
 4160TIP3    H236676   4.006   1.166  18.646 -0.6865  1.5350 -0.5210
 4161TIP3   OH236677   1.854   5.191  18.977 -0.0934 -0.3140  0.1078
 4161TIP3    H136678   1.793   5.132  19.020 -0.2198  0.0806  0.4727
 4161TIP3    H236679   1.801   5.267  18.953 -0.4489 -1.2142 -2.3100
 4162TIP3   OH236680   1.741   0.684  17.724  0.8427 -0.0948 -0.6156
 4162TIP3    H136681   1.819   0.733  17.750  0.7565  0.5513 -1.5340
 4162TIP3    H236682   1.749   0.676  17.629 -1.1104  1.5957 -0.9763
 4163TIP3   OH236683   5.814   7.209  18.957  0.6825  0.0735 -0.4386
 4163TIP3    H136684   5.884   7.267  18.927  1.5407 -0.8920 -0.3780
 4163TIP3    H236685   5.781   7.169  18.877  0.5223  0.1759 -0.4224
 4164TIP3   OH236686   5.954   6.515  19.261  0.1551 -0.0080  0.4325
 4164TIP3    H136687   6.014   6.574  19.306 -0.6441  0.0033  1.5277
 4164TIP3    H236688   5.992   6.428  19.273  0.5919  0.1317  0.0557
 4165TIP3   OH236689   4.090   2.794  17.702  0.2784 -0.4452 -0.0024
 4165TIP3    H136690   4.052   2.816  17.618  2.8562 -1.0422 -1.4287
 4165TIP3    H236691   4.089   2.876  17.751 -0.0176  0.2447 -1.1296
 4166TIP3   OH236692   5.603   1.505  17.981 -0.2908  0.3928 -0.1420
 4166TIP3    H136693   5.631   1.592  18.008  0.0917  0.2705 -0.1368
 4166TIP3    H236694   5.599   1.455  18.063  1.6818 -0.2105 -0.3667
 4167TIP3   OH236695   4.713   1.023  18.674  0.4075  0.2681  0.0024
 4167TIP3    H136696   4.631   1.049  18.717 -0.3939 -0.3548 -1.1017
 4167TIP3    H236697   4.782   1.054  18.733 -0.6322  0.3762  1.2004
 4168TIP3   OH236698   2.920   2.365  19.117  0.1707 -0.3967  0.2728
 4168TIP3    H136699   2.935   2.324  19.032 -0.6845 -1.2383  0.5154
 4168TIP3    H236700   2.881   2.296  19.171  0.4451  0.2050  1.2670
 4169TIP3   OH236701   3.273   4.816  19.257 -0.4459 -0.1683  0.1138
 4169TIP3    H136702   3.245   4.841  19.169 -1.7272 -0.2916  0.4635
 4169TIP3    H236703   3.243   4.887  19.314 -1.5439 -1.0802  0.7191
 4170TIP3   OH236704   5.637   0.590  18.692 -0.3015 -0.2358  0.0976
 4170TIP3    H136705   5.615   0.516  18.635  0.8778 -0.8889  0.4718
 4170TIP3    H236706   5.693   0.646  18.638  0.4569 -0.6357  0.4542
 4171TIP3   OH236707   5.303   7.368  18.165 -0.5483 -0.4361 -0.1811
 4171TIP3    H136708   5.245   7.327  18.229 -0.0823 -0.6681  0.0929
 4171TIP3    H236709   5.286   7.462  18.173 -0.1500 -0.4293  0.6117
 4172TIP3   OH236710   6.052   5.095  19.011 -0.1588 -0.0283  0.4187
 4172TIP3    H136711   6.040   5.056  18.925  2.5553 -0.8139  0.2904
 4172TIP3    H236712   5.976   5.068  19.061 -1.8983  0.6007 -1.7288
 4173TIP3   OH236713   3.161   7.170  17.153  0.6351 -0.0653 -0.6612
 4173TIP3    H136714   3.159   7.265  17.136 -1.4710  0.0882  0.1435
 4173TIP3    H236715   3.135   7.131  17.069 -1.2190  0.2571 -0.2876
 4174TIP3   OH236716   1.727   4.994  18.269 -0.5759  0.6649 -0.0833
 4174TIP3    H136717   1.721   4.899  18.283  3.1045  0.1877 -0.6973
 4174TIP3    H236718   1.682   5.009  18.186 -3.4573 -0.0037  1.2297
 4175TIP3   OH236719   0.064   1.693  17.392  0.0780 -0.1010 -0.2773
 4175TIP3    H136720  -0.004   1.676  17.327 -1.4603  0.6249  1.0668
 4175TIP3    H236721   0.034   1.772  17.438  1.2778 -0.3852  1.0696
 4176TIP3   OH236722   0.641   1.649  18.204 -0.0498  0.4242  0.2321
 4176TIP3    H136723   0.622   1.725  18.149 -0.1334 -0.3148 -0.8094
 4176TIP3    H236724   0.737   1.641  18.202  0.2411  2.2436  2.8290
 4177TIP3   OH236725   4.587   1.341  17.218  0.2158 -0.2606 -0.1825
 4177TIP3    H136726   4.526   1.281  17.260 -1.2189  1.2303 -0.0139
 4177TIP3    H236727   4.662   1.287  17.196 -0.3111 -1.7640  1.4205
 4178TIP3   OH236728   1.161   6.884  16.772 -0.1300 -0.1659 -0.1727
 4178TIP3    H136729   1.228   6.819  16.793  0.7746  0.1989 -1.7721
 4178TIP3    H236730   1.196   6.966  16.807 -0.0217 -0.0881 -0.4564
 4179TIP3   OH236731   6.521   6.578  17.204 -0.3768  0.4652 -0.0625
 4179TIP3    H136732   6.515   6.644  17.135  0.7076 -0.2979 -0.9409
 4179TIP3    H236733   6.451   6.599  17.265  0.6514  3.1308  0.3202
 4180TIP3   OH236734   7.386   4.457  16.744 -0.5487 -0.0308  0.1112
 4180TIP3    H136735   7.309   4.512  16.760 -0.6968 -0.0483 -0.5059
 4180TIP3    H236736   7.433   4.503  16.675 -0.5104 -0.5215 -0.1907
 4181TIP3   OH236737   7.130   7.595  18.606  0.2432 -0.0759 -0.0748
 4181TIP3    H136738   7.203   7.580  18.546  2.1186 -1.0904  2.2680
 4181TIP3    H236739   7.171   7.633  18.684 -1.6756 -0.9710  1.4581
 4182TIP3   OH236740   6.845   2.390  18.771  0.1828  0.5439  0.5152
 4182TIP3    H136741   6.841   2.406  18.866  0.0663  0.9831  0.4394
 4182TIP3    H236742   6.902   2.314  18.762  0.2325  0.5280  0.9390
 4183TIP3   OH236743   4.927   7.202  17.930  0.3243 -0.5332 -0.2555
 4183TIP3    H136744   4.922   7.276  17.869 -0.7955  0.0639  0.5321
 4183TIP3    H236745   4.836   7.186  17.956  0.7854 -0.7654  1.2721
 4184TIP3   OH236746   2.475   6.903  18.080 -0.1445  0.0183  0.8234
 4184TIP3    H136747   2.561   6.903  18.122  1.3753  0.0765 -2.0463
 4184TIP3    H236748   2.455   6.810  18.067  1.4343 -0.0549 -1.9368
 4185TIP3   OH236749   5.357   5.284  17.741 -0.4998  0.1573 -0.3061
 4185TIP3    H136750   5.447   5.311  17.725 -0.7069  0.7386 -0.4965
 4185TIP3    H236751   5.359   5.189  17.731  0.4530 -0.0505  1.3799
 4186TIP3   OH236752   6.364   3.990  17.457  0.1553  0.5114  0.5370
 4186TIP3    H136753   6.271   4.010  17.449  0.3628  0.8765 -1.5328
 4186TIP3    H236754   6.408   4.067  17.423  1.1193 -0.7872 -1.3473
 4187TIP3   OH236755   3.617   2.451  17.255 -0.2851  0.3452  0.0634
 4187TIP3    H136756   3.696   2.455  17.310 -0.4579 -0.3745  0.3687
 4187TIP3    H236757   3.625   2.526  17.197 -1.4730  2.9461  2.9251
 4188TIP3   OH236758   7.282   3.403  17.747  0.7144 -0.2299  0.3127
 4188TIP3    H136759   7.295   3.310  17.731 -1.8671 -0.4067 -1.2687
 4188TIP3    H236760   7.361   3.445  17.711  1.6422 -1.7281  0.5279
 4189TIP3   OH236761   5.861   3.869  19.527 -0.5264  0.5525 -0.4889
 4189TIP3    H136762   5.769   3.843  19.538 -0.6872  1.6756  1.3608
 4189TIP3    H236763   5.910   3.788  19.545 -1.0995  0.6916  2.2775
 4190TIP3   OH236764   5.753   7.568  17.076  0.1461  0.5112  0.3648
 4190TIP3    H136765   5.663   7.557  17.108  0.0313  0.0292 -0.1107
 4190TIP3    H236766   5.805   7.507  17.129 -0.2604 -1.3653 -1.2608
 4191TIP3   OH236767   5.812   7.047  17.557  0.3688  0.4699  0.2498
 4191TIP3    H136768   5.724   7.016  17.535 -0.1000  1.7461  0.2428
 4191TIP3    H236769   5.801   7.092  17.641  1.1010  0.2779  0.4561
 4192TIP3   OH236770   2.844   4.550  19.352  0.1263 -0.1186 -0.1585
 4192TIP3    H136771   2.821   4.609  19.424  1.3163  0.1043  0.0637
 4192TIP3    H236772   2.825   4.600  19.273 -1.9845 -0.6603 -0.0686
 4193TIP3   OH236773   4.031   6.647  17.797 -0.3153  0.3158 -0.3491
 4193TIP3    H136774   4.079   6.717  17.752 -1.0912  0.2677 -1.2856
 4193TIP3    H236775   3.992   6.690  17.873 -3.1055  1.6725 -2.3681
 4194TIP3   OH236776   6.868   6.240  18.399 -0.0496  0.2674  0.2062
 4194TIP3    H136777   6.923   6.183  18.453  0.7670  0.2708 -0.5959
 4194TIP3    H236778   6.781   6.200  18.403  0.0535  0.1084  1.2744
 4195TIP3   OH236779   2.743   4.012  19.008 -0.3993 -0.4100  0.0697
 4195TIP3    H136780   2.784   3.926  18.996  0.4506  0.1048 -0.9346
 4195TIP3    H236781   2.817   4.070  19.028 -0.7137  0.4030 -1.0424
 4196TIP3   OH236782   2.065   5.976  19.190 -0.0514 -0.2855  0.1051
 4196TIP3    H136783   2.124   6.043  19.223  0.7773  0.0775 -1.9373
 4196TIP3    H236784   1.977   6.009  19.210  0.3682  0.9407 -0.0051
 4197TIP3   OH236785   5.035   4.077  18.638 -0.2255  0.9722 -0.2686
 4197TIP3    H136786   5.099   4.077  18.709 -1.5569  1.3168  0.9892
 4197TIP3    H236787   4.990   3.993  18.647  1.7387 -0.4835 -2.8156
 4198TIP3   OH236788   6.925   2.220  17.466 -0.0536  0.3596  0.3486
 4198TIP3    H136789   6.918   2.268  17.384 -0.2320  0.4654  0.4241
 4198TIP3    H236790   6.888   2.134  17.447  0.1640  0.2878  0.2425
 4199TIP3   OH236791   0.965   5.772  18.800  0.2046  0.5178  0.1895
 4199TIP3    H136792   0.987   5.863  18.783  1.6554 -0.0745 -1.4157
 4199TIP3    H236793   1.042   5.723  18.772  0.2083 -1.1066  2.7126
 4200TIP3   OH236794   5.611   3.024  19.463  0.2714 -0.3035 -0.1573
 4200TIP3    H136795   5.680   2.961  19.486  1.6774  1.1861 -0.0568
 4200TIP3    H236796   5.658   3.107  19.456 -1.1170  0.3470 -2.5431
 4201TIP3   OH236797   5.320   6.118  18.520  0.5382  0.0933 -0.1599
 4201TIP3    H136798   5.350   6.204  18.549  0.9587 -0.2891  0.5918
 4201TIP3    H236799   5.228   6.115  18.544  0.7330  0.0161  0.5942
 4202TIP3   OH236800   1.120   2.211  18.380 -0.3759  0.1280  0.3908
 4202TIP3    H136801   1.196   2.158  18.405 -0.1026  0.2715 -0.1253
 4202TIP3    H236802   1.156   2.278  18.321 -1.0329 -0.3025 -0.5227
 4203TIP3   OH236803   7.564   4.873  19.627 -0.1875  0.3331  0.3783
 4203TIP3    H136804   7.636   4.816  19.652 -1.3727 -0.6792  1.6699
 4203TIP3    H236805   7.577   4.889  19.534  2.0534  0.7455  0.6967
 4204TIP3   OH236806   1.626   5.453  17.712  0.3846 -0.5181  0.5624
 4204TIP3    H136807   1.695   5.495  17.662 -0.8248  0.6199 -0.2380
 4204TIP3    H236808   1.623   5.363  17.680  0.6417 -0.2165 -0.3264
 4205TIP3   OH236809   6.237   4.482  19.227 -0.2205  0.1564  0.1674
 4205TIP3    H136810   6.147   4.488  19.195 -0.3436 -0.6311  0.3523
 4205TIP3    H236811   6.288   4.459  19.149 -0.4123 -0.9809  0.3593
 4206TIP3   OH236812   4.030   1.295  16.676 -0.1665  0.0705  0.1495
 4206TIP3    H136813   4.030   1.213  16.627  1.1479  1.0337 -1.5705
 4206TIP3    H236814   4.121   1.324  16.674 -0.4540  1.1798  1.4276
 4207TIP3   OH236815   3.344   6.887  18.863  0.0062 -0.1231  0.1084
 4207TIP3    H136816   3.342   6.934  18.779  0.6792  0.2126  0.2767
 4207TIP3    H236817   3.281   6.816  18.851 -1.0928  0.8501 -0.1380
 4208TIP3   OH236818   3.418   1.762  17.481  0.3234  0.5425 -0.2505
 4208TIP3    H136819   3.376   1.711  17.411 -0.5089  2.2713 -1.0968
 4208TIP3    H236820   3.464   1.832  17.435 -2.6058  3.4929  0.8562
 4209TIP3   OH236821   3.591   0.181  19.426 -0.0955 -0.2969  0.1407
 4209TIP3    H136822   3.573   0.088  19.435 -1.2766  0.0451  1.6900
 4209TIP3    H236823   3.534   0.210  19.355 -2.3259 -0.1415  1.9065
 4210TIP3   OH236824   6.225   3.452  18.992  1.0132  0.4286 -0.2299
 4210TIP3    H136825   6.179   3.370  19.010  2.2762  0.1686  2.3136
 4210TIP3    H236826   6.233   3.495  19.078  2.1487  2.2542 -1.1707
 4211TIP3   OH236827   6.068   7.146  17.593 -0.3081 -0.3326 -0.8775
 4211TIP3    H136828   5.988   7.094  17.579 -0.5827 -1.2821  3.0681
 4211TIP3    H236829   6.137   7.080  17.603  0.0566  0.2134  0.3595
 4212TIP3   OH236830   6.138   3.633  16.702  0.1514 -0.0692 -0.0611
 4212TIP3    H136831   6.106   3.648  16.613 -0.4001  0.4559  0.2137
 4212TIP3    H236832   6.217   3.580  16.691  0.7703  0.9889 -0.9390
 4213TIP3   OH236833   6.075   4.695  16.869 -0.1747  0.1885 -0.0101
 4213TIP3    H136834   6.069   4.777  16.918 -0.0716  0.6482 -0.7399
 4213TIP3    H236835   5.996   4.693  16.815 -0.0261 -0.0329 -0.2247
 4214TIP3   OH236836   1.261   6.840  18.528  0.5754  0.2017  0.7980
 4214TIP3    H136837   1.303   6.913  18.483 -0.7486 -0.0434 -0.8962
 4214TIP3    H236838   1.194   6.808  18.467  1.5797 -2.9162  1.1283
 4215TIP3   OH236839   6.786   5.119  17.281  0.7067  0.5866 -0.0314
 4215TIP3    H136840   6.699   5.150  17.305  0.8191 -0.6848  2.3302
 4215TIP3    H236841   6.798   5.148  17.190 -0.3419  4.7201  0.9339
 4216TIP3   OH236842   2.640   6.265  17.694  0.3857 -0.1589 -0.2519
 4216TIP3    H136843   2.579   6.307  17.633  2.0552  3.0773  0.1419
 4216TIP3    H236844   2.594   6.265  17.778 -0.2814 -0.7659 -0.6027
 4217TIP3   OH236845   3.349   2.142  17.965  0.3821 -1.1612  0.3673
 4217TIP3    H136846   3.306   2.077  17.911 -1.9254 -0.8691  1.7196
 4217TIP3    H236847   3.359   2.100  18.050  4.6262 -1.8897 -0.2694
 4218TIP3   OH236848   4.022   3.884  19.321 -0.3231  0.8022  0.8543
 4218TIP3    H136849   3.986   3.798  19.299  0.3343  0.8113 -0.3259
 4218TIP3    H236850   4.077   3.868  19.398 -0.6234  0.2657  0.9597
 4219TIP3   OH236851   3.628   5.408  17.262 -0.3820 -0.4673 -0.2661
 4219TIP3    H136852   3.571   5.335  17.239 -0.5324 -0.2794 -0.4999
 4219TIP3    H236853   3.705   5.397  17.207 -0.0054 -0.9600  0.3576
 4220TIP3   OH236854   2.946   2.891  19.047 -0.1813  0.2568 -0.2904
 4220TIP3    H136855   2.982   2.811  19.085  0.6672  1.1086  0.7749
 4220TIP3    H236856   2.897   2.931  19.119  0.4994  1.3282 -0.3944
 4221TIP3   OH236857   6.818   2.617  18.528 -0.7212 -1.0273  0.5793
 4221TIP3    H136858   6.729   2.623  18.561 -0.9974  0.6455 -0.3638
 4221TIP3    H236859   6.815   2.659  18.442  0.7885 -1.7795  0.1175
 4222TIP3   OH236860   5.148   7.014  18.868 -0.2258 -0.3361 -0.0753
 4222TIP3    H136861   5.227   7.062  18.892 -1.5507  2.0312 -0.0443
 4222TIP3    H236862   5.169   6.971  18.786  1.2545 -0.1846  0.2105
 4223TIP3   OH236863   6.956   2.876  17.906 -0.2737 -0.5865 -0.1212
 4223TIP3    H136864   6.941   2.963  17.869 -1.9630 -0.9524 -0.4321
 4223TIP3    H236865   6.914   2.817  17.843  1.2340 -1.6850 -0.1518
 4224TIP3   OH236866   0.701   4.692  17.714  0.2152  0.3908  0.1162
 4224TIP3    H136867   0.665   4.663  17.631 -1.4088  1.7861  0.2752
 4224TIP3    H236868   0.688   4.617  17.773  0.8375 -0.3892 -0.7123
 4225TIP3   OH236869   0.594   6.719  17.939  0.2271 -0.6959  0.8061
 4225TIP3    H136870   0.617   6.626  17.944  0.6043 -0.5860  1.1624
 4225TIP3    H236871   0.677   6.764  17.925 -0.1814 -0.5654 -1.6450
 4226TIP3   OH236872   3.778   7.176  16.992 -0.3035  0.0917  0.2277
 4226TIP3    H136873   3.790   7.260  16.949  1.1351 -0.7041 -1.0536
 4226TIP3    H236874   3.813   7.188  17.081  1.3992  0.4454 -0.4548
 4227TIP3   OH236875   5.751   3.346  18.715 -0.1179  0.6062  0.6923
 4227TIP3    H136876   5.714   3.259  18.728  0.8131 -0.2699 -1.8579
 4227TIP3    H236877   5.680   3.397  18.676 -0.0527  0.3385  0.2146
 4228TIP3   OH236878   5.808   2.689  17.946 -0.4800 -0.0102 -0.2096
 4228TIP3    H136879   5.760   2.726  18.021  1.3497 -1.2603  1.7055
 4228TIP3    H236880   5.832   2.764  17.893 -1.6694  0.9528  0.5597
 4229TIP3   OH236881   4.570   4.704  17.347  0.4835 -0.0594 -0.4202
 4229TIP3    H136882   4.554   4.713  17.253  0.1687  0.0336 -0.3600
 4229TIP3    H236883   4.651   4.655  17.353 -0.1286 -1.1403 -0.7352
 4230TIP3   OH236884   7.375   2.559  18.751 -0.1597 -0.1481  0.3947
 4230TIP3    H136885   7.462   2.549  18.791 -0.0294 -0.9261 -0.0647
 4230TIP3    H236886   7.372   2.492  18.683 -0.6778  0.6488 -0.3875
 4231TIP3   OH236887   2.117   6.895  19.434 -0.1341 -0.1328  0.0591
 4231TIP3    H136888   2.034   6.918  19.393 -0.0347 -0.2119 -0.1855
 4231TIP3    H236889   2.155   6.978  19.462  0.2057  0.0004 -0.7801
 4232TIP3   OH236890   3.257   6.342  19.530  0.6121  0.0369  0.6149
 4232TIP3    H136891   3.351   6.360  19.523  0.9466 -1.5990  0.4737
 4232TIP3    H236892   3.253   6.251  19.559 -0.9469 -0.6455 -1.5211
 4233TIP3   OH236893   0.361   1.196  18.652  0.0082 -0.4321  0.3646
 4233TIP3    H136894   0.277   1.160  18.623 -0.0242 -0.9754  1.0996
 4233TIP3    H236895   0.425   1.158  18.592 -0.3095  0.3196 -0.4668
 4234TIP3   OH236896   6.894   1.235  18.474  0.3612  0.5036  0.2485
 4234TIP3    H136897   6.921   1.211  18.386 -1.0335  2.4111 -0.7761
 4234TIP3    H236898   6.975   1.259  18.519  0.9806  0.5025 -0.8405
 4235TIP3   OH236899   1.319   0.459  18.381  0.1679  0.3339 -0.2424
 4235TIP3    H136900   1.372   0.516  18.325  0.2010  0.0827 -0.4680
 4235TIP3    H236901   1.353   0.371  18.366 -0.4677  0.1343 -0.5739
 4236TIP3   OH236902   4.874   2.282  18.817 -0.3515  0.2020 -0.0038
 4236TIP3    H136903   4.846   2.356  18.762  0.1583  0.6625  0.3472
 4236TIP3    H236904   4.967   2.270  18.797  0.3377  1.5463  2.0257
 4237TIP3   OH236905   6.243   3.644  17.512  0.3212 -0.1721  0.7007
 4237TIP3    H136906   6.267   3.582  17.444 -0.0796  0.4289 -0.0085
 4237TIP3    H236907   6.196   3.713  17.465  0.2506  0.3701  1.5554
 4238TIP3   OH236908   4.341   5.925  18.034 -0.4313 -0.0193 -0.2139
 4238TIP3    H136909   4.410   5.916  18.101 -1.2017 -0.4818  0.5501
 4238TIP3    H236910   4.340   6.018  18.013 -2.9314  1.0646  3.5437
 4239TIP3   OH236911   5.898   4.962  18.804  0.0007 -0.7806  0.7887
 4239TIP3    H136912   5.832   4.979  18.737  0.3643  1.9342  1.0369
 4239TIP3    H236913   5.849   4.928  18.879 -1.4090  2.2722  1.3860
 4240TIP3   OH236914   0.399   6.420  19.419  0.3870  0.3328  0.5876
 4240TIP3    H136915   0.468   6.419  19.485 -0.5894 -1.1876  1.6636
 4240TIP3    H236916   0.367   6.330  19.417 -1.4520  0.9582  0.0178
 4241TIP3   OH236917   4.942   6.611  19.137  0.4255 -0.3024  0.2981
 4241TIP3    H136918   4.984   6.545  19.193 -0.3818 -0.7922  0.3414
 4241TIP3    H236919   5.012   6.673  19.118  1.4917 -1.7016 -0.5966
 4242TIP3   OH236920   0.819   5.613  19.456  0.5484 -0.1265  0.0634
 4242TIP3    H136921   0.896   5.556  19.456  0.6443 -0.0137 -0.9267
 4242TIP3    H236922   0.848   5.691  19.410 -0.7552 -0.9240 -2.2388
 4243TIP3   OH236923   3.084   7.570  17.785  0.0304 -0.1432  0.3037
 4243TIP3    H136924   3.051   7.504  17.724  0.1156 -0.5873  0.7339
 4243TIP3    H236925   3.103   7.521  17.865 -0.4734  0.4975  0.8247
 4244TIP3   OH236926   0.199   1.128  18.003  0.2773 -0.0332 -0.2171
 4244TIP3    H136927   0.118   1.118  18.054 -0.9712 -2.0263 -2.3913
 4244TIP3    H236928   0.244   1.044  18.013  0.2464 -0.2813 -1.9089
 4245TIP3   OH236929   7.009   7.648  17.410  0.1524  0.5378  0.1188
 4245TIP3    H136930   7.080   7.699  17.450  2.3464 -0.4801 -2.2326
 4245TIP3    H236931   6.987   7.695  17.330 -1.6737  0.6332  0.6114
 4246TIP3   OH236932   6.107   0.048  18.808 -0.9936 -0.0793 -0.2514
 4246TIP3    H136933   6.022   0.009  18.787 -1.3954 -0.8327  2.4412
 4246TIP3    H236934   6.161  -0.026  18.836  0.3516  0.4996 -1.2028
 4247TIP3   OH236935   4.550   0.398  18.011  0.5606 -0.0783 -0.5975
 4247TIP3    H136936   4.542   0.319  18.065  0.8974  1.1092  1.2614
 4247TIP3    H236937   4.524   0.369  17.923 -5.3450 -0.9519  1.0058
 4248TIP3   OH236938   5.573   2.156  19.407  0.1315 -0.0745  0.5230
 4248TIP3    H136939   5.602   2.237  19.449  4.0234 -0.9238 -0.1121
 4248TIP3    H236940   5.622   2.153  19.325  1.1653 -3.5722  1.0928
 4249TIP3   OH236941   3.869   5.446  17.624 -0.2162  0.5859 -0.3973
 4249TIP3    H136942   3.858   5.363  17.578  3.0464  0.9474 -2.0897
 4249TIP3    H236943   3.930   5.426  17.695 -1.0587  1.1799  0.5321
 4250TIP3   OH236944   6.483   1.293  17.453  0.4268  0.2134  0.3304
 4250TIP3    H136945   6.488   1.307  17.358  3.0641 -1.0675  0.1931
 4250TIP3    H236946   6.488   1.198  17.463  1.3958  0.3965  1.7838
 4251TIP3   OH236947   7.448   3.427  19.515  0.1394 -0.0752  0.5906
 4251TIP3    H136948   7.470   3.345  19.471 -3.4442 -1.8902  1.7705
 4251TIP3    H236949   7.470   3.412  19.607 -1.2155 -0.0544  0.9418
 4252TIP3   OH236950   6.689   3.630  19.301  0.4017  1.1955  0.0519
 4252TIP3    H136951   6.767   3.637  19.245  0.8405  1.7376  0.7137
 4252TIP3    H236952   6.724   3.628  19.390 -0.2609 -0.1957  0.3063
 4253TIP3   OH236953   2.506   4.815  16.960 -0.2193 -0.6540  0.1572
 4253TIP3    H136954   2.589   4.813  17.008  0.2195  1.1820 -0.4358
 4253TIP3    H236955   2.450   4.875  17.011 -0.1774  0.3379 -0.9190
 4254TIP3   OH236956   5.367   1.343  18.478  0.3823  0.1431  0.4484
 4254TIP3    H136957   5.311   1.279  18.434 -3.5310  1.5587  2.7675
 4254TIP3    H236958   5.339   1.427  18.442  1.7630  0.8719  1.0286
 4255TIP3   OH236959   2.461   5.121  18.519 -0.0270 -0.3172  0.3212
 4255TIP3    H136960   2.461   5.038  18.567 -0.1822 -0.1161  0.6750
 4255TIP3    H236961   2.510   5.180  18.575  1.3852 -0.5551 -0.6250
 4256TIP3   OH236962   4.375   5.735  17.367 -0.5151 -0.0745 -0.0494
 4256TIP3    H136963   4.420   5.760  17.286 -1.1328  1.4302  0.0349
 4256TIP3    H236964   4.357   5.818  17.410  1.3360 -0.8737  2.5172
 4257TIP3   OH236965   5.298   3.510  18.112  0.4694 -0.6972  0.1657
 4257TIP3    H136966   5.342   3.594  18.098 -0.0860 -0.4345 -0.0359
 4257TIP3    H236967   5.357   3.445  18.074  0.4765 -0.3066 -0.5093
 4258TIP3   OH236968   0.148   5.895  17.441 -0.3969 -0.2556 -0.2028
 4258TIP3    H136969   0.081   5.848  17.491 -0.7010 -0.7101 -1.0202
 4258TIP3    H236970   0.218   5.831  17.429 -0.1035  0.0115  0.0785
 4259TIP3   OH236971   5.450   7.251  17.651  0.7514  0.6188 -0.5590
 4259TIP3    H136972   5.480   7.229  17.740  2.1701  3.3122 -0.2554
 4259TIP3    H236973   5.357   7.269  17.660  0.5014 -0.7984 -0.0124
 4260TIP3   OH236974   6.183   6.671  19.348  0.1360 -0.0732  0.1822
 4260TIP3    H136975   6.271   6.675  19.385  0.0364 -1.1246  0.5448
 4260TIP3    H236976   6.178   6.747  19.290  1.3687 -0.1601 -0.0474
 4261TIP3   OH236977   5.424   4.737  18.488 -0.5303 -0.3210  0.6955
 4261TIP3    H136978   5.363   4.664  18.476 -2.1850  0.9872  0.8280
 4261TIP3    H236979   5.427   4.779  18.402 -0.5810  0.1980  0.9479
 4262TIP3   OH236980   2.670   1.572  17.772 -0.4177  0.5727  0.1712
 4262TIP3    H136981   2.682   1.553  17.679 -2.0344 -3.1174  0.5428
 4262TIP3    H236982   2.596   1.632  17.775  0.6685  2.0689 -0.8791
 4263TIP3   OH236983   6.006   6.300  18.375 -0.8741 -0.1173 -0.0638
 4263TIP3    H136984   5.973   6.358  18.306 -0.7110 -0.0092 -0.0515
 4263TIP3    H236985   6.035   6.359  18.444 -1.7564 -0.2516  0.4322
 4264TIP3   OH236986   4.606   5.687  17.503  0.3249 -0.2429 -0.0451
 4264TIP3    H136987   4.563   5.684  17.589  1.6148  1.0844  0.6919
 4264TIP3    H236988   4.535   5.707  17.442 -0.1772  1.8904  1.1248
 4265TIP3   OH236989   7.073   6.732  18.374 -1.0088 -0.1899 -0.2334
 4265TIP3    H136990   7.062   6.734  18.469  0.6116 -0.6635 -0.0050
 4265TIP3    H236991   7.032   6.813  18.343 -3.5869 -1.0774  0.5932
 4266TIP3   OH236992   1.501   3.861  17.148  0.4751  0.5089 -0.4532
 4266TIP3    H136993   1.514   3.877  17.054  2.2679 -1.3474 -0.5984
 4266TIP3    H236994   1.452   3.779  17.152  1.1856  0.1055  0.2199
 4267TIP3   OH236995   6.852   4.339  17.576  0.0291  0.4843 -0.1832
 4267TIP3    H136996   6.792   4.332  17.501  0.0640 -2.0659 -0.0604
 4267TIP3    H236997   6.932   4.375  17.539 -0.1085 -0.3035 -1.3176
 4268TIP3   OH236998   7.185   5.998  18.855  0.1333 -0.4330 -0.0422
 4268TIP3    H136999   7.279   6.009  18.861  0.0491  0.7309 -0.7531
 4268TIP3    H237000   7.159   6.043  18.775 -0.9000 -1.6419 -0.4338
 4269TIP3   OH237001   1.534   3.714  17.943 -0.0571 -0.0759  0.1704
 4269TIP3    H137002   1.456   3.767  17.924  0.5866  1.2391  1.0199
 4269TIP3    H237003   1.607   3.776  17.936  0.9743 -1.3409 -0.8929
 4270TIP3   OH237004   7.429   5.639  18.941  0.5279 -0.3836  0.3346
 4270TIP3    H137005   7.450   5.626  19.033  1.3949  0.9390  0.3532
 4270TIP3    H237006   7.383   5.723  18.939  0.6646 -0.3218 -0.4490
 4271TIP3   OH237007   1.415   0.719  16.980  0.0753 -0.7782 -0.4112
 4271TIP3    H137008   1.366   0.671  17.047  0.2846 -1.0770 -0.4727
 4271TIP3    H237009   1.423   0.658  16.907 -0.0273 -0.5027 -0.6573
 4272TIP3   OH237010   6.885   4.105  19.156  0.2137 -0.5598  0.3641
 4272TIP3    H137011   6.962   4.081  19.206 -0.7301 -0.2046  2.0459
 4272TIP3    H237012   6.913   4.099  19.064  2.2931 -0.1795  0.9356
 4273TIP3   OH237013   2.862   6.548  18.539  0.8644  0.4085  0.0334
 4273TIP3    H137014   2.833   6.479  18.599  1.3241 -0.9613 -1.2558
 4273TIP3    H237015   2.792   6.555  18.475  1.9028 -0.6875 -1.2832
 4274TIP3   OH237016   3.028   4.657  17.399 -0.3692  0.5704 -0.6195
 4274TIP3    H137017   3.023   4.744  17.439 -1.5808  0.8176 -1.2887
 4274TIP3    H237018   3.010   4.672  17.307  0.9934 -0.1995 -1.0408
 4275TIP3   OH237019   1.903   2.047  18.854 -0.3230  0.2421  0.2706
 4275TIP3    H137020   1.925   2.122  18.910 -0.3299  0.6195 -0.2275
 4275TIP3    H237021   1.981   1.990  18.859 -1.3052 -1.0319  2.7349
 4276TIP3   OH237022   6.768   3.007  18.428  0.3902 -0.3260 -0.1031
 4276TIP3    H137023   6.798   2.993  18.338  1.7487 -3.5582  0.6991
 4276TIP3    H237024   6.845   3.042  18.474 -0.0216  0.4365  0.0336
 4277TIP3   OH237025   1.172   7.468  17.718  0.4679  0.0931 -0.6646
 4277TIP3    H137026   1.140   7.472  17.808 -0.8137  0.5609 -1.1250
 4277TIP3    H237027   1.181   7.375  17.700  1.9073  0.0011  0.3267
 4278TIP3   OH237028   4.739   1.359  16.944 -0.8229  0.3249 -0.1867
 4278TIP3    H137029   4.801   1.286  16.942  0.5511  1.4565 -1.8235
 4278TIP3    H237030   4.665   1.329  16.891 -0.8976 -0.3680  0.2908
 4279TIP3   OH237031   7.306   3.986  17.977 -0.3101  0.0277  0.3818
 4279TIP3    H137032   7.367   3.966  18.048 -0.8218  0.1006  0.8535
 4279TIP3    H237033   7.241   3.916  17.981 -1.5771  1.2016  1.4310
 4280TIP3   OH237034   6.150   3.775  16.955 -0.1272 -0.6071  0.0758
 4280TIP3    H137035   6.063   3.752  16.989 -0.3603 -0.5590 -0.4734
 4280TIP3    H237036   6.160   3.720  16.877  0.1955 -0.3702 -0.0506
 4281TIP3   OH237037   5.612   4.880  17.945  0.9503  0.0743  0.6489
 4281TIP3    H137038   5.668   4.928  18.007 -0.3722  0.8117  1.3283
 4281TIP3    H237039   5.600   4.794  17.986  2.2843 -0.4304  0.0522
 4282TIP3   OH237040   2.911   4.138  19.468  0.0824 -0.1705  0.3907
 4282TIP3    H137041   3.006   4.136  19.458  0.2213  1.2954  1.1681
 4282TIP3    H237042   2.881   4.058  19.426  1.6362 -0.5176 -0.1215
 4283TIP3   OH237043   7.055   1.861  18.060  0.0885 -0.2258  0.4202
 4283TIP3    H137044   7.050   1.954  18.037  0.9214 -0.3321 -0.2506
 4283TIP3    H237045   6.993   1.818  18.000  0.6724 -0.2438 -0.1900
 4284TIP3   OH237046   0.612   1.874  18.751  0.0973 -0.5355 -0.4798
 4284TIP3    H137047   0.669   1.899  18.823  1.3500  1.0546 -1.9402
 4284TIP3    H237048   0.660   1.899  18.672 -3.2252  2.4906 -1.8201
 4285TIP3   OH237049   1.760   2.774  18.653 -0.1207  0.9264  0.4793
 4285TIP3    H137050   1.809   2.704  18.698  0.1065  0.2531 -0.7748
 4285TIP3    H237051   1.805   2.784  18.569 -2.9161 -0.7379 -1.3844
 4286TIP3   OH237052   3.282   4.661  18.409 -0.6719 -0.7214  0.7078
 4286TIP3    H137053   3.369   4.689  18.380 -0.3758 -0.6351  1.6462
 4286TIP3    H237054   3.222   4.724  18.369 -0.4233 -1.3828 -0.7977
 4287TIP3   OH237055   3.959   0.597  17.304 -0.2238 -0.0185 -0.3554
 4287TIP3    H137056   3.928   0.507  17.315 -0.5009  0.2748  1.4726
 4287TIP3    H237057   3.888   0.641  17.258  0.3500 -0.9392 -2.2609
 4288TIP3   OH237058   3.644   5.928  18.688 -0.2513  0.6156  0.0362
 4288TIP3    H137059   3.568   5.894  18.736 -0.6340  2.0002  0.4471
 4288TIP3    H237060   3.708   5.946  18.756 -0.3212  1.3791 -0.0919
 4289TIP3   OH237061   5.022   3.518  18.190  0.1697  0.5867 -0.4790
 4289TIP3    H137062   5.018   3.538  18.283 -0.3173  0.2920 -0.4377
 4289TIP3    H237063   5.116   3.509  18.172  0.2095 -0.7933  0.2840
 4290TIP3   OH237064   5.882   2.861  19.472 -0.4093 -0.4133 -0.2029
 4290TIP3    H137065   5.887   2.819  19.558  1.4294 -0.4209 -0.2693
 4290TIP3    H237066   5.940   2.937  19.480 -2.5781  1.3785 -0.5232
 4291TIP3   OH237067   2.187   4.121  18.114  0.3744  0.3171  0.2503
 4291TIP3    H137068   2.174   4.043  18.061 -0.8348  1.5978 -1.4406
 4291TIP3    H237069   2.133   4.106  18.192  0.5717 -0.7331  0.2001
 4292TIP3   OH237070   2.882   1.731  18.173  0.4290  0.2530 -0.5986
 4292TIP3    H137071   2.870   1.749  18.267  3.0332 -0.8815  0.0640
 4292TIP3    H237072   2.922   1.810  18.139 -0.9352  0.8392 -0.8938
 4293TIP3   OH237073   4.944   3.806  18.664 -0.0839  0.1977 -0.5207
 4293TIP3    H137074   5.028   3.782  18.704  0.3687  1.2713 -0.8130
 4293TIP3    H237075   4.880   3.751  18.710  0.7174 -0.3370 -0.0101
 4294TIP3   OH237076   4.447   0.308  18.778 -0.0688 -0.2248 -0.0404
 4294TIP3    H137077   4.379   0.306  18.845 -0.1851  0.1159 -0.1456
 4294TIP3    H237078   4.401   0.286  18.697 -0.3201  1.2155 -0.3279
 4295TIP3   OH237079   6.731   3.603  17.468  0.0972 -0.4664  0.0419
 4295TIP3    H137080   6.666   3.612  17.398 -0.5559 -1.7811  0.4501
 4295TIP3    H237081   6.687   3.639  17.546  0.4637  0.0960 -0.0026
 4296TIP3   OH237082   6.418   6.513  16.887 -0.0373  0.1620 -0.5089
 4296TIP3    H137083   6.444   6.574  16.818  1.2357  0.1403 -0.0802
 4296TIP3    H237084   6.414   6.428  16.844 -1.0811  0.4243 -0.9450
 4297TIP3   OH237085   1.696   1.977  17.535  0.3617  0.3944  0.3860
 4297TIP3    H137086   1.739   2.006  17.455  0.2778 -0.3979  0.0459
 4297TIP3    H237087   1.714   1.883  17.539  1.7891  0.6759  2.1564
 4298TIP3   OH237088   0.447   7.122  18.638 -0.1350  0.7148 -0.3191
 4298TIP3    H137089   0.540   7.147  18.637  0.1285 -0.2187 -0.2947
 4298TIP3    H237090   0.448   7.027  18.625 -1.0525  0.5948  0.3830
 4299TIP3   OH237091   4.276   3.874  19.172 -0.0622  0.2434 -0.1414
 4299TIP3    H137092   4.255   3.797  19.226 -0.6348  1.1392  0.9655
 4299TIP3    H237093   4.192   3.900  19.135  0.1192  0.3832 -0.4509
 4300TIP3   OH237094   1.324   0.440  19.008 -0.7619  0.1055  0.2771
 4300TIP3    H137095   1.294   0.353  18.979 -0.0037  0.1482 -0.7126
 4300TIP3    H237096   1.354   0.482  18.927 -0.9547  1.2279  0.7756
 4301TIP3   OH237097   7.130   3.011  19.108 -0.4710  0.0638  0.3005
 4301TIP3    H137098   7.122   3.034  19.015  0.4283  1.9904  0.6517
 4301TIP3    H237099   7.149   2.917  19.108 -0.5596  0.0094 -1.4520
 4302TIP3   OH237100   7.548   7.042  18.015 -0.3367 -0.1582  0.2073
 4302TIP3    H137101   7.580   7.074  18.100  0.9335  2.8061 -1.2260
 4302TIP3    H237102   7.618   6.984  17.984  0.6916  1.1601 -0.0600
 4303TIP3   OH237103   0.336   5.467  17.223  0.1259  0.2568 -0.9242
 4303TIP3    H137104   0.381   5.463  17.307  0.4578  1.5467 -1.0206
 4303TIP3    H237105   0.406   5.477  17.158 -0.2030  0.6932 -1.2211
 4304TIP3   OH237106   4.101   3.186  18.876 -0.1231 -0.1183  0.4735
 4304TIP3    H137107   4.016   3.142  18.867  0.5696 -1.2813 -0.5997
 4304TIP3    H237108   4.137   3.187  18.787  0.3253  1.7921  0.6261
 4305TIP3   OH237109   6.245   7.309  17.462 -0.0569  1.3045 -0.1643
 4305TIP3    H137110   6.167   7.265  17.495  0.5368 -0.7229 -1.3243
 4305TIP3    H237111   6.301   7.320  17.539  0.3071 -1.1946 -0.0103
 4306TIP3   OH237112   4.096   3.919  18.541 -0.4778  0.2103 -0.0867
 4306TIP3    H137113   4.072   3.966  18.462 -2.6323 -1.1165 -0.2942
 4306TIP3    H237114   4.180   3.958  18.568 -0.0240  1.1490 -2.6080
 4307TIP3   OH237115   3.196   0.220  19.193 -0.1813 -0.1090 -0.1262
 4307TIP3    H137116   3.291   0.221  19.181  0.1067 -0.3940  1.7397
 4307TIP3    H237117   3.175   0.306  19.229 -0.5473 -0.2342 -0.0297
 4308TIP3   OH237118   0.295   4.290  18.436  0.2815 -0.1141  0.1542
 4308TIP3    H137119   0.206   4.308  18.406  0.6502  0.3525 -0.6897
 4308TIP3    H237120   0.314   4.361  18.498  1.4735  2.1958 -2.6355
 4309TIP3   OH237121   4.932   1.648  18.340  0.2388 -0.3668  0.2161
 4309TIP3    H137122   4.838   1.638  18.328  0.3251  0.3889 -1.3077
 4309TIP3    H237123   4.953   1.734  18.303  1.8681 -1.5438 -1.8652
 4310TIP3   OH237124   3.927   1.822  18.515  0.7752  0.0633  0.2467
 4310TIP3    H137125   3.834   1.840  18.502  0.4665 -0.5681  1.4631
 4310TIP3    H237126   3.962   1.903  18.552  0.7841  0.3891 -0.4446
 4311TIP3   OH237127   3.853   6.698  16.974 -0.0752 -0.0762  0.2887
 4311TIP3    H137128   3.940   6.671  17.002  0.2332 -1.9077 -2.1177
 4311TIP3    H237129   3.866   6.734  16.886 -1.3613  2.6879  1.1217
 4312TIP3   OH237130   6.333   6.623  17.382 -0.2207  0.5066 -0.6769
 4312TIP3    H137131   6.274   6.694  17.358 -0.5707 -0.1601 -1.8997
 4312TIP3    H237132   6.279   6.562  17.432 -0.0734  0.8111 -0.1437
 4313TIP3   OH237133   2.925   0.121  17.994 -0.0505 -0.4339 -0.1701
 4313TIP3    H137134   3.007   0.135  17.946  0.1538 -0.3721  0.1884
 4313TIP3    H237135   2.934   0.175  18.072 -1.2910  1.1564 -1.0881
 4314TIP3   OH237136   5.503   7.493  17.153 -0.2761 -0.1236  0.0717
 4314TIP3    H137137   5.447   7.459  17.222 -0.3387 -0.7062 -0.2600
 4314TIP3    H237138   5.455   7.474  17.072  0.4877 -0.8253 -0.2356
 4315TIP3   OH237139   0.840   0.900  17.953  0.4117  0.2829  0.1651
 4315TIP3    H137140   0.744   0.898  17.959  0.0354  0.2711 -3.5710
 4315TIP3    H237141   0.867   0.809  17.963  0.0058  0.2104  0.6591
 4316TIP3   OH237142   5.401   2.892  18.223  0.2534  0.5358 -0.6953
 4316TIP3    H137143   5.405   2.869  18.316  0.0757  0.9452 -0.5891
 4316TIP3    H237144   5.317   2.935  18.212 -0.3469 -0.7439 -1.3280
 4317TIP3   OH237145   0.896   1.845  18.645 -0.1412  0.0700 -0.2417
 4317TIP3    H137146   0.914   1.823  18.737 -0.3592  0.8624 -0.0019
 4317TIP3    H237147   0.846   1.770  18.612 -2.0873  0.7853  0.9449
 4318TIP3   OH237148   6.282   4.659  18.417 -0.1003 -0.5571  0.3151
 4318TIP3    H137149   6.240   4.580  18.450  0.9323 -0.9802  0.6696
 4318TIP3    H237150   6.244   4.673  18.331  0.6092 -2.1783 -0.2953
 4319TIP3   OH237151   5.150   5.346  19.197 -0.7373 -0.0408  0.1169
 4319TIP3    H137152   5.088   5.284  19.235  1.2978 -1.2623  1.6154
 4319TIP3    H237153   5.209   5.291  19.146 -0.5255  1.0386 -0.8272
 4320TIP3   OH237154   3.604   5.708  19.166  0.3070  0.0843  0.2587
 4320TIP3    H137155   3.521   5.663  19.153 -0.2764  0.5973  1.9401
 4320TIP3    H237156   3.653   5.692  19.085 -1.2483 -0.5708 -0.5948
 4321TIP3   OH237157   3.806   5.988  18.960  0.0392  0.3534  0.2893
 4321TIP3    H137158   3.712   5.998  18.977 -0.3866  1.1935 -2.1531
 4321TIP3    H237159   3.827   5.901  18.994 -1.5325  0.2938  1.2172
 4322TIP3   OH237160   0.399   7.142  18.368 -0.1189 -0.0478 -0.8037
 4322TIP3    H137161   0.324   7.092  18.402  0.2583 -0.7453 -0.9862
 4322TIP3    H237162   0.449   7.165  18.446  0.8390 -1.7987 -0.8640
 4323TIP3   OH237163   7.339   4.276  18.066  0.2538 -0.5184  0.0188
 4323TIP3    H137164   7.421   4.241  18.029 -0.9469 -1.8382 -1.5335
 4323TIP3    H237165   7.316   4.348  18.007 -0.9047 -1.6835 -1.0051
 4324TIP3   OH237166   4.537   5.118  18.142  0.6106 -0.1509 -0.9066
 4324TIP3    H137167   4.623   5.087  18.169  1.3895  1.6378 -1.1742
 4324TIP3    H237168   4.526   5.084  18.053  1.7694  0.8744 -1.4824
 4325TIP3   OH237169   1.512   2.517  18.318 -0.3543  0.1666 -0.2428
 4325TIP3    H137170   1.464   2.435  18.307 -1.9796  0.7187  1.9439
 4325TIP3    H237171   1.591   2.492  18.365 -0.9455 -0.1613  0.6089
 4326TIP3   OH237172   7.135   1.309  18.581  0.2053 -0.1444  0.0725
 4326TIP3    H137173   7.206   1.329  18.520  0.6050  0.4214  0.7057
 4326TIP3    H237174   7.162   1.349  18.664  0.7436 -2.7530  1.2683
 4327TIP3   OH237175   5.125   5.632  19.462  0.3087 -0.1430 -0.2651
 4327TIP3    H137176   5.084   5.568  19.404 -0.0110 -0.9931  0.8704
 4327TIP3    H237177   5.219   5.618  19.450  0.2434 -0.4215 -0.4582
 4328TIP3   OH237178   5.552   3.161  18.565 -0.6522 -0.4438  0.4789
 4328TIP3    H137179   5.495   3.108  18.622 -1.2177  0.1250  0.4477
 4328TIP3    H237180   5.589   3.098  18.503  0.0520 -1.0909  1.5349
 4329TIP3   OH237181   4.591   6.940  18.180 -0.5673 -0.3496 -0.3498
 4329TIP3    H137182   4.652   7.000  18.137 -1.6045 -0.6078 -2.2454
 4329TIP3    H237183   4.619   6.853  18.152 -1.5996 -0.4873 -0.9962
 4330TIP3   OH237184   5.516   6.197  17.190 -0.0612 -0.4519  0.0262
 4330TIP3    H137185   5.465   6.165  17.115 -0.6428  0.3827  0.0588
 4330TIP3    H237186   5.606   6.171  17.170 -0.2599 -0.5275 -0.8087
 4331TIP3   OH237187   7.478   0.667  18.517 -0.1272 -0.0993 -1.0245
 4331TIP3    H137188   7.411   0.600  18.527 -0.3626  0.1650 -0.8205
 4331TIP3    H237189   7.437   0.747  18.551  0.0465  0.2088 -1.5439
 4332TIP3   OH237190   0.355   4.119  18.236 -0.1218  0.1621 -0.4923
 4332TIP3    H137191   0.341   4.193  18.295  1.1915 -0.0316  0.1004
 4332TIP3    H237192   0.430   4.145  18.182 -0.1598 -0.4028 -0.8311
 4333TIP3   OH237193   3.637   5.052  17.388  0.4043 -0.3334  0.1399
 4333TIP3    H137194   3.705   5.109  17.351  0.4290 -1.2543 -1.3158
 4333TIP3    H237195   3.554   5.091  17.360  0.1154  1.7054  3.2186
 4334TIP3   OH237196   6.190   7.362  16.692  0.3534 -0.1952  0.1334
 4334TIP3    H137197   6.139   7.327  16.620 -1.7399  1.0994  0.8996
 4334TIP3    H237198   6.138   7.434  16.726  3.3824  2.2787  0.0369
 4335TIP3   OH237199   6.635   7.601  19.452 -0.0314 -0.3243 -0.1475
 4335TIP3    H137200   6.635   7.559  19.366 -1.5691 -0.8073  0.0584
 4335TIP3    H237201   6.649   7.529  19.514 -0.0825 -0.1570  0.0615
 4336TIP3   OH237202   5.400   3.029  19.017 -0.2086 -0.0280 -0.3481
 4336TIP3    H137203   5.400   3.119  19.049 -2.8245  0.6747 -2.0293
 4336TIP3    H237204   5.350   2.980  19.082 -1.1368  0.3238 -0.7891
 4337TIP3   OH237205   2.271   3.682  18.037  0.3091  0.3779  0.6176
 4337TIP3    H137206   2.252   3.611  18.097 -0.8473  0.9179  0.9158
 4337TIP3    H237207   2.357   3.661  18.001  1.1313  0.1515  2.6177
 4338TIP3   OH237208   3.387   4.364  19.066  0.3997  0.4545 -0.1475
 4338TIP3    H137209   3.410   4.442  19.016 -1.6223  1.8873  1.0034
 4338TIP3    H237210   3.396   4.391  19.158  2.2060 -1.5263  0.3529
 4339TIP3   OH237211   3.436   2.966  18.949 -0.0149 -0.2219  0.0479
 4339TIP3    H137212   3.419   3.060  18.948  0.4816 -0.1348 -0.6415
 4339TIP3    H237213   3.368   2.928  18.893 -0.7799 -0.3786  1.0682
 4340TIP3   OH237214   3.670   2.749  17.563  0.0175  0.2683  0.5938
 4340TIP3    H137215   3.753   2.735  17.607  0.3616  1.2550  0.3016
 4340TIP3    H237216   3.666   2.844  17.549  0.4550 -0.0539 -2.4405
 4341TIP3   OH237217   4.573   5.364  18.732 -0.0073  0.5212 -0.1841
 4341TIP3    H137218   4.607   5.285  18.692 -1.3661  0.3255 -1.0245
 4341TIP3    H237219   4.634   5.433  18.707  0.5461 -0.0517 -0.4325
 4342TIP3   OH237220   5.666   0.602  17.887 -0.3066  0.6812  0.1124
 4342TIP3    H137221   5.753   0.570  17.863 -1.0001 -0.2677 -1.2786
 4342TIP3    H237222   5.611   0.524  17.885 -1.5975  1.5660 -1.1184
 4343TIP3   OH237223   6.022   4.329  17.478  0.2534  0.2004 -0.1316
 4343TIP3    H137224   5.999   4.240  17.504 -0.8871  0.3865 -0.4355
 4343TIP3    H237225   6.092   4.319  17.414  0.5048 -0.4476  0.2420
 4344TIP3   OH237226   4.562   6.383  18.919 -0.1311 -0.6100  0.4454
 4344TIP3    H137227   4.590   6.307  18.970  0.1787 -0.1327  0.9989
 4344TIP3    H237228   4.561   6.455  18.982 -0.4314 -0.1575 -0.0713
 4345TIP3   OH237229   3.973   5.440  19.516  0.3662 -0.0680  0.1266
 4345TIP3    H137230   3.927   5.516  19.480  1.5165  0.2880 -0.6413
 4345TIP3    H237231   3.932   5.364  19.475  0.0383  0.2084 -0.0563
 4346TIP3   OH237232   3.808   6.774  18.916 -0.3291 -0.3862  0.3414
 4346TIP3    H137233   3.800   6.691  18.868  0.2376 -0.8785  1.0644
 4346TIP3    H237234   3.854   6.750  18.997  1.1490  0.8738 -0.0768
 4347TIP3   OH237235   0.217   7.609  19.180 -0.4612  0.4306 -0.1617
 4347TIP3    H137236   0.301   7.657  19.181  0.0391 -0.4377  0.4545
 4347TIP3    H237237   0.179   7.624  19.266 -0.1845 -0.4717  0.1241
 4348TIP3   OH237238   4.401   0.491  16.881 -0.8623  0.2365 -0.5137
 4348TIP3    H137239   4.343   0.568  16.879  0.1438  1.0744  0.6413
 4348TIP3    H237240   4.482   0.521  16.839 -0.6876 -0.4010 -0.6370
 4349TIP3   OH237241   2.073   4.352  19.571 -0.0722 -0.2123  0.3399
 4349TIP3    H137242   2.131   4.388  19.637 -0.6323  0.4007  0.5133
 4349TIP3    H237243   2.034   4.428  19.529 -1.0716 -0.6026  0.5195
 4350TIP3   OH237244   1.733   0.456  17.061  0.8453 -0.5585 -0.1770
 4350TIP3    H137245   1.712   0.364  17.077  1.1232 -0.8359 -1.2978
 4350TIP3    H237246   1.747   0.461  16.966 -1.6588  1.1479 -0.5360
 4351TIP3   OH237247   7.367   6.744  18.298 -0.2086 -0.1064  0.3795
 4351TIP3    H137248   7.275   6.731  18.274  0.2748 -0.0610 -1.6753
 4351TIP3    H237249   7.368   6.830  18.340 -1.1816 -0.3702  0.9770
 4352TIP3   OH237250   2.504   2.918  18.181 -0.1200  0.3577 -0.1596
 4352TIP3    H137251   2.461   3.003  18.190 -1.3415 -0.3533  0.8923
 4352TIP3    H237252   2.531   2.895  18.270 -1.2155 -1.0653 -0.1668
 4353TIP3   OH237253   7.470   2.165  17.736 -0.3831 -0.3906  0.3812
 4353TIP3    H137254   7.448   2.215  17.815  4.6022  0.1995  1.7330
 4353TIP3    H237255   7.467   2.074  17.765 -0.0168 -0.2611  0.8434
 4354TIP3   OH237256   3.090   6.759  18.284 -0.5059 -0.9059 -0.6332
 4354TIP3    H137257   3.107   6.664  18.285 -1.5988 -1.1114 -0.6043
 4354TIP3    H237258   3.057   6.777  18.372  0.1998 -0.3957 -0.4697
 4355TIP3   OH237259   3.392   1.766  18.846  0.3456 -0.0427 -0.2491
 4355TIP3    H137260   3.464   1.703  18.840 -0.6077 -1.0850 -1.4204
 4355TIP3    H237261   3.320   1.717  18.887 -0.0301  0.6503 -0.0670
 4356TIP3   OH237262   6.312   0.968  16.852  0.3511 -0.1578 -0.2506
 4356TIP3    H137263   6.263   1.026  16.910  0.5418 -0.1502 -0.0983
 4356TIP3    H237264   6.390   0.943  16.902  1.0880  0.7408 -0.9076
 4357TIP3   OH237265   1.647   2.755  18.269  0.0312 -0.3798 -0.0624
 4357TIP3    H137266   1.702   2.758  18.191  2.5965 -1.0102  1.6040
 4357TIP3    H237267   1.614   2.665  18.273 -1.9908  0.2220 -1.5350
 4358TIP3   OH237268   7.635   1.109  18.115 -0.0961  0.2169  0.6950
 4358TIP3    H137269   7.562   1.085  18.056  0.9588 -1.2240 -0.0882
 4358TIP3    H237270   7.632   1.204  18.118 -1.7592  0.2199  0.3519
 4359TIP3   OH237271   3.014   3.938  17.707  0.4212  0.0721  0.3757
 4359TIP3    H137272   2.968   4.020  17.689 -0.5890 -0.0998  1.9442
 4359TIP3    H237273   3.093   3.943  17.654 -0.6529  1.0848 -1.2141
 4360TIP3   OH237274   5.657   6.847  17.230  0.1241 -0.1731 -0.0888
 4360TIP3    H137275   5.589   6.873  17.167 -0.4928 -0.6292  0.3884
 4360TIP3    H237276   5.703   6.775  17.187  1.2948  1.0854 -1.0540
 4361TIP3   OH237277   0.435   2.188  16.855  0.3450 -0.0733  0.1857
 4361TIP3    H137278   0.479   2.230  16.930  0.1686 -0.9639  0.8112
 4361TIP3    H237279   0.364   2.248  16.832 -0.4319 -0.3964  1.6073
 4362TIP3   OH237280   4.128   0.207  19.245  0.0588 -0.2031 -0.0014
 4362TIP3    H137281   4.052   0.252  19.207  0.4236  2.3406  1.9886
 4362TIP3    H237282   4.091   0.156  19.318 -0.0603 -1.3401 -0.8348
 4363TIP3   OH237283   5.195   2.279  19.521 -0.1223 -0.5962  0.1118
 4363TIP3    H137284   5.180   2.254  19.612  0.1521 -0.4793  0.1904
 4363TIP3    H237285   5.274   2.333  19.524  0.2775 -1.1526 -0.2796
 4364TIP3   OH237286   6.804   1.129  17.178  0.1465  0.0092  0.2096
 4364TIP3    H137287   6.717   1.156  17.147 -1.7409 -1.1031  3.9580
 4364TIP3    H237288   6.817   1.042  17.141 -1.9770 -1.2398  2.1894
 4365TIP3   OH237289   6.858   0.531  18.043 -0.5652 -0.4884  0.7019
 4365TIP3    H137290   6.823   0.474  17.974 -1.0125  0.7235 -0.1075
 4365TIP3    H237291   6.894   0.471  18.108 -0.6315 -1.6771 -0.3263
 4366TIP3   OH237292   5.789   5.562  18.923  0.1086 -0.5255  0.5213
 4366TIP3    H137293   5.884   5.566  18.915  0.1686 -1.4101  0.6314
 4366TIP3    H237294   5.767   5.473  18.896 -0.8134  0.0200 -0.6015
 4367TIP3   OH237295   4.697   1.499  16.407  0.0886 -0.3972 -0.1664
 4367TIP3    H137296   4.619   1.448  16.385 -0.9614  0.8859  0.4628
 4367TIP3    H237297   4.716   1.476  16.498 -0.4374  0.3574  0.1464
 4368TIP3   OH237298   1.772   4.832  17.901 -0.3622 -0.0510 -0.0685
 4368TIP3    H137299   1.812   4.746  17.886 -2.0392 -0.8682 -0.0789
 4368TIP3    H237300   1.835   4.878  17.956  0.0274 -1.7542  1.0062
 4369TIP3   OH237301   2.566   4.219  18.135 -0.1369  0.4804 -0.1017
 4369TIP3    H137302   2.629   4.212  18.207  1.1106 -0.2932 -1.2279
 4369TIP3    H237303   2.507   4.145  18.147  0.3406  0.0920 -0.1145
 4370TIP3   OH237304   0.898   7.289  18.447  0.1369  0.8969 -0.5950
 4370TIP3    H137305   0.904   7.385  18.448  0.1273  0.8931 -0.1031
 4370TIP3    H237306   0.989   7.260  18.446  0.1624  0.9064  0.2982
 4371TIP3   OH237307   4.175   3.516  17.213  0.2093  0.4860  0.7609
 4371TIP3    H137308   4.113   3.508  17.285  2.0381 -0.7409  2.2986
 4371TIP3    H237309   4.151   3.598  17.170 -2.0443  0.3616  1.6612
 4372TIP3   OH237310   5.537   0.261  17.270 -0.1236  0.2650  0.0214
 4372TIP3    H137311   5.626   0.250  17.303 -0.4018  0.8536  0.9951
 4372TIP3    H237312   5.524   0.356  17.265 -0.9271  0.1957  0.5564
 4373TIP3   OH237313   6.397   5.426  19.473 -0.3771 -0.4805  0.0843
 4373TIP3    H137314   6.455   5.438  19.548 -0.3501 -0.9494  0.1430
 4373TIP3    H237315   6.412   5.503  19.418  0.1430 -0.5000  0.1988
 4374TIP3   OH237316   4.219   3.327  18.622 -0.1095  0.3234  0.5693
 4374TIP3    H137317   4.262   3.282  18.548  1.8273  0.1750  1.7154
 4374TIP3    H237318   4.280   3.396  18.647 -0.9813  0.7155  1.7068
 4375TIP3   OH237319   0.051   5.079  18.156  0.2496 -0.1133  0.2119
 4375TIP3    H137320   0.099   5.156  18.126 -0.0001  0.1710  0.5282
 4375TIP3    H237321  -0.007   5.112  18.224 -0.0902 -0.5257  0.1306
 4376TIP3   OH237322   5.473   3.418  18.622  0.2318 -0.0583  0.1170
 4376TIP3    H137323   5.469   3.421  18.718  0.7270 -0.8719  0.1649
 4376TIP3    H237324   5.486   3.326  18.601 -0.5832  0.0138 -0.7705
 4377TIP3   OH237325   1.032   4.359  17.411  0.0725 -0.0238  0.6244
 4377TIP3    H137326   1.125   4.378  17.396 -0.1700  0.8936  0.2139
 4377TIP3    H237327   1.027   4.340  17.505  0.6995 -0.2594  0.6171
 4378TIP3   OH237328   1.681   5.331  16.817  0.7636  0.1414 -0.2756
 4378TIP3    H137329   1.642   5.250  16.784  0.1877 -0.4449  1.7027
 4378TIP3    H237330   1.717   5.307  16.902  1.5174  1.7383 -0.1128
 4379TIP3   OH237331   0.130   4.047  17.213 -0.6358 -0.0866  0.3472
 4379TIP3    H137332   0.168   4.108  17.151  2.6404 -3.5609 -1.4738
 4379TIP3    H237333   0.057   4.006  17.165  1.3533 -2.1495 -1.1478
 4380TIP3   OH237334   2.950   3.137  18.237 -0.6775 -0.8970  0.4168
 4380TIP3    H137335   2.944   3.209  18.175  0.4343  0.4472  1.8017
 4380TIP3    H237336   2.952   3.058  18.182 -0.7817  0.1655 -1.1710
 4381TIP3   OH237337   7.275   5.236  18.486 -0.5280 -0.3782 -0.4527
 4381TIP3    H137338   7.223   5.298  18.436  0.7489 -0.7151 -2.3184
 4381TIP3    H237339   7.319   5.289  18.552 -2.4194  0.0455  0.5402
 4382TIP3   OH237340   0.590   2.830  18.399 -0.3349 -0.1536 -0.6416
 4382TIP3    H137341   0.588   2.925  18.412 -0.5570 -0.0196 -1.5931
 4382TIP3    H237342   0.671   2.814  18.352  0.3451 -0.6040  0.6327
 4383TIP3   OH237343   4.535   6.520  19.507  0.3915 -0.4665 -0.1642
 4383TIP3    H137344   4.467   6.583  19.529 -0.7157 -1.1960 -1.3543
 4383TIP3    H237345   4.594   6.568  19.449  1.3449  0.3829  1.4318
 4384TIP3   OH237346   1.936   6.142  18.152 -0.5673 -0.3157 -0.3429
 4384TIP3    H137347   1.995   6.133  18.077 -1.2233  0.7075 -1.0002
 4384TIP3    H237348   1.904   6.053  18.168 -0.6881 -0.4952 -1.5034
 4385TIP3   OH237349   1.538   7.171  17.671  0.5648  0.6869  0.0819
 4385TIP3    H137350   1.552   7.103  17.736  1.1522 -0.0779 -0.8075
 4385TIP3    H237351   1.536   7.253  17.721  0.4042  0.0677  1.1065
 4386TIP3   OH237352   6.053   3.096  19.469  0.6877  0.0689  0.1758
 4386TIP3    H137353   5.966   3.136  19.467  0.5904 -0.0592  1.3217
 4386TIP3    H237354   6.099   3.142  19.539  1.0162 -0.9213  0.6299
 4387TIP3   OH237355   1.711   3.779  16.789 -0.3780 -0.4495  0.1879
 4387TIP3    H137356   1.744   3.815  16.706  0.3714  0.0343  0.6797
 4387TIP3    H237357   1.774   3.710  16.811 -2.2346 -2.7261 -1.1519
 4388TIP3   OH237358   0.179   2.800  19.292  0.8903 -0.4882  0.4161
 4388TIP3    H137359   0.162   2.708  19.316  2.5231 -0.9444 -0.0123
 4388TIP3    H237360   0.211   2.840  19.372 -0.0433 -0.2126  0.6624
 4389TIP3   OH237361   7.413   6.878  16.949  0.1982 -0.7368  0.4476
 4389TIP3    H137362   7.443   6.802  16.999 -0.2318  0.9806  3.5641
 4389TIP3    H237363   7.322   6.891  16.977  0.1982  0.7993 -0.1738
 4390TIP3   OH237364   2.562   5.222  16.889 -0.2119  0.6166 -0.4317
 4390TIP3    H137365   2.565   5.171  16.808 -0.6444  2.0001 -1.3430
 4390TIP3    H237366   2.636   5.190  16.940 -0.2846 -0.6978 -1.1007
 4391TIP3   OH237367   5.484   6.253  18.957  0.0771 -0.2807  0.4524
 4391TIP3    H137368   5.505   6.210  19.040 -0.9186  0.3781  1.0588
 4391TIP3    H237369   5.559   6.308  18.938 -0.5414  1.1871  2.0159
 4392TIP3   OH237370   5.446   7.289  16.810  0.4229 -0.1314 -0.5051
 4392TIP3    H137371   5.485   7.270  16.895  0.0823  0.0343 -0.3093
 4392TIP3    H237372   5.476   7.377  16.789 -0.2600  0.2107 -0.1065
 4393TIP3   OH237373   0.565   6.391  17.094  0.4587  0.4312 -0.3104
 4393TIP3    H137374   0.587   6.362  17.006  1.2335  0.2160 -0.0583
 4393TIP3    H237375   0.500   6.329  17.125  2.0507 -1.0775  0.2009
 4394TIP3   OH237376   2.406   1.413  18.065 -0.6064  0.6846 -0.1533
 4394TIP3    H137377   2.467   1.487  18.064 -1.0323  1.0383 -0.4087
 4394TIP3    H237378   2.351   1.426  17.988  0.4599 -0.8754 -1.2420
 4395TIP3   OH237379   2.651   5.990  18.511  0.0180  0.1060  0.2284
 4395TIP3    H137380   2.571   6.023  18.554 -1.0204 -0.2390 -1.3614
 4395TIP3    H237381   2.679   6.063  18.456  0.0891 -0.2201 -0.1633
 4396TIP3   OH237382   2.569   0.777  19.183 -0.2341 -0.4047  0.1400
 4396TIP3    H137383   2.626   0.725  19.127 -0.5183 -0.1208 -0.4138
 4396TIP3    H237384   2.500   0.716  19.209 -0.3951 -0.3882 -0.2520
 4397TIP3   OH237385   0.437   4.190  18.708  0.4500 -0.0268 -0.2146
 4397TIP3    H137386   0.397   4.269  18.672 -3.1309 -1.5014  0.1272
 4397TIP3    H237387   0.438   4.128  18.635  0.6530 -0.5248  0.2015
 4398TIP3   OH237388   7.447   1.973  19.202 -0.1084 -0.1308  0.6599
 4398TIP3    H137389   7.353   1.976  19.190 -0.1298  0.2962  0.9305
 4398TIP3    H237390   7.470   1.881  19.188 -0.6318 -0.3353  1.1249
 4399TIP3   OH237391   4.529   0.130  17.750  0.4836 -0.0459 -0.1947
 4399TIP3    H137392   4.437   0.116  17.772  0.8017 -0.2181  1.1326
 4399TIP3    H237393   4.527   0.174  17.665 -0.7386 -1.8306 -1.1423
 4400TIP3   OH237394   5.515   3.730  18.956  0.6617  0.0490 -0.0138
 4400TIP3    H137395   5.564   3.695  18.881  1.4653 -1.8569  1.3229
 4400TIP3    H237396   5.581   3.742  19.024 -0.3232 -0.1110  1.0031
 4401TIP3   OH237397   0.559   0.606  17.102 -0.0443  0.0890 -0.1412
 4401TIP3    H137398   0.547   0.586  17.010 -1.1249 -0.4709  0.1137
 4401TIP3    H237399   0.628   0.673  17.103  0.7939 -0.7307 -1.2657
 4402TIP3   OH237400   6.088   1.817  18.119 -0.4526  0.1566  0.3945
 4402TIP3    H137401   6.119   1.765  18.045 -2.1650 -1.5790  0.8186
 4402TIP3    H237402   6.080   1.906  18.084 -0.4413 -0.4584 -1.2613
 4403TIP3   OH237403   0.288   5.233  19.702  0.8053 -0.1687  0.2483
 4403TIP3    H137404   0.346   5.281  19.643  0.2942  1.0299  0.7121
 4403TIP3    H237405   0.321   5.253  19.790  1.4614 -1.8157  0.4254
 4404TIP3   OH237406   2.935   3.366  19.083  0.4034  0.4281  0.0765
 4404TIP3    H137407   2.942   3.274  19.107 -1.3823  0.4315  0.7910
 4404TIP3    H237408   2.910   3.410  19.164 -1.5360  1.0884 -0.8086
 4405TIP3   OH237409   4.572   2.041  19.338  0.3061 -0.1797  0.4267
 4405TIP3    H137410   4.529   2.000  19.263  0.6763  0.1807  0.0136
 4405TIP3    H237411   4.509   2.104  19.371 -0.1740 -0.9042  0.9183
 4406TIP3   OH237412   2.989   3.313  18.034  0.4408 -0.1585 -0.1867
 4406TIP3    H137413   2.979   3.331  17.941  0.0925  1.0457  0.0693
 4406TIP3    H237414   3.038   3.388  18.068  0.2372 -0.3962  0.6650
 4407TIP3   OH237415   2.574   5.987  18.844  0.0634  0.2359  0.0054
 4407TIP3    H137416   2.663   5.999  18.811 -0.4336  0.0209 -1.4878
 4407TIP3    H237417   2.581   5.912  18.904  1.1580  1.2167  1.1449
 4408TIP3   OH237418   4.492   0.527  18.271 -0.3963  0.8414  0.3543
 4408TIP3    H137419   4.452   0.550  18.187 -0.5214  3.1789  0.9824
 4408TIP3    H237420   4.583   0.556  18.263  0.1621 -0.8207  0.3382
 4409TIP3   OH237421   3.456   3.798  18.614 -0.4394 -0.2070  0.4663
 4409TIP3    H137422   3.429   3.875  18.664 -1.8835  0.4207 -1.1835
 4409TIP3    H237423   3.546   3.817  18.588 -0.1420  0.0648  1.6257
 4410TIP3   OH237424   5.105   5.254  17.829 -0.6200  0.5732 -0.1997
 4410TIP3    H137425   5.193   5.271  17.797 -0.3853 -0.7662 -0.3527
 4410TIP3    H237426   5.083   5.330  17.883  1.1922  0.2897  1.0287
 4411TIP3   OH237427   3.109   5.827  17.672 -0.7381 -0.7332  0.1977
 4411TIP3    H137428   3.188   5.818  17.725 -1.0066 -0.1704  0.7009
 4411TIP3    H237429   3.115   5.756  17.608  0.3482 -0.4833  0.0100
 4412TIP3   OH237430   6.429   2.981  16.709  0.1954  0.5269 -0.4047
 4412TIP3    H137431   6.352   3.029  16.741 -0.2930 -0.0818 -0.6254
 4412TIP3    H237432   6.406   2.889  16.723 -0.0023  0.2267 -2.3979
 4413TIP3   OH237433   0.538   7.360  18.912  0.2151 -0.0995 -0.0665
 4413TIP3    H137434   0.463   7.410  18.944  0.2597  0.8692 -1.3936
 4413TIP3    H237435   0.568   7.409  18.835 -0.3858 -2.6877 -2.0992
 4414TIP3   OH237436   2.266   6.179  17.684  0.1461  0.5958  0.0619
 4414TIP3    H137437   2.269   6.275  17.684  0.8510  0.5858 -1.1799
 4414TIP3    H237438   2.181   6.157  17.645  0.2229  0.7111 -0.1689
 4415TIP3   OH237439   0.552   4.353  19.238 -0.7002  0.3362 -0.3998
 4415TIP3    H137440   0.536   4.283  19.174  0.4047  1.9004 -2.5456
 4415TIP3    H237441   0.471   4.403  19.239 -0.7175  0.3138 -0.5953
 4416TIP3   OH237442   2.815   3.041  19.206  0.2623 -0.5250 -0.3681
 4416TIP3    H137443   2.745   3.051  19.142  0.5642 -0.7698 -0.7404
 4416TIP3    H237444   2.816   3.124  19.253  0.6151 -0.0033 -1.2671
 4417TIP3   OH237445   2.180   0.295  17.522  0.4135  0.9210  0.0523
 4417TIP3    H137446   2.089   0.269  17.508  0.6392  0.7156 -1.1868
 4417TIP3    H237447   2.201   0.350  17.446  1.2794  1.0732  0.3882
 4418TIP3   OH237448   7.164   0.931  19.182  0.1333 -0.4743  0.3783
 4418TIP3    H137449   7.070   0.913  19.176  0.1906 -0.9744  0.8590
 4418TIP3    H237450   7.173   1.023  19.157 -0.5285 -0.3167  0.7050
 4419TIP3   OH237451   0.024   1.471  18.439 -0.3250  0.2718 -0.0580
 4419TIP3    H137452   0.077   1.430  18.507  0.9794  1.4092 -0.3387
 4419TIP3    H237453  -0.054   1.415  18.432  0.3560 -0.8754  1.0769
 4420TIP3   OH237454   0.751   6.601  16.364  0.2452 -0.4607  0.6230
 4420TIP3    H137455   0.784   6.513  16.384  0.1737 -1.0563 -1.6175
 4420TIP3    H237456   0.690   6.588  16.291  0.4665  1.4707  0.0226
 4421TIP3   OH237457   5.345   4.095  17.263  0.2989 -1.2195 -0.2528
 4421TIP3    H137458   5.259   4.137  17.255  1.0111  0.2453 -0.6150
 4421TIP3    H237459   5.326   4.001  17.258 -1.0182 -0.9256 -3.2172
 4422TIP3   OH237460   5.441   4.148  17.530  0.2601 -0.0117  0.0339
 4422TIP3    H137461   5.403   4.065  17.560 -1.9881  1.6176  2.1366
 4422TIP3    H237462   5.418   4.153  17.438 -3.2214 -0.0097  0.7619
 4423TIP3   OH237463   4.485   0.644  17.136  0.0825  0.5109 -0.7424
 4423TIP3    H137464   4.419   0.577  17.119  0.6804 -0.5501  0.8880
 4423TIP3    H237465   4.511   0.675  17.050  0.0833 -1.6538 -1.5762
 4424TIP3   OH237466   1.486   0.084  19.291 -0.2688  0.4765 -0.0499
 4424TIP3    H137467   1.402   0.131  19.290 -0.3819  0.2980 -1.4795
 4424TIP3    H237468   1.476   0.018  19.359 -0.9794  1.0035  0.3703
 4425TIP3   OH237469   1.260   3.946  17.313  0.5501  0.1791  0.0966
 4425TIP3    H137470   1.348   3.921  17.286  0.0404 -0.9400 -0.6227
 4425TIP3    H237471   1.238   3.885  17.384  0.2904  0.3070  0.1277
 4426TIP3   OH237472   7.350   2.533  17.015 -0.4164 -0.1223  0.3298
 4426TIP3    H137473   7.444   2.517  17.003 -0.2775  0.0892  1.1272
 4426TIP3    H237474   7.308   2.459  16.971  0.0451  0.8718 -1.9078
 4427TIP3   OH237475   4.872   7.305  17.346 -0.4116 -0.3388  0.3560
 4427TIP3    H137476   4.869   7.303  17.250  1.0865  0.5184  0.2578
 4427TIP3    H237477   4.794   7.257  17.374 -2.1626  1.4277 -1.2693
 4428TIP3   OH237478   5.147   6.379  18.346 -0.3028 -0.2104  0.1328
 4428TIP3    H137479   5.071   6.401  18.400 -0.2000 -0.9901  0.6121
 4428TIP3    H237480   5.220   6.426  18.387 -0.3839 -0.0789  0.1281
 4429TIP3   OH237481   0.746   0.726  18.905  0.0523 -0.3953  0.4159
 4429TIP3    H137482   0.827   0.776  18.915  0.3055 -1.0465  1.7619
 4429TIP3    H237483   0.700   0.770  18.833  2.0832 -0.6979 -1.1538
 4430TIP3   OH237484   3.227   0.332  18.752  0.0309  0.3408 -0.0372
 4430TIP3    H137485   3.143   0.332  18.797  0.1854 -0.9449  0.2856
 4430TIP3    H237486   3.205   0.321  18.659 -0.1458 -0.4056  0.0911
 4431TIP3   OH237487   0.071   4.849  17.519 -0.1901 -0.2318 -0.0220
 4431TIP3    H137488  -0.008   4.897  17.494  0.8483  0.9833 -1.1255
 4431TIP3    H237489   0.121   4.910  17.574  0.0956 -0.9004  0.4832
 4432TIP3   OH237490   3.786   0.667  18.503  0.0874 -0.3013  0.2608
 4432TIP3    H137491   3.725   0.643  18.572  0.9907  0.4940  1.3939
 4432TIP3    H237492   3.870   0.676  18.548  0.5044  1.2864 -0.7318
 4433TIP3   OH237493   0.816   7.088  18.237 -0.9183 -0.0191 -0.1020
 4433TIP3    H137494   0.828   7.143  18.314 -0.6921 -0.2161  0.0045
 4433TIP3    H237495   0.844   7.142  18.163 -3.0291  0.9250 -0.3011
 4434TIP3   OH237496   1.887   3.419  16.661 -0.1033  0.8845 -0.1376
 4434TIP3    H137497   1.969   3.468  16.648 -0.0251  0.5630 -0.9645
 4434TIP3    H237498   1.915   3.330  16.679 -0.2649  0.8115 -0.2453
 4435TIP3   OH237499   7.667   3.400  18.842 -0.3941 -0.3147 -0.1516
 4435TIP3    H137500   7.754   3.362  18.831 -0.0035  0.0560  1.3374
 4435TIP3    H237501   7.681   3.495  18.840 -0.6644 -0.2460  0.6367
 4436TIP3   OH237502   7.525   1.980  18.561  0.2978 -0.4157 -0.0699
 4436TIP3    H137503   7.568   1.919  18.501 -0.5820 -0.6659 -0.4704
 4436TIP3    H237504   7.556   2.066  18.533 -1.2974 -0.3708 -1.9943
 4437TIP3   OH237505   1.161   1.248  17.628  0.4017 -0.4289  0.2345
 4437TIP3    H137506   1.089   1.191  17.600 -0.2737  0.5291 -0.0313
 4437TIP3    H237507   1.220   1.252  17.553  0.0923 -0.2271 -0.0025
 4438TIP3   OH237508   6.688   0.923  17.981  0.1343 -0.2684  0.5742
 4438TIP3    H137509   6.749   0.852  17.997  1.3652  0.2425 -1.4464
 4438TIP3    H237510   6.729   1.000  18.019 -0.2145 -0.2586  0.9420
 4439TIP3   OH237511   7.079   5.768  18.638  0.2310  0.0764 -0.3355
 4439TIP3    H137512   7.024   5.846  18.645  1.3734  0.8796 -0.1368
 4439TIP3    H237513   7.034   5.703  18.693 -1.2812  0.2408 -1.3239
 4440TIP3   OH237514   3.071   0.378  17.366  0.2212 -0.2497  0.2233
 4440TIP3    H137515   3.030   0.333  17.439  1.5026  0.8265  1.6807
 4440TIP3    H237516   3.076   0.470  17.394  0.4005  0.2545 -1.3716
 4441TIP3   OH237517   5.839   5.312  17.583  1.1895 -0.0524 -0.1826
 4441TIP3    H137518   5.773   5.378  17.561 -1.0398 -1.3201  2.2199
 4441TIP3    H237519   5.863   5.332  17.673  1.1743 -1.9497  0.2663
 4442TIP3   OH237520   1.523   5.089  17.120 -0.3504 -0.6741 -0.0885
 4442TIP3    H137521   1.469   5.143  17.062 -0.5402 -0.8743 -0.1019
 4442TIP3    H237522   1.465   5.067  17.192 -0.6018 -1.7292 -0.5987
 4443TIP3   OH237523   3.550   1.937  17.306  0.1363 -0.3931  0.7323
 4443TIP3    H137524   3.504   1.976  17.231  0.4509 -1.3187  0.0305
 4443TIP3    H237525   3.634   1.908  17.270  0.6503 -0.0883  1.6531
 4444TIP3   OH237526   0.487   5.939  17.794  0.0930  0.2538  0.7246
 4444TIP3    H137527   0.403   5.894  17.785  0.3166 -0.3700  1.6262
 4444TIP3    H237528   0.464   6.031  17.804 -0.4726  0.1243  0.6463
 4445TIP3   OH237529   0.915   0.429  17.597  0.5326  0.2783  0.4511
 4445TIP3    H137530   0.889   0.477  17.675 -0.2628  0.7410 -0.0771
 4445TIP3    H237531   0.864   0.348  17.600 -2.3642  1.8573 -1.3784
 4446TIP3   OH237532   4.995   1.609  17.995  0.0226  0.3440 -0.0153
 4446TIP3    H137533   5.024   1.537  18.052 -2.2509  0.5398  1.5309
 4446TIP3    H237534   5.007   1.688  18.048  0.8522  0.9443 -1.0497
 4447TIP3   OH237535   0.060   1.241  18.903  0.4352 -0.1082  0.7544
 4447TIP3    H137536   0.013   1.241  18.986 -1.2657  0.1554 -0.1723
 4447TIP3    H237537   0.082   1.149  18.888 -2.6120 -0.7635 -0.2743
 4448TIP3   OH237538   3.615   3.934  17.944 -0.3504 -0.1320 -0.7734
 4448TIP3    H137539   3.674   3.859  17.947 -2.5407 -1.9070  0.0487
 4448TIP3    H237540   3.596   3.946  17.851 -0.9460 -1.4118 -0.8279
 4449TIP3   OH237541   6.604   3.862  17.921 -0.4134  0.4751 -0.0822
 4449TIP3    H137542   6.675   3.899  17.870  0.5370 -1.8320 -0.5710
 4449TIP3    H237543   6.525   3.877  17.869  0.4298 -1.1909 -2.0066
 4450TIP3   OH237544   0.166   6.230  16.850 -0.0187 -0.0392  0.7008
 4450TIP3    H137545   0.227   6.302  16.835 -2.5926  1.9929 -0.9030
 4450TIP3    H237546   0.138   6.241  16.941  0.5888  0.1530  0.8661
 4451TIP3   OH237547   4.238   1.974  16.949 -0.6177  0.3562  0.5605
 4451TIP3    H137548   4.236   2.063  16.912  1.5796 -0.1195 -0.8520
 4451TIP3    H237549   4.222   1.987  17.043 -0.8254  2.1774  0.3113
 4452TIP3   OH237550   3.954   2.983  19.073 -0.4671  0.0197 -0.1918
 4452TIP3    H137551   3.895   2.927  19.124 -0.8839  0.1618 -0.5136
 4452TIP3    H237552   3.898   3.022  19.006  0.0276  0.0225 -0.6101
 4453TIP3   OH237553   6.703   3.531  17.037 -0.4784  0.2622 -0.2222
 4453TIP3    H137554   6.743   3.466  17.095 -1.0643 -1.0999 -1.2869
 4453TIP3    H237555   6.739   3.511  16.951 -2.6369 -0.3784 -1.0479
 4454TIP3   OH237556   2.416   6.399  17.575 -0.2686 -0.3248 -0.8754
 4454TIP3    H137557   2.353   6.395  17.503 -0.9568 -2.6079 -0.2283
 4454TIP3    H237558   2.451   6.488  17.571 -0.7121 -0.1863 -3.6453
 4455TIP3   OH237559   7.624   1.734  19.053  0.5352 -0.0569 -0.0991
 4455TIP3    H137560   7.643   1.824  19.027  0.6855  0.1306  0.6442
 4455TIP3    H237561   7.680   1.681  18.996  2.6551  0.4479  1.4107
 4456TIP3   OH237562   4.141   6.525  17.523  0.1575 -0.0371 -0.2414
 4456TIP3    H137563   4.130   6.614  17.555  0.2273  0.2025 -0.8719
 4456TIP3    H237564   4.228   6.499  17.554  0.9081  0.7711 -1.5416
 4457TIP3   OH237565   6.531   4.797  16.966  0.0828  0.0990  0.5203
 4457TIP3    H137566   6.466   4.867  16.975  0.7132  0.6043  1.3270
 4457TIP3    H237567   6.482   4.723  16.933 -0.9300  0.4566  1.1597
 4458TIP3   OH237568   6.048   4.104  19.018  0.1487 -0.1380 -0.0279
 4458TIP3    H137569   6.104   4.126  19.093 -1.2571 -0.2076  1.0763
 4458TIP3    H237570   6.075   4.015  18.994  1.5742  0.3922 -0.5473
 4459TIP3   OH237571   5.128   6.283  19.140 -0.1569 -0.1470 -0.4828
 4459TIP3    H137572   5.147   6.296  19.047  1.0164  0.0879 -0.2297
 4459TIP3    H237573   5.135   6.188  19.152  0.2726 -0.1212 -0.5192
 4460TIP3   OH237574   2.973   6.528  17.983 -0.1394 -0.7843  0.4678
 4460TIP3    H137575   3.019   6.450  17.952 -1.1863 -1.2139 -0.0319
 4460TIP3    H237576   2.956   6.579  17.904  0.5385 -0.0367  0.7920
 4461TIP3   OH237577   0.373   1.890  18.435 -0.4082  0.1136  0.2797
 4461TIP3    H137578   0.377   1.813  18.378  2.7255 -0.2117  0.7614
 4461TIP3    H237579   0.318   1.863  18.508 -3.7920  0.2401 -1.9808
 4462TIP3   OH237580   2.995   0.579  18.472  0.0051  0.3820 -0.2538
 4462TIP3    H137581   2.928   0.642  18.445 -1.2572 -0.9852 -0.4702
 4462TIP3    H237582   2.955   0.532  18.545  0.3995 -0.9703 -0.8716
 4463TIP3   OH237583   6.638   6.178  17.303  0.7276 -0.5791 -0.8113
 4463TIP3    H137584   6.722   6.132  17.305  1.2070  0.2947  0.2758
 4463TIP3    H237585   6.644   6.234  17.225  0.7947 -1.1620 -1.2283
 4464TIP3   OH237586   6.715   5.744  18.258  0.0239  0.1909 -0.3343
 4464TIP3    H137587   6.723   5.743  18.353  2.3663  0.0556 -0.4837
 4464TIP3    H237588   6.742   5.657  18.230  0.5451  0.6187 -1.1900
 4465TIP3   OH237589   7.602   6.961  18.567  0.3208 -0.5142 -0.1817
 4465TIP3    H137590   7.524   6.927  18.611  0.1190  0.3943  0.1899
 4465TIP3    H237591   7.675   6.933  18.622  0.0998  0.2568  0.5236
 4466TIP3   OH237592   0.341   6.121  19.070  0.6707  0.0659 -0.1515
 4466TIP3    H137593   0.435   6.140  19.071  0.7358 -0.2384  1.2987
 4466TIP3    H237594   0.311   6.153  18.985  1.8931  1.1315 -0.2075
 4467TIP3   OH237595   5.823   0.219  17.638  0.4059 -0.2367 -0.0382
 4467TIP3    H137596   5.870   0.139  17.613 -1.2320 -0.8677 -1.1980
 4467TIP3    H237597   5.768   0.192  17.712  1.1542  0.2899  0.7389
 4468TIP3   OH237598   4.646   6.702  18.072  0.0059 -0.4516 -0.1094
 4468TIP3    H137599   4.638   6.615  18.111  0.6454 -0.6134 -0.3178
 4468TIP3    H237600   4.735   6.703  18.035 -0.4671 -0.2021 -1.3061
 4469TIP3   OH237601   1.281   2.265  18.893 -0.3017  0.5336 -0.2596
 4469TIP3    H137602   1.201   2.262  18.946  1.9166 -0.5146  3.3628
 4469TIP3    H237603   1.303   2.173  18.879  2.3443  0.5913  2.5210
 4470TIP3   OH237604   1.844   5.907  18.781  0.0603 -0.0682  0.6162
 4470TIP3    H137605   1.828   5.818  18.810  1.6284 -0.2578  0.9995
 4470TIP3    H237606   1.912   5.899  18.714 -1.7333  0.6034 -1.4245
 4471TIP3   OH237607   0.999   5.627  18.556  0.2459 -0.3282 -0.0191
 4471TIP3    H137608   0.963   5.538  18.556  1.5560 -0.8709  0.2528
 4471TIP3    H237609   0.924   5.682  18.534 -0.6818 -1.4531  0.2022
 4472TIP3   OH237610   5.901   0.471  17.827  1.0171 -0.6567 -0.1783
 4472TIP3    H137611   5.930   0.551  17.782  0.0119 -0.1236  0.0910
 4472TIP3    H237612   5.956   0.402  17.791  1.4708  0.0523 -0.8886
 4473TIP3   OH237613   5.622   3.535  17.505 -0.0773 -0.1582 -0.1898
 4473TIP3    H137614   5.682   3.542  17.431  0.0426  1.5298  0.0376
 4473TIP3    H237615   5.572   3.616  17.504 -1.3845 -0.9195  0.4746
 4474TIP3   OH237616   1.080   1.015  17.785 -0.0846  0.0827  0.2221
 4474TIP3    H137617   1.131   0.961  17.845 -0.7173 -1.9551 -0.9557
 4474TIP3    H237618   1.138   1.087  17.762  1.8516 -1.4685 -0.0820
 4475TIP3   OH237619   0.027   6.070  18.193  0.0578  0.4801 -0.2578
 4475TIP3    H137620   0.115   6.100  18.214  1.9513 -2.3264 -3.3108
 4475TIP3    H237621   0.031   5.975  18.200 -2.4115  0.1823 -1.5812
 4476TIP3   OH237622   0.486   3.743  19.116  0.0111 -0.4417 -0.2998
 4476TIP3    H137623   0.444   3.658  19.132  0.6057 -1.1880 -2.3941
 4476TIP3    H237624   0.413   3.806  19.120 -0.7247 -1.2614 -0.4246
 4477TIP3   OH237625   4.808   6.092  18.773 -0.1799 -0.5825  1.0215
 4477TIP3    H137626   4.887   6.038  18.766  0.7019  0.5966  1.6415
 4477TIP3    H237627   4.816   6.136  18.857 -0.1178  1.6557 -0.0702
 4478TIP3   OH237628   3.633   2.361  19.348  0.1313 -0.1139  0.2970
 4478TIP3    H137629   3.632   2.281  19.296  0.8345  0.6669 -0.9748
 4478TIP3    H237630   3.717   2.359  19.394 -0.0907 -0.3643  0.6946
 4479TIP3   OH237631   0.281   6.147  19.338  0.4463  0.4244  0.0509
 4479TIP3    H137632   0.323   6.145  19.252 -1.0671 -2.3889 -0.7596
 4479TIP3    H237633   0.252   6.057  19.352 -0.9729  1.1959  2.7135
 4480TIP3   OH237634   6.144   7.552  17.306 -0.1806 -0.5706 -0.3373
 4480TIP3    H137635   6.054   7.521  17.301 -0.7249  0.7231  0.5680
 4480TIP3    H237636   6.184   7.499  17.375 -1.3801  1.2279  1.8856
 4481TIP3   OH237637   2.793   1.278  18.926 -0.0384 -0.1078 -0.3472
 4481TIP3    H137638   2.820   1.186  18.925  0.7300  0.0977 -1.6482
 4481TIP3    H237639   2.705   1.277  18.890 -0.9098 -0.5412  1.7006
 4482TIP3   OH237640   4.714   3.430  16.869  0.1159  0.1421 -0.1385
 4482TIP3    H137641   4.805   3.413  16.895  0.4242 -1.0472 -1.8687
 4482TIP3    H237642   4.694   3.515  16.910  1.6655 -0.0113  1.0621
 4483TIP3   OH237643   2.839   6.336  19.372  0.2803  0.1659 -0.3262
 4483TIP3    H137644   2.809   6.363  19.285  0.1536 -0.6991 -0.5617
 4483TIP3    H237645   2.905   6.401  19.397  0.6388  0.1654 -1.2590
 4484TIP3   OH237646   3.341   1.529  19.323  0.1406 -0.0352 -0.2397
 4484TIP3    H137647   3.278   1.484  19.379  0.4145 -1.2623 -0.8761
 4484TIP3    H237648   3.410   1.464  19.308  1.1129  0.9722 -0.2927
 4485TIP3   OH237649   7.037   4.397  19.294 -0.3552  0.0127 -0.0605
 4485TIP3    H137650   7.084   4.466  19.342  0.5488 -0.6174 -0.0112
 4485TIP3    H237651   7.032   4.325  19.356 -0.2887 -0.3632 -0.4864
 4486TIP3   OH237652   6.157   6.899  17.171  0.7296  0.5568  0.0307
 4486TIP3    H137653   6.203   6.817  17.184  0.9925  0.7357  0.2498
 4486TIP3    H237654   6.148   6.908  17.076  2.1686  1.0799 -0.0755
 4487TIP3   OH237655   2.754   6.912  17.409  0.0998  0.8590  0.7023
 4487TIP3    H137656   2.809   6.982  17.373 -1.4662  0.9266 -1.7586
 4487TIP3    H237657   2.710   6.953  17.484  0.5418  1.9454  0.3924
 4488TIP3   OH237658   6.719   1.752  18.574 -0.7230 -0.0245  0.3754
 4488TIP3    H137659   6.743   1.752  18.667 -0.1756  0.4007  0.2373
 4488TIP3    H237660   6.741   1.664  18.543  0.1797  0.1973  0.3748
 4489TIP3   OH237661   7.497   6.077  19.066  0.0309  0.5375 -0.8004
 4489TIP3    H137662   7.510   6.035  18.981  1.8061 -0.4905 -0.0887
 4489TIP3    H237663   7.458   6.010  19.121 -1.3727  1.2858 -0.8454
 4490TIP3   OH237664   0.979   6.066  18.275  0.5008 -0.3129 -0.0759
 4490TIP3    H137665   0.978   6.076  18.180 -1.0707  0.1114 -0.0376
 4490TIP3    H237666   1.072   6.064  18.298  0.9536 -2.2985 -1.7947
 4491TIP3   OH237667   3.288   5.633  17.223  0.4526 -0.4921 -0.6953
 4491TIP3    H137668   3.256   5.543  17.224  1.2244 -0.8399 -2.6064
 4491TIP3    H237669   3.351   5.635  17.150  0.7405  1.4911 -0.4455
 4492TIP3   OH237670   1.513   7.491  19.003 -0.3987 -0.2841 -0.3244
 4492TIP3    H137671   1.477   7.453  19.083  1.7624  0.4290  1.0852
 4492TIP3    H237672   1.570   7.422  18.968  3.1218  1.1675  1.9576
 4493TIP3   OH237673   3.417   5.484  18.379  0.0014  0.1222  0.2610
 4493TIP3    H137674   3.493   5.541  18.389  1.2953 -1.5301  0.2167
 4493TIP3    H237675   3.346   5.544  18.352  1.2956  1.6797  0.1431
 4494TIP3   OH237676   1.944   0.160  18.853 -0.3120  0.2749  0.0977
 4494TIP3    H137677   2.011   0.164  18.784  0.2528  1.0886  0.6700
 4494TIP3    H237678   1.884   0.232  18.833 -1.5337 -0.9762 -0.9024
 4495TIP3   OH237679   5.191   4.418  18.824  0.2158  0.2111  0.1158
 4495TIP3    H137680   5.199   4.433  18.730 -0.0378  1.0094  0.2137
 4495TIP3    H237681   5.167   4.504  18.860  0.2898 -0.0907  0.9046
 4496TIP3   OH237682   1.590   0.656  19.205  0.4063  0.3143 -0.0853
 4496TIP3    H137683   1.532   0.732  19.199 -0.2048 -0.2086 -1.0890
 4496TIP3    H237684   1.543   0.594  19.260  1.1543  0.8412  1.2140
 4497TIP3   OH237685   4.325   2.838  19.255 -0.2158 -0.0740  0.1558
 4497TIP3    H137686   4.274   2.872  19.329 -0.7261 -1.7003  0.5814
 4497TIP3    H237687   4.287   2.881  19.178 -1.7658 -0.6890  0.5337
 4498TIP3   OH237688   2.770   6.127  16.614  0.4074 -0.4123  0.1438
 4498TIP3    H137689   2.764   6.036  16.641  0.8522 -0.6502 -0.5211
 4498TIP3    H237690   2.823   6.169  16.681 -0.9692 -0.3073  1.2084
 4499TIP3   OH237691   0.477   7.657  17.485 -0.3519 -0.0115  0.8890
 4499TIP3    H137692   0.556   7.604  17.497 -0.7493 -1.4597 -1.9716
 4499TIP3    H237693   0.509   7.747  17.491  1.8880 -0.5226 -1.4424
 4500TIP3   OH237694   0.890   2.739  18.103  0.1411  0.0585 -0.4337
 4500TIP3    H137695   0.881   2.766  18.195  0.9762  1.2145 -0.6616
 4500TIP3    H237696   0.983   2.719  18.093  0.7223  2.8666 -1.7174
 4501TIP3   OH237697   7.486   0.256  18.608 -0.6478  0.3104 -0.1306
 4501TIP3    H137698   7.419   0.323  18.614 -0.5440  0.3206  1.3380
 4501TIP3    H237699   7.469   0.198  18.683  2.2480  1.5443  1.6770
 4502TIP3   OH237700   6.646   4.285  18.058  0.3380 -0.0579 -0.0370
 4502TIP3    H137701   6.561   4.293  18.014 -0.3027 -0.8052  1.0081
 4502TIP3    H237702   6.706   4.258  17.989 -0.6405 -1.2111 -0.4738
 4503TIP3   OH237703   3.873   2.973  19.372 -0.4170 -0.6386 -0.3944
 4503TIP3    H137704   3.793   3.015  19.340 -0.2494  0.6936  0.8215
 4503TIP3    H237705   3.906   3.033  19.439  0.4791 -2.1811  0.6007
 4504TIP3   OH237706   3.640   7.252  18.925 -0.2213 -0.5056 -0.3284
 4504TIP3    H137707   3.640   7.156  18.934  0.0895 -0.7974 -2.6629
 4504TIP3    H237708   3.575   7.268  18.856 -0.4793  1.0042  0.2497
 4505TIP3   OH237709   5.592   1.912  18.310 -0.5207 -0.3560  0.0525
 4505TIP3    H137710   5.574   1.898  18.217 -2.4753 -0.1151  0.3607
 4505TIP3    H237711   5.594   1.824  18.348  2.4115 -0.6469 -0.4873
 4506TIP3   OH237712   5.167   4.474  19.511 -0.1962 -0.6363 -0.0493
 4506TIP3    H137713   5.190   4.565  19.495 -1.3495 -0.3318 -0.1149
 4506TIP3    H237714   5.102   4.454  19.443 -0.7329 -1.1636  0.6037
 4507TIP3   OH237715   3.510   4.228  18.862 -0.3868 -0.5118 -0.0015
 4507TIP3    H137716   3.453   4.245  18.938 -0.4031 -0.3646 -0.0454
 4507TIP3    H237717   3.459   4.260  18.787 -0.0454  0.0843  0.0097
 4508TIP3   OH237718   4.196   0.739  18.336 -0.0922  0.0105  0.0784
 4508TIP3    H137719   4.268   0.789  18.299  1.6400 -2.8038 -0.6303
 4508TIP3    H237720   4.234   0.696  18.413 -1.3397 -0.6472  0.3518
 4509TIP3   OH237721   5.867   2.329  17.621 -1.1170  0.2978 -0.0746
 4509TIP3    H137722   5.835   2.411  17.660  0.8346  1.0082  0.1242
 4509TIP3    H237723   5.820   2.323  17.538  2.3385  4.5440 -2.7678
 4510TIP3   OH237724   3.281   5.388  17.927  0.5220 -0.5361 -0.1533
 4510TIP3    H137725   3.274   5.359  18.018 -1.6507  0.3708  0.0158
 4510TIP3    H237726   3.357   5.447  17.927  1.0759 -1.2180  0.8598
 4511TIP3   OH237727   3.863   4.662  18.150 -0.1122 -0.0762 -0.2877
 4511TIP3    H137728   3.957   4.642  18.146 -0.2951 -1.0362 -0.1720
 4511TIP3    H237729   3.834   4.658  18.059  0.2071  1.6082 -0.4937
 4512TIP3   OH237730   2.609   6.588  17.727  0.1735 -0.1599 -0.2771
 4512TIP3    H137731   2.640   6.663  17.778  0.2247 -0.1241 -0.3613
 4512TIP3    H237732   2.677   6.522  17.738 -0.9214 -1.0421  1.6878
 4513TIP3   OH237733   5.211   2.343  17.830 -0.1279  0.0566 -0.2149
 4513TIP3    H137734   5.182   2.264  17.785  0.5772 -0.6096  0.4786
 4513TIP3    H237735   5.292   2.367  17.785 -0.4584  0.5298 -0.5734
 4514TIP3   OH237736   6.894   1.333  17.402  0.0907 -0.3368  0.0446
 4514TIP3    H137737   6.877   1.427  17.397  1.7011  0.0124  0.4600
 4514TIP3    H237738   6.842   1.295  17.332 -2.5695  0.5350  1.4185
 4515TIP3   OH237739   3.832   0.361  18.854 -0.1328  0.0970 -0.2043
 4515TIP3    H137740   3.882   0.281  18.838 -0.1434  0.1009 -0.2556
 4515TIP3    H237741   3.890   0.432  18.826 -0.4470  0.0654 -0.9333
 4516TIP3   OH237742   1.190   0.141  19.268  0.4387 -0.4725 -0.2435
 4516TIP3    H137743   1.167   0.054  19.236  1.0425 -0.2186 -1.4199
 4516TIP3    H237744   1.121   0.198  19.235  0.8094 -0.2845 -0.7009
 4517TIP3   OH237745   6.616   4.411  19.389  0.4618  0.2599 -0.1482
 4517TIP3    H137746   6.527   4.445  19.404  0.3310 -0.1458  0.0041
 4517TIP3    H237747   6.602   4.332  19.336  0.6795 -0.1810  0.4394
 4518TIP3   OH237748   5.501   3.709  17.246 -0.6365 -0.6651 -0.4309
 4518TIP3    H137749   5.423   3.764  17.259 -0.8890 -1.1525  0.1833
 4518TIP3    H237750   5.526   3.725  17.155 -0.8103  0.3246 -0.3189
 4519TIP3   OH237751   4.742   3.069  18.923  0.2755  0.1272 -0.2563
 4519TIP3    H137752   4.778   3.078  18.835  2.9214 -0.7542  0.6259
 4519TIP3    H237753   4.663   3.123  18.923 -0.8185 -1.2402 -3.6424
 4520TIP3   OH237754   1.488   1.197  18.796  0.0855  0.1208 -0.7445
 4520TIP3    H137755   1.582   1.214  18.791 -0.0050  0.2234 -3.5089
 4520TIP3    H237756   1.451   1.245  18.722 -2.0754 -0.5056 -0.1456
 4521TIP3   OH237757   1.966   2.344  17.828 -0.0504 -0.3091  0.4576
 4521TIP3    H137758   2.056   2.322  17.804  0.2948  2.4953 -1.1919
 4521TIP3    H237759   1.937   2.270  17.881  2.6540 -2.0672 -0.3134
 4522TIP3   OH237760   7.154   5.333  18.767 -0.2729 -0.0050 -0.7293
 4522TIP3    H137761   7.247   5.357  18.762 -0.0196 -0.8662 -0.3955
 4522TIP3    H237762   7.148   5.277  18.844 -1.3417  1.1655  0.0599
 4523TIP3   OH237763   6.626   7.456  17.644 -0.4589  0.3166 -0.0388
 4523TIP3    H137764   6.574   7.507  17.582 -2.0698  1.0004  1.7577
 4523TIP3    H237765   6.620   7.505  17.726  0.8552 -1.0000  0.9001
 4524TIP3   OH237766   4.853   3.710  18.097  0.4899 -0.9510 -0.0751
 4524TIP3    H137767   4.913   3.645  18.132  1.7690  0.1519 -0.1390
 4524TIP3    H237768   4.910   3.777  18.058 -0.7671  0.2202  0.0162
 4525TIP3   OH237769   1.102   5.213  17.641  0.3056  0.1234 -0.4216
 4525TIP3    H137770   1.113   5.141  17.703 -0.2970 -1.0850 -1.6555
 4525TIP3    H237771   1.154   5.187  17.565 -0.5790  0.5802 -1.2028
 4526TIP3   OH237772   1.473   7.027  18.399 -0.3341 -0.0096 -0.1042
 4526TIP3    H137773   1.429   6.992  18.322 -0.2515 -0.1206 -0.0999
 4526TIP3    H237774   1.427   7.109  18.418 -0.2551  0.0939 -0.3611
 4527TIP3   OH237775   5.894   0.074  16.918 -0.1284  0.3282 -0.8431
 4527TIP3    H137776   5.883   0.152  16.973 -0.0907  0.1963 -0.6492
 4527TIP3    H237777   5.867   0.001  16.973 -1.2738  0.3066 -1.4072
 4528TIP3   OH237778   0.306   6.607  18.583  0.2060 -0.4954  0.2403
 4528TIP3    H137779   0.212   6.623  18.578  0.1513 -0.6049  0.8736
 4528TIP3    H237780   0.316   6.538  18.648  0.7258 -0.4809  0.1848
 4529TIP3   OH237781   2.723   4.394  17.692 -0.2144  0.5317  0.1623
 4529TIP3    H137782   2.761   4.475  17.726 -0.4374 -0.1752  2.2817
 4529TIP3    H237783   2.633   4.395  17.724 -1.8341  1.6816 -3.9051
 4530TIP3   OH237784   0.250   3.217  18.097 -0.1115 -0.1527 -0.1549
 4530TIP3    H137785   0.300   3.140  18.072 -1.2953 -0.5635 -1.3686
 4530TIP3    H237786   0.255   3.219  18.193  0.6776 -1.2163 -0.1550
 4531TIP3   OH237787   0.489   6.055  17.104 -0.4520 -0.8555  0.3597
 4531TIP3    H137788   0.413   6.107  17.131 -0.6128  0.1980 -1.8413
 4531TIP3    H237789   0.457   5.965  17.103 -1.7428 -0.4239 -0.5886
 4532TIP3   OH237790   2.105   1.577  18.034 -0.0884 -0.1463 -0.1865
 4532TIP3    H137791   2.164   1.522  17.983 -0.2054 -0.2701 -0.1887
 4532TIP3    H237792   2.096   1.656  17.981  1.2134  0.4865  0.4930
 4533TIP3   OH237793   2.088   0.009  17.630  0.0456  1.0997 -0.4176
 4533TIP3    H137794   2.147   0.078  17.600  0.4709  1.3919  0.9854
 4533TIP3    H237795   2.012   0.055  17.665 -0.2364  0.7939 -0.6164
 4534TIP3   OH237796   6.652   4.078  19.693  0.0638  0.5104  0.0396
 4534TIP3    H137797   6.592   4.141  19.733 -0.5676 -0.4320  0.6376
 4534TIP3    H237798   6.631   3.995  19.736 -1.0401 -0.6995 -2.6261
 4535TIP3   OH237799   0.353   4.815  17.823  0.3145  0.3479  0.1438
 4535TIP3    H137800   0.293   4.815  17.898  0.7128 -0.1481  0.4638
 4535TIP3    H237801   0.388   4.726  17.820  4.1060  1.5318  2.4164
 4536TIP3   OH237802   3.715   0.599  19.127 -0.3428 -0.0403 -0.8588
 4536TIP3    H137803   3.794   0.637  19.088  0.0391  1.9106  1.5283
 4536TIP3    H237804   3.679   0.670  19.180 -1.5778 -2.0606  1.1569
 4537TIP3   OH237805   1.999   6.432  17.685  0.1037 -0.0613 -0.0068
 4537TIP3    H137806   2.036   6.463  17.768  2.4954  1.8412 -1.6584
 4537TIP3    H237807   2.027   6.341  17.679  0.5598  0.0033  0.9159
 4538TIP3   OH237808   4.835   3.202  17.983  0.6885  0.3217 -0.3949
 4538TIP3    H137809   4.906   3.178  17.924  1.0000  1.2259 -0.3929
 4538TIP3    H237810   4.758   3.158  17.946  0.9783  0.4559 -1.1764
 4539TIP3   OH237811   7.515   1.708  19.316 -0.0861  0.0430 -0.1714
 4539TIP3    H137812   7.542   1.698  19.224  1.3692  1.8089  0.0111
 4539TIP3    H237813   7.548   1.629  19.359 -0.0533 -0.4124 -1.0102
 4540TIP3   OH237814   4.023   5.768  18.794  0.2478 -0.6299 -0.3543
 4540TIP3    H137815   4.102   5.713  18.793  0.8523  0.2048  0.5233
 4540TIP3    H237816   4.043   5.839  18.733  0.6185  0.1586  0.6564
 4541TIP3   OH237817   2.864   6.056  19.320  0.1261  0.2548  0.4857
 4541TIP3    H137818   2.883   6.142  19.358  0.7424  0.0317  0.6992
 4541TIP3    H237819   2.816   6.011  19.389  0.9353 -0.0232  0.8847
 4542TIP3   OH237820   0.370   4.587  17.540  0.4052  0.2772  0.4776
 4542TIP3    H137821   0.457   4.563  17.508  0.2063  0.1994 -0.0151
 4542TIP3    H237822   0.381   4.596  17.635  1.0421  0.6597  0.3751
 4543TIP3   OH237823   6.099   4.941  18.108 -0.2957 -0.0188  0.5801
 4543TIP3    H137824   6.120   4.850  18.126  1.0272  0.3431  0.9519
 4543TIP3    H237825   6.007   4.949  18.133 -0.2480 -1.0851  1.1623
 4544TIP3   OH237826   1.238   3.454  18.960 -0.0852 -0.0176  0.2229
 4544TIP3    H137827   1.321   3.499  18.976  0.4579 -0.4395 -1.2411
 4544TIP3    H237828   1.226   3.397  19.036  0.5176  0.6755  0.8560
 4545TIP3   OH237829   1.103   0.986  18.142 -0.2754 -0.1242  0.1322
 4545TIP3    H137830   1.079   0.931  18.217  0.5484 -0.0661  0.4523
 4545TIP3    H237831   1.051   0.952  18.069 -3.1364  1.4753  1.2473
 4546TIP3   OH237832   5.879   2.551  17.300 -0.2996  0.4008 -0.0064
 4546TIP3    H137833   5.812   2.516  17.358 -0.1332  1.7978  1.0914
 4546TIP3    H237834   5.888   2.485  17.232 -0.9331 -1.0375  1.2234
 4547TIP3   OH237835   6.206   1.135  18.047  0.8017  0.4301  0.1208
 4547TIP3    H137836   6.264   1.204  18.014  0.0679  0.3446 -1.4770
 4547TIP3    H237837   6.128   1.182  18.077  0.4121  0.3300 -0.7155
 4548TIP3   OH237838   0.226   2.989  17.321  0.3187  1.0661 -0.4396
 4548TIP3    H137839   0.153   3.027  17.272 -1.0234  0.4625  1.0289
 4548TIP3    H237840   0.238   3.047  17.396  1.0597  0.9028 -0.4187
 4549TIP3   OH237841   6.458   2.906  18.129 -0.4575  0.1234 -0.6999
 4549TIP3    H137842   6.487   2.953  18.051  0.7479 -0.5665 -0.6940
 4549TIP3    H237843   6.419   2.825  18.096 -1.5071  0.5831 -0.6506
 4550TIP3   OH237844   3.184   3.193  18.695 -0.2570 -0.2831 -0.5999
 4550TIP3    H137845   3.122   3.211  18.766  0.7072 -0.4673  0.3158
 4550TIP3    H237846   3.261   3.247  18.716 -0.1087 -0.0330 -1.7324
 4551TIP3   OH237847   3.749   1.078  18.513 -0.2374  0.0968 -0.3282
 4551TIP3    H137848   3.805   1.059  18.588 -0.0534 -0.1179 -0.5168
 4551TIP3    H237849   3.809   1.079  18.438 -0.2484  1.3218 -0.3447
 4552TIP3   OH237850   1.670   5.372  18.215  0.1814  0.3469  0.1073
 4552TIP3    H137851   1.600   5.388  18.278 -0.4636  0.1691 -0.5483
 4552TIP3    H237852   1.635   5.304  18.157  0.7050  0.6036 -0.5234
 4553TIP3   OH237853   3.755   1.682  17.785 -0.0423  0.3521 -0.4864
 4553TIP3    H137854   3.784   1.769  17.813  3.4145 -0.5967 -0.7103
 4553TIP3    H237855   3.716   1.643  17.863  2.5142  0.5231  0.9812
 4554TIP3   OH237856   2.347   7.674  17.886  0.0067 -0.3529 -0.4335
 4554TIP3    H137857   2.348   7.714  17.799  1.6180  0.4658 -0.0896
 4554TIP3    H237858   2.381   7.586  17.872 -0.4644 -0.4848 -0.7467
 4555TIP3   OH237859   6.643   3.994  18.769  0.1803  0.0531 -0.0139
 4555TIP3    H137860   6.638   4.088  18.786  0.2637  0.0432  0.0652
 4555TIP3    H237861   6.570   3.977  18.709  0.5029  0.2663 -0.4772
 4556TIP3   OH237862   1.161   1.198  18.314 -0.2220 -0.6617 -0.5443
 4556TIP3    H137863   1.088   1.260  18.310  0.4819  0.1965 -0.3001
 4556TIP3    H237864   1.146   1.138  18.240  0.2911  1.1636 -2.1994
 4557TIP3   OH237865   2.616   5.655  17.875  0.3217  0.3077  0.4008
 4557TIP3    H137866   2.576   5.583  17.826 -1.9269  1.1879  0.8240
 4557TIP3    H237867   2.682   5.691  17.816 -1.2963  0.4267 -1.4419
 4558TIP3   OH237868   2.856   7.024  18.763 -0.2054  0.5333 -0.7173
 4558TIP3    H137869   2.876   6.962  18.833 -1.9656  1.5895  0.8051
 4558TIP3    H237870   2.934   7.080  18.759 -0.1778  0.6334  0.6207
 4559TIP3   OH237871   5.686   0.991  18.692 -0.1544 -0.1402 -0.1075
 4559TIP3    H137872   5.644   0.921  18.742  0.6363 -0.1367  0.5745
 4559TIP3    H237873   5.764   0.951  18.654 -1.3591 -0.4796 -2.3930
 4560TIP3   OH237874   6.046   2.972  17.800 -0.1473  0.0640 -0.1730
 4560TIP3    H137875   6.118   2.911  17.813 -1.6982 -1.8468 -0.1186
 4560TIP3    H237876   6.033   3.013  17.886  0.8375  0.4291 -0.1853
 4561TIP3   OH237877   5.654   3.697  18.718  0.1676  0.2157 -0.5078
 4561TIP3    H137878   5.572   3.700  18.669 -0.0577  0.3038 -0.1337
 4561TIP3    H237879   5.719   3.668  18.655  0.1236  1.5240 -1.1991
 4562TIP3   OH237880   5.638   6.354  16.586 -0.0990 -0.2360 -0.0881
 4562TIP3    H137881   5.720   6.380  16.544  0.7128 -3.8504 -1.0472
 4562TIP3    H237882   5.586   6.315  16.516 -0.6460 -2.2303  1.3395
 4563TIP3   OH237883   7.047   3.238  19.258 -0.6583  0.4473 -0.0944
 4563TIP3    H137884   7.093   3.167  19.213 -1.7705 -0.1180 -0.3811
 4563TIP3    H237885   6.995   3.194  19.325 -0.4420  1.1177  0.5304
 4564TIP3   OH237886   4.477   3.535  19.362 -0.2514  0.3106 -0.1918
 4564TIP3    H137887   4.550   3.474  19.348 -1.9464 -1.8572 -0.1392
 4564TIP3    H237888   4.445   3.514  19.449 -0.5560  1.6941  0.0464
 4565TIP3   OH237889   4.407   1.295  18.990 -0.2394 -0.1688 -0.2783
 4565TIP3    H137890   4.339   1.359  19.010  1.2438  1.3867  0.0977
 4565TIP3    H237891   4.425   1.251  19.073  1.2133  1.5135  0.3570
 4566TIP3   OH237892   5.787   4.434  18.834  0.5462 -0.0694  0.0845
 4566TIP3    H137893   5.799   4.492  18.759  0.1948 -0.7561 -0.5164
 4566TIP3    H237894   5.876   4.407  18.858  0.6738  0.3145  0.0516
 4567TIP3   OH237895   4.673   0.335  16.968  0.1355  0.1926 -0.2564
 4567TIP3    H137896   4.633   0.376  16.892 -0.0537  2.5374  1.0170
 4567TIP3    H237897   4.753   0.385  16.983 -0.1181  0.1564  1.3896
 4568TIP3   OH237898   4.094   0.495  18.043 -0.4791  0.2324 -0.3223
 4568TIP3    H137899   4.017   0.479  17.989 -0.1826 -0.1349 -0.6431
 4568TIP3    H237900   4.070   0.569  18.098 -0.5216  1.0993 -1.4761
 4569TIP3   OH237901   1.838   7.057  17.372 -0.6369  0.1059  0.1335
 4569TIP3    H137902   1.931   7.076  17.388 -0.6155 -0.0202  0.1614
 4569TIP3    H237903   1.837   6.964  17.347 -0.7429  0.1359  0.0262
 4570TIP3   OH237904   4.778   0.924  17.748  0.4690  0.4513  0.3757
 4570TIP3    H137905   4.713   0.859  17.720  1.0506 -0.1524  0.3910
 4570TIP3    H237906   4.820   0.951  17.666  2.1876 -1.3325  0.6008
 4571TIP3   OH237907   5.414   6.705  17.710 -0.0224 -0.9509 -0.5742
 4571TIP3    H137908   5.336   6.761  17.712 -0.4168 -1.5294  1.2894
 4571TIP3    H237909   5.480   6.760  17.667 -1.0849  0.0215 -1.0393
 4572TIP3   OH237910   1.305   4.304  17.311 -0.3942  0.0615  0.3319
 4572TIP3    H137911   1.387   4.257  17.325  0.0150  0.5536 -0.3210
 4572TIP3    H237912   1.324   4.394  17.338 -1.0079 -0.0225  1.0697
 4573TIP3   OH237913   3.885   0.187  17.572 -0.1957  0.5339 -0.5341
 4573TIP3    H137914   3.957   0.127  17.551 -1.9498 -1.4163 -1.2932
 4573TIP3    H237915   3.855   0.160  17.659 -0.1443  1.2215 -0.2960
 4574TIP3   OH237916   2.514   5.479  18.080  0.2327 -0.2692 -0.0895
 4574TIP3    H137917   2.579   5.519  18.023 -0.9961  2.4012  0.2601
 4574TIP3    H237918   2.558   5.470  18.165  0.4793  0.4944 -0.1348
 4575TIP3   OH237919   5.812   6.728  18.392 -0.1265  0.4868  0.6281
 4575TIP3    H137920   5.795   6.745  18.300  0.9461 -0.6544  0.1911
 4575TIP3    H237921   5.782   6.638  18.406  0.8808  0.2057  1.0590
 4576TIP3   OH237922   7.463   0.654  17.299 -0.1530 -0.7273 -0.2404
 4576TIP3    H137923   7.511   0.723  17.254 -0.8727  0.0943  0.2122
 4576TIP3    H237924   7.406   0.617  17.232  0.1518 -0.8023 -0.4587
 4577TIP3   OH237925   2.827   6.675  17.521 -0.1255 -0.0242 -0.3535
 4577TIP3    H137926   2.803   6.758  17.480 -0.2055 -0.0761 -0.4126
 4577TIP3    H237927   2.800   6.609  17.458  0.6986 -0.0660 -0.6790
 4578TIP3   OH237928   0.241   5.832  17.830  0.4968  0.1367  0.1485
 4578TIP3    H137929   0.173   5.765  17.816  0.2871  0.2983  0.3760
 4578TIP3    H237930   0.193   5.909  17.861  0.6232  0.7097 -1.0236
 4579TIP3   OH237931   1.593   0.016  18.093  0.0676 -0.4256  0.0987
 4579TIP3    H137932   1.572   0.057  18.177  3.9477  0.0936  1.0076
 4579TIP3    H237933   1.577   0.085  18.029 -2.6134 -0.7200  0.3056
 4580TIP3   OH237934   3.632   1.487  18.907 -0.0176  0.4552 -0.1889
 4580TIP3    H137935   3.670   1.399  18.903  0.7011  0.6930  0.8968
 4580TIP3    H237936   3.578   1.494  18.828 -1.6877 -1.6689  0.6889
 4581TIP3   OH237937   0.591   4.251  17.019 -0.1995  0.0700  0.3497
 4581TIP3    H137938   0.500   4.265  17.043 -0.0684  0.7531  0.4732
 4581TIP3    H237939   0.625   4.339  17.003  0.0763 -0.2681 -1.0286
 4582TIP3   OH237940   6.698   1.698  18.878 -0.4070 -0.1256 -0.1438
 4582TIP3    H137941   6.635   1.767  18.860  0.1739  0.2751 -0.7127
 4582TIP3    H237942   6.723   1.711  18.969 -0.7809  0.0138 -0.0597
 4583TIP3   OH237943   6.103   6.324  18.847  0.1702 -0.5310  0.6986
 4583TIP3    H137944   6.179   6.348  18.795  0.3719 -0.0504  1.2130
 4583TIP3    H237945   6.045   6.279  18.785 -0.4076  1.6187 -0.4200
 4584TIP3   OH237946   6.230   2.061  17.500 -0.2977 -0.5730 -0.0178
 4584TIP3    H137947   6.214   2.102  17.585 -0.6440 -0.3587 -0.1858
 4584TIP3    H237948   6.280   2.126  17.451 -0.1902 -0.6543 -0.0170
 4585TIP3   OH237949   6.092   2.599  18.370 -0.0444  0.4771 -0.1964
 4585TIP3    H137950   6.024   2.550  18.416  2.1255 -0.7291  1.9623
 4585TIP3    H237951   6.137   2.648  18.438  2.2884 -0.0865 -1.2420
 4586TIP3   OH237952   6.506   4.834  18.969 -0.5481 -0.1875 -0.4787
 4586TIP3    H137953   6.511   4.851  18.875 -1.2451  0.5664 -0.3947
 4586TIP3    H237954   6.437   4.893  19.000  0.9139  0.9225  0.8103
 4587TIP3   OH237955   7.169   5.076  19.525  0.1676  0.3717  0.2779
 4587TIP3    H137956   7.234   5.033  19.580  1.2153 -1.8638 -2.4923
 4587TIP3    H237957   7.086   5.036  19.549  0.1596  1.3117  1.9606
 4588TIP3   OH237958   0.111   0.974  18.851  0.4096 -0.3663 -0.2915
 4588TIP3    H137959   0.156   0.947  18.771  0.8459 -0.8649  0.1125
 4588TIP3    H237960   0.176   0.964  18.920  0.2928  0.8649  0.0154
 4589TIP3   OH237961   2.307   3.208  17.153 -0.3671 -0.0342 -0.0276
 4589TIP3    H137962   2.251   3.191  17.077  0.3115 -0.7490 -0.3790
 4589TIP3    H237963   2.327   3.122  17.188 -0.8725  0.3073  1.1261
 4590TIP3   OH237964   1.961   1.055  18.001  0.2247  0.0573 -0.4443
 4590TIP3    H137965   2.015   1.126  18.037 -0.2128  0.1090  0.1247
 4590TIP3    H237966   1.872   1.078  18.028  0.2817 -1.8264  1.6755
 4591TIP3   OH237967   4.574   6.131  18.131 -0.8087  0.1485  0.5890
 4591TIP3    H137968   4.657   6.161  18.169 -1.0211 -0.6446  1.7246
 4591TIP3    H237969   4.593   6.120  18.038 -0.3709  2.4722  0.3405
 4592TIP3   OH237970   4.268   4.139  18.169 -0.1527  0.2145  0.4022
 4592TIP3    H137971   4.277   4.206  18.101 -0.0636 -0.9130 -0.7090
 4592TIP3    H237972   4.279   4.056  18.124  1.0133 -0.5473  1.9841
 4593TIP3   OH237973   2.616   2.615  17.899  0.5084 -0.5478  0.7524
 4593TIP3    H137974   2.530   2.641  17.930  0.4497  1.7328 -1.0303
 4593TIP3    H237975   2.678   2.668  17.949  0.5114  1.6659 -1.4110
 4594TIP3   OH237976   2.322   5.717  18.917  0.0443  0.3103 -0.4400
 4594TIP3    H137977   2.324   5.802  18.961  0.2684 -0.2134  0.5872
 4594TIP3    H237978   2.281   5.735  18.832 -0.7317  1.2785  0.1219
 4595TIP3   OH237979   1.058   0.978  17.067  0.1161  0.0124 -0.0004
 4595TIP3    H137980   1.019   0.945  16.986  0.0456  0.3155 -0.0915
 4595TIP3    H237981   1.055   0.904  17.127  0.0636 -0.1812 -0.2382
 4596TIP3   OH237982   0.725   6.033  18.332 -0.0435  0.7264 -0.5379
 4596TIP3    H137983   0.732   6.064  18.423  0.2734  0.2384 -0.3925
 4596TIP3    H237984   0.813   6.045  18.296  0.7106 -1.9715  0.1646
 4597TIP3   OH237985   7.165   0.063  18.830 -0.5627  0.0988 -0.3790
 4597TIP3    H137986   7.223   0.004  18.878 -0.3395  0.7154  0.1236
 4597TIP3    H237987   7.078   0.024  18.839 -0.6094  0.4575  0.9727
 4598TIP3   OH237988   0.985   1.814  18.923 -0.2740 -0.4298  0.0218
 4598TIP3    H137989   1.035   1.739  18.956  0.2805  0.8056  2.2020
 4598TIP3    H237990   0.898   1.802  18.959 -0.5531 -0.6807 -0.7220
 4599TIP3   OH237991   0.444   0.246  19.235  0.3019  0.1777 -0.1725
 4599TIP3    H137992   0.527   0.289  19.216  0.8749 -0.4168  0.8942
 4599TIP3    H237993   0.466   0.153  19.241 -0.4107  0.0262  0.2174
 4600TIP3   OH237994   0.788   6.155  19.234  0.7638  0.0225  0.5468
 4600TIP3    H137995   0.809   6.236  19.188 -0.8184  0.1455 -0.0189
 4600TIP3    H237996   0.712   6.176  19.287 -0.7727 -1.4615 -0.9126
 4601TIP3   OH237997   0.030   0.699  17.754 -0.2098 -0.2754  0.2184
 4601TIP3    H137998   0.094   0.644  17.799 -0.2980 -0.8130 -0.2972
 4601TIP3    H237999  -0.039   0.714  17.819  1.1697  1.6932  1.3611
 4602TIP3   OH238000   0.879   1.180  17.943  0.3004 -0.4642 -0.1009
 4602TIP3    H138001   0.804   1.123  17.962 -0.6795 -0.4932 -3.5046
 4602TIP3    H238002   0.952   1.120  17.929 -0.0777 -0.7358 -0.9614
 4603TIP3   OH238003   4.133   6.443  19.530 -0.6767  0.4526 -0.2420
 4603TIP3    H138004   4.047   6.402  19.542 -1.0222  1.0043 -0.8096
 4603TIP3    H238005   4.185   6.410  19.604  0.1971 -3.8278 -2.4600
 4604TIP3   OH238006   1.868   6.909  19.320 -0.0041 -0.1759 -0.2416
 4604TIP3    H138007   1.861   6.899  19.225 -1.2345  1.9108 -0.4445
 4604TIP3    H238008   1.781   6.939  19.347  0.3635 -0.5875  1.5491
 4605TIP3   OH238009   4.061   5.245  18.883  0.3235  0.0086  0.2134
 4605TIP3    H138010   4.147   5.225  18.847 -0.0332  1.8362 -1.9077
 4605TIP3    H238011   4.073   5.328  18.929 -0.5689  1.1576 -1.5201
 4606TIP3   OH238012   6.306   6.172  18.557 -0.2766  0.6097  0.3980
 4606TIP3    H138013   6.343   6.258  18.574 -0.7284  0.8117  0.3802
 4606TIP3    H238014   6.276   6.176  18.466 -1.3928  0.8548  0.7538
 4607TIP3   OH238015   0.874   3.194  17.163 -0.2692 -0.0311  0.5845
 4607TIP3    H138016   0.922   3.178  17.082 -0.2636  0.2032  0.5409
 4607TIP3    H238017   0.841   3.283  17.155 -0.1184  0.0599  0.9150
 4608TIP3   OH238018   2.890   0.525  19.584 -0.4670  0.4449 -0.1620
 4608TIP3    H138019   2.954   0.571  19.531  0.9722 -0.3894  0.7967
 4608TIP3    H238020   2.809   0.574  19.571 -0.0703  0.5800 -2.6705
 4609TIP3   OH238021   6.472   0.730  16.663 -0.4103  0.3505  0.2168
 4609TIP3    H138022   6.544   0.777  16.704  0.3180 -1.1021  0.6609
 4609TIP3    H238023   6.412   0.710  16.735 -0.5062  0.2425  0.1087
 4610TIP3   OH238024   6.536   2.225  18.085 -0.2782 -0.6091  0.2063
 4610TIP3    H138025   6.618   2.224  18.135 -0.0054 -1.1073 -0.2379
 4610TIP3    H238026   6.490   2.146  18.114 -0.3764 -0.5933  0.0922
 4611TIP3   OH238027   2.450   7.592  18.886  0.1094 -0.2466  0.0352
 4611TIP3    H138028   2.467   7.686  18.898 -1.0933  0.1521 -1.1033
 4611TIP3    H238029   2.520   7.562  18.828  1.5724 -0.5108  1.8411
 4612TIP3   OH238030   6.434   3.689  19.290 -0.1758 -0.0846 -0.2741
 4612TIP3    H138031   6.528   3.673  19.294  0.2357  2.3217  2.0323
 4612TIP3    H238032   6.422   3.741  19.210  0.3553 -0.7206 -0.7813
 4613TIP3   OH238033   6.439   4.143  18.937  0.0238  0.0343 -0.0303
 4613TIP3    H138034   6.378   4.144  18.863 -0.0723  1.7488  0.0298
 4613TIP3    H238035   6.523   4.166  18.899  0.0369  0.6095  0.3365
 4614TIP3   OH238036   0.295   1.490  19.044 -0.3712  0.4033 -0.1269
 4614TIP3    H138037   0.368   1.440  19.079 -0.4041 -0.0884 -0.7465
 4614TIP3    H238038   0.222   1.428  19.040  0.1732 -0.1716 -2.9900
 4615TIP3   OH238039   4.044   6.607  17.258 -0.2534 -0.2789 -0.1778
 4615TIP3    H138040   3.983   6.534  17.254 -0.6210 -0.0174  0.5052
 4615TIP3    H238041   4.093   6.592  17.339  1.3763 -1.0959 -1.2598
 4616TIP3   OH238042   7.358   3.678  17.568  0.2941 -0.3907  0.1969
 4616TIP3    H138043   7.382   3.610  17.505 -0.4137 -0.7160  0.2748
 4616TIP3    H238044   7.383   3.760  17.524  0.1728 -0.6362 -0.3390
 4617TIP3   OH238045   0.389   2.581  17.869  0.4371  0.2532 -0.4198
 4617TIP3    H138046   0.462   2.588  17.930  2.0007  0.0257 -2.1771
 4617TIP3    H238047   0.382   2.488  17.850 -1.5514  0.0268  1.0808
 4618TIP3   OH238048   1.413   5.378  18.349 -0.0008  0.2164 -0.3256
 4618TIP3    H138049   1.402   5.340  18.437  0.7911 -1.8299 -1.0526
 4618TIP3    H238050   1.340   5.440  18.341  0.5804  1.3746  2.1969
 4619TIP3   OH238051   2.230   0.204  18.393  0.7614  1.1963  0.6062
 4619TIP3    H138052   2.173   0.205  18.316 -0.8211  2.1417  1.7209
 4619TIP3    H238053   2.280   0.123  18.385 -0.5627  0.4414 -0.5646
 4620TIP3   OH238054   7.014   4.751  18.834 -0.0008 -0.1338 -0.5450
 4620TIP3    H138055   7.083   4.685  18.845 -0.8636 -1.0597 -0.5298
 4620TIP3    H238056   6.961   4.743  18.913 -0.0662  0.6568 -0.5001
 4621TIP3   OH238057   3.520   6.041  19.032  0.1796 -0.2780 -0.2895
 4621TIP3    H138058   3.466   6.029  19.110 -0.0548 -1.0884 -0.5620
 4621TIP3    H238059   3.530   6.136  19.024 -0.9482 -0.1206 -0.0523
 4622TIP3   OH238060   2.507   4.400  16.953  0.0713  0.8026  0.0882
 4622TIP3    H138061   2.557   4.437  16.880 -0.1968 -0.4978 -0.8030
 4622TIP3    H238062   2.489   4.310  16.925 -1.8877  0.9331  0.8176
 4623TIP3   OH238063   6.278   4.448  18.121 -0.0899 -0.3144 -0.6446
 4623TIP3    H138064   6.246   4.383  18.184 -0.3865  0.5022  0.0622
 4623TIP3    H238065   6.281   4.401  18.038 -0.2968 -1.2337 -0.1463
 4624TIP3   OH238066   2.491   5.314  19.130 -0.1389  0.3849  0.0876
 4624TIP3    H138067   2.521   5.223  19.121  0.4299  0.6514 -0.7272
 4624TIP3    H238068   2.462   5.320  19.222 -2.6429 -1.3458 -0.4764
 4625TIP3   OH238069   3.666   3.109  18.645  0.4404  0.2662 -0.0560
 4625TIP3    H138070   3.704   3.022  18.653  0.0848  0.0826 -0.3337
 4625TIP3    H238071   3.584   3.095  18.599  0.2026  0.7014  0.2243
 4626TIP3   OH238072   0.431   1.639  18.827 -0.4999  0.9466  0.0622
 4626TIP3    H138073   0.412   1.627  18.920  0.0435  0.1440  0.0783
 4626TIP3    H238074   0.478   1.722  18.823 -0.0779  0.7389  0.5758
 4627TIP3   OH238075   5.420   3.329  16.820 -0.2760  0.6686  0.3606
 4627TIP3    H138076   5.338   3.280  16.825 -0.8577  1.4848 -0.6936
 4627TIP3    H238077   5.403   3.409  16.870  0.2986  0.3071  1.1549
 4628TIP3   OH238078   2.560   0.678  17.938 -0.0260 -0.2616 -0.2747
 4628TIP3    H138079   2.618   0.603  17.947 -0.0898 -0.2738  0.0480
 4628TIP3    H238080   2.571   0.707  17.847  0.7093 -0.0783 -0.1286
 4629TIP3   OH238081   4.265   4.425  18.703 -0.0149 -0.1248  0.7374
 4629TIP3    H138082   4.280   4.455  18.613  0.6181  0.2670  0.9666
 4629TIP3    H238083   4.239   4.333  18.694 -1.6537  0.3607  0.0434
 4630TIP3   OH238084   1.569   4.527  19.276  0.5027  0.4768 -0.1456
 4630TIP3    H138085   1.591   4.594  19.212  0.4234  0.3424 -0.3130
 4630TIP3    H238086   1.494   4.562  19.324 -0.7072 -0.2515 -1.4291
 4631TIP3   OH238087   5.715   1.586  17.434  0.1513  0.4249  0.7131
 4631TIP3    H138088   5.661   1.510  17.454 -1.2702  1.5049  1.1782
 4631TIP3    H238089   5.751   1.612  17.519 -0.7864  1.2806  0.8669
 4632TIP3   OH238090   7.113   0.344  18.759  0.4318  0.2597 -0.0035
 4632TIP3    H138091   7.025   0.357  18.793  1.1257  0.5775  1.7653
 4632TIP3    H238092   7.135   0.253  18.783  0.9055  0.4606  0.3401
 4633TIP3   OH238093   6.348   2.463  17.339  1.0957 -0.1389 -0.1362
 4633TIP3    H138094   6.286   2.523  17.380  1.1007  1.6318 -2.4471
 4633TIP3    H238095   6.416   2.521  17.302  1.4572 -1.5852 -1.9001
 4634TIP3   OH238096   2.680   7.488  17.614  0.2577 -0.2165 -0.4374
 4634TIP3    H138097   2.605   7.484  17.672 -0.2879 -0.6244 -1.1522
 4634TIP3    H238098   2.713   7.577  17.623  0.2468 -0.3018  0.5600
 4635TIP3   OH238099   0.066   0.305  16.864  0.3562 -0.4462 -0.4806
 4635TIP3    H138100   0.156   0.312  16.898  0.6938 -0.1743 -1.4094
 4635TIP3    H238101   0.024   0.386  16.891  0.7793  0.0042 -1.1299
 4636TIP3   OH238102   4.954   3.465  19.379  0.2667 -1.2082  0.1115
 4636TIP3    H138103   4.985   3.555  19.391  0.6104 -1.4056  0.7331
 4636TIP3    H238104   4.943   3.456  19.285  1.7182 -1.0048 -0.0931
 4637TIP3   OH238105   5.674   1.232  18.572 -0.2020  0.5355 -0.6245
 4637TIP3    H138106   5.709   1.145  18.593 -0.0741  0.6494 -0.3663
 4637TIP3    H238107   5.579   1.222  18.579 -0.3031 -0.0425 -2.3208
 4638TIP3   OH238108   4.223   3.419  18.956  0.5077  0.1137  0.5564
 4638TIP3    H138109   4.280   3.414  18.880 -2.0564  0.6783 -1.5128
 4638TIP3    H238110   4.169   3.340  18.951 -1.3904  1.3711  0.3004
 4639TIP3   OH238111   6.277   3.457  18.469 -0.2533 -0.3839 -0.3359
 4639TIP3    H138112   6.244   3.533  18.421  0.2949 -0.9183 -1.6203
 4639TIP3    H238113   6.253   3.473  18.560 -1.3649  0.6561 -0.7887
 4640TIP3   OH238114   0.947   4.405  18.293 -0.1647  0.0296 -0.6401
 4640TIP3    H138115   0.924   4.493  18.325  0.5781  0.3382 -0.9442
 4640TIP3    H238116   0.961   4.416  18.199 -2.5227 -0.9154 -1.1683
 4641TIP3   OH238117   5.387   1.804  18.724  0.1609  0.0135  0.3899
 4641TIP3    H138118   5.322   1.853  18.775 -0.7206 -0.8895  0.1701
 4641TIP3    H238119   5.357   1.713  18.729  0.4463 -0.1865 -1.1510
 4642TIP3   OH238120   7.602   7.460  17.071  0.2671  0.4630  0.2121
 4642TIP3    H138121   7.603   7.487  16.979  0.0683 -0.1123  0.0396
 4642TIP3    H238122   7.688   7.420  17.084 -0.8265 -2.4132 -0.6308
 4643TIP3   OH238123   2.648   4.639  17.529 -0.0594 -0.1871 -0.4532
 4643TIP3    H138124   2.702   4.661  17.605 -1.8682 -0.5738  1.0404
 4643TIP3    H238125   2.659   4.713  17.469  2.1534 -0.3248 -0.2732
 4644TIP3   OH238126   1.928   6.223  18.594  0.3069 -0.8263  0.1493
 4644TIP3    H138127   2.003   6.282  18.598 -0.6309  0.5132 -1.0373
 4644TIP3    H238128   1.909   6.202  18.686  0.2779  1.2545  0.6633
 4645TIP3   OH238129   7.249   0.249  17.606 -0.3510  0.0972  0.1407
 4645TIP3    H138130   7.331   0.248  17.656 -0.2902 -2.5836  0.0949
 4645TIP3    H238131   7.268   0.197  17.528 -1.5614  1.0924 -0.8674
 4646TIP3   OH238132   6.611   3.031  18.959 -0.0059  0.5719 -0.1110
 4646TIP3    H138133   6.556   3.004  19.033  0.1432 -0.5550 -0.4062
 4646TIP3    H238134   6.673   2.960  18.946  0.6496  1.2195 -0.6682
 4647TIP3   OH238135   4.682   1.834  17.127 -0.2521  0.3620  0.3217
 4647TIP3    H138136   4.758   1.789  17.090  0.6103  1.8303  0.2230
 4647TIP3    H238137   4.621   1.842  17.054 -0.5284 -0.8575  0.4077
 4648TIP3   OH238138   4.293   3.552  17.903  0.3488  0.3763  0.1363
 4648TIP3    H138139   4.213   3.524  17.947  0.0317 -1.4742 -1.4439
 4648TIP3    H238140   4.267   3.629  17.853 -0.8058 -0.8185 -1.2073
 4649TIP3   OH238141   1.632   4.845  16.888 -0.0921  0.0438  0.3106
 4649TIP3    H138142   1.652   4.787  16.815 -2.0413 -0.1924 -0.1072
 4649TIP3    H238143   1.715   4.856  16.934  0.7959 -1.2530 -0.8984
 4650TIP3   OH238144   0.115   6.432  18.694 -0.1471  0.2365  0.0646
 4650TIP3    H138145   0.026   6.415  18.727  0.1897 -0.0673  0.8205
 4650TIP3    H238146   0.126   6.369  18.622 -1.1771  1.4334 -1.1978
 4651TIP3   OH238147   7.482   4.965  18.108  0.4630  0.5538  0.0299
 4651TIP3    H138148   7.566   5.002  18.135  0.2599  0.5459  0.6861
 4651TIP3    H238149   7.496   4.935  18.018  1.4918 -0.4648  0.5123
 4652TIP3   OH238150   0.360   5.581  19.005 -0.1886  0.1924 -0.7987
 4652TIP3    H138151   0.315   5.666  18.997  0.4451  0.5629 -0.5084
 4652TIP3    H238152   0.452   5.602  18.989  0.3519  0.0130  1.7356
 4653TIP3   OH238153   1.003   5.082  17.081 -0.8409  0.0248  0.2412
 4653TIP3    H138154   0.926   5.135  17.101 -1.9560 -1.5371  0.2055
 4653TIP3    H238155   0.969   5.001  17.046  0.7829 -1.1445  1.2036
 4654TIP3   OH238156   5.191   1.013  18.546 -0.0149 -0.6970  0.0232
 4654TIP3    H138157   5.136   0.977  18.616 -0.8807  1.2334  0.3873
 4654TIP3    H238158   5.242   0.938  18.515 -1.7142 -2.2208  0.7403
 4655TIP3   OH238159   3.925   1.992  18.761  0.1363  0.0598 -0.6328
 4655TIP3    H138160   3.993   2.048  18.796  0.8639 -1.1006 -0.1413
 4655TIP3    H238161   3.852   2.051  18.743  1.2236  1.3084 -1.0800
 4656TIP3   OH238162   3.323   6.417  18.442  0.0739 -0.5949  0.0005
 4656TIP3    H138163   3.274   6.429  18.360  2.4324  0.4930 -1.3594
 4656TIP3    H238164   3.373   6.337  18.427  0.7995 -0.1865  0.2125
 4657TIP3   OH238165   6.860   4.721  19.040 -0.0224 -0.6041  0.2593
 4657TIP3    H138166   6.799   4.792  19.060  2.0937  1.2280  0.5704
 4657TIP3    H238167   6.849   4.659  19.113 -0.0368  0.7419  1.4467
 4658TIP3   OH238168   5.446   0.302  18.717 -0.1969 -0.1597  0.1431
 4658TIP3    H138169   5.490   0.231  18.671 -2.2968 -0.8975 -0.8645
 4658TIP3    H238170   5.410   0.357  18.648 -1.6413 -0.1359  0.8828
 4659TIP3   OH238171   1.831   3.883  17.030 -0.5333  0.1982 -0.1972
 4659TIP3    H138172   1.805   3.847  16.945  1.6777  0.3550 -0.9976
 4659TIP3    H238173   1.821   3.977  17.021  0.7883  0.3043 -0.7107
 4660TIP3   OH238174   6.099   2.068  18.027 -0.3303  0.1266 -0.7084
 4660TIP3    H138175   6.082   2.139  18.090 -2.0225 -0.3837 -0.5428
 4660TIP3    H238176   6.142   2.112  17.953  0.4171  0.9755  0.1893
 4661TIP3   OH238177   3.855   6.068  16.938 -0.2264  0.0270 -0.2566
 4661TIP3    H138178   3.946   6.066  16.907  0.0001 -0.7536  0.4367
 4661TIP3    H238179   3.810   6.004  16.882 -0.0895 -0.4481  0.1678
 4662TIP3   OH238180   2.354   5.669  16.952  0.1626  0.7877  0.0016
 4662TIP3    H138181   2.405   5.748  16.972 -0.4913  1.1801  0.1537
 4662TIP3    H238182   2.263   5.698  16.956 -0.0851  0.0212  0.0656
 4663TIP3   OH238183   1.566   2.444  16.694  0.3736  0.8921  0.2218
 4663TIP3    H138184   1.566   2.501  16.772  1.8991  0.8839  0.2718
 4663TIP3    H238185   1.626   2.373  16.717  0.8858  0.9148 -0.9629
 4664TIP3   OH238186   3.927   3.889  17.181  0.4585 -0.3124 -0.2587
 4664TIP3    H138187   3.882   3.970  17.157  0.0751  0.2252  1.9998
 4664TIP3    H238188   3.875   3.853  17.252  1.6028 -1.6233 -0.0399
 4665TIP3   OH238189   0.013   1.003  17.357 -0.1479  0.7229 -0.2314
 4665TIP3    H138190  -0.026   1.079  17.314 -0.7225  0.3920 -0.3105
 4665TIP3    H238191   0.066   0.961  17.289 -1.4762 -0.0964 -0.7925
 4666TIP3   OH238192   6.288   0.973  19.009  0.0838  0.3257 -1.0052
 4666TIP3    H138193   6.367   0.941  18.967  0.0524  0.5185 -1.2127
 4666TIP3    H238194   6.220   0.910  18.984  0.2343 -0.0301 -0.5505
 4667TIP3   OH238195   5.145   6.657  18.125 -0.0569 -0.6244 -0.3961
 4667TIP3    H138196   5.197   6.714  18.182 -2.1071  0.2149  0.7184
 4667TIP3    H238197   5.167   6.568  18.154 -0.6278 -0.2308  1.3825
 4668TIP3   OH238198   1.734   0.969  18.672 -0.6983  0.4954 -0.1602
 4668TIP3    H138199   1.759   1.014  18.591 -0.9038 -1.0894 -1.1519
 4668TIP3    H238200   1.642   0.946  18.659 -0.6929  0.0966  0.4709
 4669TIP3   OH238201   4.177   4.464  17.010  0.0759 -0.0899  0.1895
 4669TIP3    H138202   4.182   4.428  16.921 -0.3165 -0.8177  0.4511
 4669TIP3    H238203   4.121   4.402  17.057 -1.9600  1.7075  0.2638
 4670TIP3   OH238204   1.273   7.128  17.888  0.4682  0.5560 -0.9033
 4670TIP3    H138205   1.276   7.182  17.967 -0.4387 -0.8559  0.1436
 4670TIP3    H238206   1.352   7.074  17.891 -0.7786 -1.3323  0.4725
 4671TIP3   OH238207   6.149   3.949  17.938  0.1274  0.0161 -0.2274
 4671TIP3    H138208   6.223   3.904  17.977  1.7908  2.2869 -0.5379
 4671TIP3    H238209   6.128   4.019  18.000 -0.3525  0.7135 -1.1438
 4672TIP3   OH238210   4.419   2.521  18.905 -0.3131  0.0763 -0.0431
 4672TIP3    H138211   4.426   2.525  19.000 -0.1393  0.2764 -0.0629
 4672TIP3    H238212   4.446   2.608  18.875 -0.5029  0.0597 -0.2661
 4673TIP3   OH238213   2.781   7.417  19.476 -0.4188 -0.2938  0.2020
 4673TIP3    H138214   2.819   7.504  19.492 -1.3835  0.1888  0.0017
 4673TIP3    H238215   2.820   7.387  19.395 -0.4371  0.1777  0.0173
 4674TIP3   OH238216   6.223   3.257  19.656  0.3803 -0.3498  0.1141
 4674TIP3    H138217   6.208   3.351  19.661  0.6463 -0.3781  2.2956
 4674TIP3    H238218   6.317   3.246  19.673  0.7297 -0.9386 -1.8787
 4675TIP3   OH238219   0.766   2.632  18.585 -0.4394 -0.7333 -0.1924
 4675TIP3    H138220   0.682   2.595  18.557 -0.3997 -0.6160 -0.4697
 4675TIP3    H238221   0.824   2.556  18.590 -0.4603 -0.7630 -0.3802
 4676TIP3   OH238222   4.065   7.347  18.229 -0.0093  0.1619  0.6955
 4676TIP3    H138223   4.120   7.281  18.271 -0.0432 -0.0665  0.3885
 4676TIP3    H238224   3.978   7.308  18.227  0.0015  0.1525  0.3768
 4677TIP3   OH238225   3.895   0.731  19.338  0.3991 -0.0714 -0.3982
 4677TIP3    H138226   3.933   0.644  19.352  1.3921  0.3108 -0.6807
 4677TIP3    H238227   3.801   0.715  19.332  0.2676 -0.8176  2.1816
 4678TIP3   OH238228   6.476   0.468  17.640  0.1406 -0.3431  0.7771
 4678TIP3    H138229   6.499   0.411  17.713  2.6329 -1.5855 -0.8214
 4678TIP3    H238230   6.525   0.548  17.656 -0.2971 -0.1294  1.0687
 4679TIP3   OH238231   3.539   5.402  17.701 -0.2136  0.4026  0.0567
 4679TIP3    H138232   3.551   5.307  17.706 -1.4136  0.3124  1.9245
 4679TIP3    H238233   3.569   5.435  17.786  2.4691  2.0449 -1.3515
 4680TIP3   OH238234   0.422   0.260  17.837  0.0204 -0.6208  0.0294
 4680TIP3    H138235   0.506   0.217  17.820 -0.2206 -1.0560 -0.0761
 4680TIP3    H238236   0.413   0.258  17.932  0.6203  0.3773  0.1229
 4681TIP3   OH238237   6.934   1.585  18.745 -0.7436 -0.1459  0.2271
 4681TIP3    H138238   7.015   1.577  18.796 -0.5227 -2.1488 -0.3536
 4681TIP3    H238239   6.867   1.601  18.811  0.0201  1.0459  0.7658
 4682TIP3   OH238240   3.833   1.363  17.824  0.6669 -0.6439 -0.0639
 4682TIP3    H138241   3.916   1.332  17.787  1.5142  0.6065  0.7112
 4682TIP3    H238242   3.856   1.442  17.872 -0.9999 -0.2411  0.1381
 4683TIP3   OH238243   0.226   7.596  18.282 -0.2417 -0.3893 -0.2580
 4683TIP3    H138244   0.279   7.553  18.214 -1.3913  0.0633 -1.4819
 4683TIP3    H238245   0.159   7.645  18.233 -0.0184  1.4175  1.1529
 4684TIP3   OH238246   4.692   7.417  17.549  0.3746  0.2770 -0.0463
 4684TIP3    H138247   4.663   7.326  17.544  0.0614  0.2778  1.3467
 4684TIP3    H238248   4.630   7.465  17.493  0.5092 -0.3376 -0.7435
 4685TIP3   OH238249   7.331   3.876  17.118 -0.0078 -0.8817 -0.7496
 4685TIP3    H138250   7.426   3.886  17.123  0.0004  0.4261 -2.6281
 4685TIP3    H238251   7.314   3.795  17.166  2.0090 -1.0073 -0.1194
 4686TIP3   OH238252   6.697   7.601  18.606  0.7989  0.0864  0.3593
 4686TIP3    H138253   6.721   7.524  18.658  0.0579 -0.2934  0.1566
 4686TIP3    H238254   6.623   7.640  18.653 -0.9682 -1.1902 -1.2069
 4687TIP3   OH238255   6.227   3.462  17.068 -0.0761  0.6254  0.2531
 4687TIP3    H138256   6.315   3.460  17.030 -0.5010  1.0987 -0.7819
 4687TIP3    H238257   6.169   3.472  16.993 -1.1194 -1.0538  0.7884
 4688TIP3   OH238258   6.209   1.336  19.325  0.2866 -0.4943  0.2829
 4688TIP3    H138259   6.224   1.242  19.337 -1.6807 -0.8577  0.1632
 4688TIP3    H238260   6.214   1.349  19.230  0.3789 -0.5056  0.2861
 4689TIP3   OH238261   3.957   3.577  17.699  0.0127  0.0333 -0.0694
 4689TIP3    H138262   4.021   3.637  17.735  0.2532  1.9693 -3.3152
 4689TIP3    H238263   3.891   3.633  17.659 -2.7987 -1.9120  1.5033
 4690TIP3   OH238264   3.665   0.841  18.748 -0.1387  0.5632 -0.0491
 4690TIP3    H138265   3.614   0.877  18.676  0.3641  0.9837 -0.2054
 4690TIP3    H238266   3.610   0.852  18.825 -0.6395  0.1993 -0.3571
 4691TIP3   OH238267   4.227   0.298  18.943  0.3716  0.2996  0.2126
 4691TIP3    H138268   4.245   0.237  19.014 -1.7201 -0.9836 -0.2701
 4691TIP3    H238269   4.152   0.349  18.974 -1.2451 -0.9721 -1.3803
 4692TIP3   OH238270   1.486   1.556  18.769  0.1946 -0.0152  0.1949
 4692TIP3    H138271   1.479   1.589  18.859 -0.4944 -0.8656  0.4731
 4692TIP3    H238272   1.402   1.512  18.753  0.9399 -1.3676 -0.2443
 4693TIP3   OH238273   1.425   0.911  17.703  0.2693 -0.2461  0.7591
 4693TIP3    H138274   1.391   0.997  17.724 -1.6709 -0.3318 -1.5777
 4693TIP3    H238275   1.371   0.850  17.754 -1.8303 -0.2590 -1.3208
 4694TIP3   OH238276   5.347   2.607  19.366  0.6807  0.1160 -0.7137
 4694TIP3    H138277   5.352   2.659  19.286  1.0404  0.0742 -0.7165
 4694TIP3    H238278   5.319   2.520  19.336 -2.6012  0.9293 -0.4533
 4695TIP3   OH238279   4.490   3.269  19.598  0.2386 -0.5304  0.3224
 4695TIP3    H138280   4.495   3.193  19.540 -1.0804  0.8227 -1.6987
 4695TIP3    H238281   4.567   3.321  19.576  1.2651 -1.2937  1.8647
 4696TIP3   OH238282   4.834   5.455  17.780 -0.2893 -0.1263  0.8355
 4696TIP3    H138283   4.917   5.479  17.821  0.2272  0.5681 -0.5480
 4696TIP3    H238284   4.815   5.367  17.812  1.4237 -0.6380  0.4990
 4697TIP3   OH238285   0.801   5.775  18.438 -0.2932  0.2986  0.3309
 4697TIP3    H138286   0.742   5.850  18.425 -0.5255  0.3319  1.4234
 4697TIP3    H238287   0.860   5.778  18.363 -1.7635  0.1683 -0.8907
 4698TIP3   OH238288   2.102   3.035  18.418  0.5364 -0.2243 -0.5128
 4698TIP3    H138289   2.036   3.083  18.467 -0.5978 -1.8646 -0.3479
 4698TIP3    H238290   2.181   3.040  18.473 -0.0390 -0.0117  0.3055
 4699TIP3   OH238291   2.423   5.000  19.362  0.2133 -0.6722 -0.0510
 4699TIP3    H138292   2.472   4.991  19.280  0.9806 -2.0239  0.5101
 4699TIP3    H238293   2.336   5.029  19.336  0.6821 -0.3064 -1.2651
 4700TIP3   OH238294   4.395   0.068  16.475  0.1220 -0.4248  0.0037
 4700TIP3    H138295   4.370  -0.023  16.456 -3.0400  0.3824 -0.2425
 4700TIP3    H238296   4.394   0.074  16.570  0.2570 -0.6194  0.0180
 4701TIP3   OH238297   3.937   2.395  19.284  0.1822 -0.5542 -0.0382
 4701TIP3    H138298   3.934   2.314  19.233  0.1650  0.7703 -2.2689
 4701TIP3    H238299   3.891   2.459  19.230  2.5441  1.6176  0.3220
 4702TIP3   OH238300   2.237   5.774  18.647  0.1625  0.3472  0.5167
 4702TIP3    H138301   2.190   5.841  18.596 -0.6357 -0.0671  0.6993
 4702TIP3    H238302   2.258   5.706  18.583 -0.2311  0.1459  0.5988
 4703TIP3   OH238303   5.206   5.892  16.907  0.0494  0.8224 -0.1988
 4703TIP3    H138304   5.129   5.899  16.850  0.2227  1.6828 -0.3483
 4703TIP3    H238305   5.240   5.804  16.892 -2.5706 -0.7621  2.0233
 4704TIP3   OH238306   3.616   0.327  17.923 -0.0371 -0.5181  0.7905
 4704TIP3    H138307   3.574   0.250  17.884  1.3077 -0.5709 -0.6575
 4704TIP3    H238308   3.609   0.395  17.855 -0.5819  0.4467  1.7775
 4705TIP3   OH238309   5.406   0.591  19.096  0.0095 -0.2002  0.1396
 4705TIP3    H138310   5.356   0.513  19.073  0.0254 -0.0695 -0.3402
 4705TIP3    H238311   5.496   0.569  19.072  0.3630 -0.8032  1.8816
 4706TIP3   OH238312   6.131   5.423  18.738 -0.2062  0.1436 -0.3290
 4706TIP3    H138313   6.048   5.424  18.692 -0.3297 -0.4300 -0.1243
 4706TIP3    H238314   6.115   5.473  18.818 -0.2297  0.4033 -0.4955
 4707TIP3   OH238315   6.496   3.659  19.682 -0.0282  0.5075  0.2059
 4707TIP3    H138316   6.498   3.567  19.655  0.7075  0.8700 -1.0418
 4707TIP3    H238317   6.439   3.702  19.618 -0.7265  0.8737  1.0315
 4708TIP3   OH238318   2.839   0.208  19.323  0.1551  0.3803  0.6522
 4708TIP3    H138319   2.800   0.125  19.296 -2.4535  1.6270  0.2144
 4708TIP3    H238320   2.874   0.192  19.410 -1.1803 -0.9416  0.9707
 4709TIP3   OH238321   3.525   2.606  19.424 -0.2811  0.2890 -0.2153
 4709TIP3    H138322   3.568   2.521  19.410 -0.7644 -0.4121  2.2037
 4709TIP3    H238323   3.591   2.660  19.466 -0.4062  0.6672 -0.4993
 4710TIP3   OH238324   1.389   3.920  18.194 -0.3096 -0.3099 -0.7967
 4710TIP3    H138325   1.374   3.980  18.267  0.9493  1.7968 -2.1844
 4710TIP3    H238326   1.425   3.841  18.234  1.0359  1.0604  0.8226
 4711TIP3   OH238327   6.660   5.781  17.792 -0.3003 -0.0150  0.3593
 4711TIP3    H138328   6.654   5.701  17.844 -1.0820 -0.2714 -0.1151
 4711TIP3    H238329   6.593   5.772  17.725  1.6694 -0.3958 -1.7048
 4712TIP3   OH238330   5.599   3.789  19.542  0.1582  0.2611  0.3510
 4712TIP3    H138331   5.519   3.829  19.576  0.6167  1.5210  0.0016
 4712TIP3    H238332   5.568   3.725  19.477 -0.5643  1.6556 -0.7480
 4713TIP3   OH238333   0.408   7.011  18.929 -0.5695  0.0151 -0.6476
 4713TIP3    H138334   0.393   7.064  18.851 -1.3992  0.1261 -0.4165
 4713TIP3    H238335   0.407   7.073  19.002  2.5816  0.2900 -0.7057
 4714TIP3   OH238336   1.535   6.594  17.612 -0.3538 -0.2667  0.3745
 4714TIP3    H138337   1.540   6.558  17.523  2.0240 -0.1581  0.4021
 4714TIP3    H238338   1.491   6.678  17.601  1.4498  0.5641 -1.0442
 4715TIP3   OH238339   7.197   6.212  19.395  0.2269  0.1093 -0.0997
 4715TIP3    H138340   7.230   6.123  19.404 -0.8947 -0.2018  1.2946
 4715TIP3    H238341   7.109   6.202  19.359  0.1512  0.6614 -0.0840
 4716TIP3   OH238342   3.200   5.937  18.218  0.1913 -0.6916  0.2257
 4716TIP3    H138343   3.117   5.890  18.218 -0.9165  1.1087 -0.6027
 4716TIP3    H238344   3.193   5.996  18.142  1.3546  0.9501  1.3325
 4717TIP3   OH238345   7.041   2.123  18.070 -0.0344  0.7577 -0.5570
 4717TIP3    H138346   7.126   2.098  18.105  0.7066 -1.7300 -3.6800
 4717TIP3    H238347   7.054   2.211  18.035  0.5951  1.2389  0.8166
 4718TIP3   OH238348   4.679   1.747  19.211 -0.1034  0.3200 -0.2072
 4718TIP3    H138349   4.764   1.744  19.255 -0.2535 -1.4683  0.0233
 4718TIP3    H238350   4.659   1.656  19.191 -2.0439  0.6950 -0.1264
 4719TIP3   OH238351   4.040   6.990  16.917  0.1185  0.5104  0.6933
 4719TIP3    H138352   4.009   6.900  16.903 -2.1832  1.1807  1.0284
 4719TIP3    H238353   4.027   7.005  17.011  1.6568  0.8166  0.8777
 4720TIP3   OH238354   6.381   7.514  16.846  0.0303 -0.0541 -0.1086
 4720TIP3    H138355   6.319   7.525  16.918  0.5644  0.9107  0.2258
 4720TIP3    H238356   6.329   7.474  16.776 -0.9778  0.7059  0.1720
 4721TIP3   OH238357   3.659   3.116  18.278  0.1311  0.7760 -0.0192
 4721TIP3    H138358   3.608   3.139  18.201  0.5140  2.1673  0.1010
 4721TIP3    H238359   3.669   3.199  18.325  0.7671  0.1473  0.9963
 4722TIP3   OH238360   1.192   6.964  17.497 -0.0581  0.2601 -0.4926
 4722TIP3    H138361   1.115   6.971  17.441  0.3203 -0.0889 -1.0696
 4722TIP3    H238362   1.192   6.872  17.525  0.4123  0.1362 -0.8877
 4723TIP3   OH238363   3.856   6.187  18.609  0.2240 -0.3402  0.6669
 4723TIP3    H138364   3.875   6.279  18.588  0.6242 -0.3674  0.9128
 4723TIP3    H238365   3.924   6.162  18.671 -0.3352 -0.5816  1.1857
 4724TIP3   OH238366   5.774   3.169  16.522  0.0358  0.0088  0.3809
 4724TIP3    H138367   5.826   3.102  16.566 -1.3381  0.3728  2.7787
 4724TIP3    H238368   5.709   3.120  16.471  0.5952 -0.4478  0.1019
 4725TIP3   OH238369   6.086   7.521  18.088  0.0062 -0.4778 -0.0536
 4725TIP3    H138370   6.154   7.484  18.144 -1.0240 -2.7309 -0.2093
 4725TIP3    H238371   6.079   7.460  18.015 -0.5003  1.0280 -1.3390
 4726TIP3   OH238372   0.705   5.972  18.009  0.4419 -0.0617 -0.0797
 4726TIP3    H138373   0.638   5.956  17.943 -1.7001  0.4201  1.8799
 4726TIP3    H238374   0.744   5.886  18.025 -0.5329 -0.5727 -0.4158
 4727TIP3   OH238375   5.808   2.121  18.840  0.1803  0.0668  0.3442
 4727TIP3    H138376   5.860   2.045  18.815  0.9350  0.9525 -0.9354
 4727TIP3    H238377   5.731   2.085  18.884  0.7937 -1.3863  0.2844
 4728TIP3   OH238378   7.422   5.355  17.554 -0.2571 -0.0555  0.2953
 4728TIP3    H138379   7.478   5.381  17.481  0.5668 -1.2967  0.4507
 4728TIP3    H238380   7.333   5.370  17.524 -0.0119 -2.0175 -1.5774
 4729TIP3   OH238381   4.440   0.942  18.349 -0.3587 -0.0576  0.4327
 4729TIP3    H138382   4.407   0.957  18.261  1.6039 -1.3610 -0.5853
 4729TIP3    H238383   4.497   1.016  18.367 -0.1456 -0.1811  0.2745
 4730TIP3   OH238384   2.342   2.375  19.195  0.7121 -0.2852  0.3953
 4730TIP3    H138385   2.304   2.440  19.255  1.6304  3.8743 -3.0531
 4730TIP3    H238386   2.284   2.299  19.202 -1.8341  1.6879  3.0801
 4731TIP3   OH238387   1.164   4.357  19.148 -0.2553  0.5984 -0.1852
 4731TIP3    H138388   1.205   4.421  19.207 -0.1899  1.1045 -0.7653
 4731TIP3    H238389   1.145   4.282  19.204 -0.7345  1.2900  0.6146
 4732TIP3   OH238390   0.970   3.140  18.175 -0.0247 -0.4147 -0.2746
 4732TIP3    H138391   0.918   3.207  18.220 -1.1287 -1.5809  0.2177
 4732TIP3    H238392   0.975   3.068  18.237  1.8991 -0.4974 -0.4514
 4733TIP3   OH238393   2.387   0.375  16.834 -0.8665 -0.6646 -0.3952
 4733TIP3    H138394   2.293   0.373  16.854 -0.9393 -0.2442 -0.6812
 4733TIP3    H238395   2.417   0.287  16.854 -1.0998 -0.5022  0.7611
 4734TIP3   OH238396   1.887   4.359  18.201 -0.3494  0.0447 -0.0118
 4734TIP3    H138397   1.817   4.340  18.138  0.2513 -1.5273 -0.2645
 4734TIP3    H238398   1.901   4.275  18.246  1.7806  0.1335 -0.4133
 4735TIP3   OH238399   0.780   3.475  19.037  0.4630  0.5547 -0.1742
 4735TIP3    H138400   0.864   3.429  19.044  0.0371 -0.1480  0.4523
 4735TIP3    H238401   0.721   3.427  19.096 -0.7550  0.1942 -1.6265
 4736TIP3   OH238402   2.639   7.430  19.067 -0.2575  0.1229 -0.1324
 4736TIP3    H138403   2.551   7.423  19.031 -0.9888  2.0691  1.1146
 4736TIP3    H238404   2.697   7.411  18.993 -1.7149  0.6567 -1.4580
 4737TIP3   OH238405   7.290   7.202  18.253  0.0627 -0.0680  0.3643
 4737TIP3    H138406   7.302   7.118  18.209 -0.6084 -0.0888  0.2025
 4737TIP3    H238407   7.304   7.267  18.184  1.8905  0.0134  0.7828
 4738TIP3   OH238408   3.622   4.127  19.207 -0.0712 -0.2636  0.3845
 4738TIP3    H138409   3.560   4.082  19.149  0.5129 -2.5233  1.4128
 4738TIP3    H238410   3.627   4.216  19.171 -0.4037 -1.2897 -2.4879
 4739TIP3   OH238411   6.294   6.715  18.156 -0.3448 -0.2878  0.6820
 4739TIP3    H138412   6.343   6.758  18.226  1.4699  0.5158 -0.9931
 4739TIP3    H238413   6.258   6.787  18.104  1.6310 -0.6978 -1.4058
 4740TIP3   OH238414   7.039   1.890  16.851 -0.0624  0.0651 -0.7095
 4740TIP3    H138415   7.056   1.981  16.826 -0.0627 -0.8092 -4.5734
 4740TIP3    H238416   7.126   1.850  16.853 -0.2021 -0.2554 -1.0326
 4741TIP3   OH238417   7.118   4.188  17.882 -0.1296  0.0823 -0.6230
 4741TIP3    H138418   7.067   4.108  17.891 -0.2378  0.3743  2.1009
 4741TIP3    H238419   7.205   4.166  17.914 -0.0791  0.9442 -0.1138
 4742TIP3   OH238420   2.990   5.271  16.878 -0.5550  0.3486 -0.2243
 4742TIP3    H138421   2.958   5.267  16.788  0.3391 -2.2220 -0.5424
 4742TIP3    H238422   2.936   5.207  16.925 -1.0241  1.6770  1.0928
 4743TIP3   OH238423   6.007   2.745  19.673  0.3218  0.1447  0.3890
 4743TIP3    H138424   6.022   2.652  19.655  2.1028  0.1957  1.3284
 4743TIP3    H238425   6.041   2.757  19.762  2.0533  2.0750 -0.4491
 4744TIP3   OH238426   6.128   1.664  19.107 -0.6344  0.5441  0.4102
 4744TIP3    H138427   6.083   1.689  19.187 -0.0508 -0.9214  1.2413
 4744TIP3    H238428   6.124   1.569  19.106  1.0302  0.4342 -0.2937
 4745TIP3   OH238429   6.712   6.012  17.065  0.6388  0.1719 -0.7726
 4745TIP3    H138430   6.770   6.088  17.058  0.2152  0.5910  0.1426
 4745TIP3    H238431   6.729   5.962  16.985  4.1525 -1.0706  0.5931
 4746TIP3   OH238432   2.725   6.053  16.999  0.1664 -0.2105 -0.1386
 4746TIP3    H138433   2.637   6.087  16.982  0.0028  0.6222  2.0029
 4746TIP3    H238434   2.734   5.979  16.939 -1.2689  0.7870 -1.6811
 4747TIP3   OH238435   2.937   5.588  18.465 -0.3209  0.2641 -0.4430
 4747TIP3    H138436   3.010   5.596  18.404 -0.6723  3.2736 -0.5888
 4747TIP3    H238437   2.895   5.674  18.465 -2.1870 -0.5331  1.7548
 4748TIP3   OH238438   3.816   2.511  19.620  1.0232 -0.6686  0.8516
 4748TIP3    H138439   3.906   2.481  19.634  1.1075 -1.5095 -1.1023
 4748TIP3    H238440   3.819   2.555  19.535 -0.5284 -1.2665  0.4556
 4749TIP3   OH238441   0.978   1.495  18.531 -0.0391 -0.2717  0.4660
 4749TIP3    H138442   0.963   1.528  18.443  0.2307 -2.1675 -0.3463
 4749TIP3    H238443   0.924   1.550  18.587 -0.3885  0.8329 -0.9063
 4750TIP3   OH238444   1.944   3.289  19.469  0.1024  0.3285  0.3638
 4750TIP3    H138445   1.953   3.195  19.454  0.3277  0.6627 -1.9128
 4750TIP3    H238446   1.897   3.322  19.392 -0.3955  2.0323  1.3327
 4751TIP3   OH238447   0.551   7.551  16.821 -0.2508  0.2771 -0.4600
 4751TIP3    H138448   0.490   7.579  16.753 -0.0972  3.3875  0.5034
 4751TIP3    H238449   0.500   7.494  16.879 -1.2863  0.1873 -1.4380
 4752TIP3   OH238450   4.967   6.009  17.911  0.7953  0.7446 -0.5192
 4752TIP3    H138451   4.908   5.939  17.937  2.8081 -1.4674 -1.4739
 4752TIP3    H238452   5.035   6.009  17.978  0.9118  1.6632 -0.6308
 4753TIP3   OH238453   3.469   5.022  18.457  0.4728  0.0707 -0.2055
 4753TIP3    H138454   3.528   5.088  18.494 -1.2719  0.9146  1.2200
 4753TIP3    H238455   3.383   5.064  18.457 -1.0602 -2.6824  2.3523
 4754TIP3   OH238456   2.392   4.587  18.391  0.1901  0.4238 -0.2238
 4754TIP3    H138457   2.322   4.604  18.454  1.3402 -1.7351  1.7556
 4754TIP3    H238458   2.370   4.503  18.351  1.5117 -0.1956  0.2857
 4755TIP3   OH238459   7.105   1.623  18.493  0.1529 -0.1186  0.7139
 4755TIP3    H138460   7.177   1.657  18.547  0.9004 -2.0988  1.0552
 4755TIP3    H238461   7.028   1.628  18.549 -0.1740  2.5567  0.1542
 4756TIP3   OH238462   6.807   5.078  18.149  0.3955  0.6580 -0.0059
 4756TIP3    H138463   6.893   5.036  18.156 -0.1213 -0.3425  0.6751
 4756TIP3    H238464   6.767   5.065  18.235  0.0548  2.2590  0.1124
 4757TIP3   OH238465   6.097   3.892  18.537  0.2751  0.2480 -0.5565
 4757TIP3    H138466   6.081   3.820  18.475  0.5788 -1.0311  0.8119
 4757TIP3    H238467   6.052   3.966  18.498 -2.2502 -1.2859 -0.7971
 4758TIP3   OH238468   4.372   4.152  17.507 -0.1898 -0.1566  0.2279
 4758TIP3    H138469   4.290   4.129  17.552 -0.0858  0.7665  0.9049
 4758TIP3    H238470   4.357   4.123  17.416 -1.4561  0.4316  0.2241
 4759TIP3   OH238471   5.196   0.871  19.047 -0.0176 -0.1239 -0.1632
 4759TIP3    H138472   5.200   0.897  18.955 -2.4171  1.8867  0.1834
 4759TIP3    H238473   5.281   0.896  19.083  0.4524  0.3401 -1.5415
 4760TIP3   OH238474   4.198   1.120  19.279 -0.0930  0.1175  0.1462
 4760TIP3    H138475   4.109   1.101  19.250 -0.8618  0.0531  2.3227
 4760TIP3    H238476   4.198   1.096  19.372  2.5094 -0.8935 -0.0407
 4761TIP3   OH238477   3.171   0.187  17.897 -0.2253  0.8270  0.3260
 4761TIP3    H138478   3.209   0.109  17.858 -0.6860  1.4249 -1.3951
 4761TIP3    H238479   3.241   0.223  17.951  0.2374 -0.3488  0.5263
 4762TIP3   OH238480   3.628   4.462  17.271  0.1648 -0.3518 -0.2885
 4762TIP3    H138481   3.674   4.436  17.191 -0.5706 -3.1031  0.0746
 4762TIP3    H238482   3.551   4.509  17.241 -0.1409 -1.4173 -1.2300
 4763TIP3   OH238483   2.578   5.571  19.532  0.0821 -1.1902  0.2896
 4763TIP3    H138484   2.590   5.632  19.605  0.1474  0.4248 -1.0063
 4763TIP3    H238485   2.590   5.484  19.571  1.3478 -0.3386  1.9424
 4764TIP3   OH238486   1.448   3.825  17.649  0.0103  0.5006 -0.8930
 4764TIP3    H138487   1.373   3.799  17.595 -1.2260  1.8227  0.0922
 4764TIP3    H238488   1.523   3.782  17.608 -1.0329  0.5010 -2.9563
 4765TIP3   OH238489   3.892   2.530  18.858 -0.4107  0.3481 -0.2310
 4765TIP3    H138490   3.817   2.500  18.807 -1.2599  1.4684  0.3190
 4765TIP3    H238491   3.947   2.577  18.796  0.7690 -1.9497 -1.0294
 4766TIP3   OH238492   0.185   4.684  18.251 -0.1799 -0.3865  0.2074
 4766TIP3    H138493   0.256   4.644  18.202 -1.9722 -3.7914  0.1011
 4766TIP3    H238494   0.224   4.712  18.333  1.9427  1.2793 -1.2674
 4767TIP3   OH238495   2.870   4.690  19.112  0.1107  0.2104 -0.0901
 4767TIP3    H138496   2.909   4.758  19.057  0.9073 -0.1132  0.0522
 4767TIP3    H238497   2.905   4.608  19.078 -1.0134 -0.1633 -0.4001
 4768TIP3   OH238498   2.441   6.622  17.069  0.1264  0.7250 -0.4386
 4768TIP3    H138499   2.482   6.677  17.002 -1.2742  3.1626  0.5904
 4768TIP3    H238500   2.352   6.609  17.038  0.6982 -2.1876 -1.2706
 4769TIP3   OH238501   5.793   2.603  19.379  0.5294  0.4847 -0.0064
 4769TIP3    H138502   5.756   2.689  19.399 -0.4031  0.4004 -1.2450
 4769TIP3    H238503   5.807   2.604  19.284  1.1457 -0.4951  0.0537
 4770TIP3   OH238504   2.373   3.314  17.703  0.6160  0.2579 -0.2578
 4770TIP3    H138505   2.443   3.355  17.754  0.2851 -1.0180  1.3081
 4770TIP3    H238506   2.416   3.287  17.622  1.4491  1.2577 -0.1729
 4771TIP3   OH238507   6.337   3.756  17.993 -0.2880  0.1660 -0.4706
 4771TIP3    H138508   6.418   3.717  18.026 -0.1458  0.7332 -0.1286
 4771TIP3    H238509   6.269   3.695  18.021 -0.1014  0.3172  0.3381
 4772TIP3   OH238510   0.043   3.100  17.168 -0.1012 -0.4021 -0.5258
 4772TIP3    H138511   0.038   3.061  17.080 -1.8336 -1.5073  0.0247
 4772TIP3    H238512   0.032   3.194  17.153  0.8668 -0.4321 -1.5847
 4773TIP3   OH238513   0.012   3.776  19.026  0.1375 -0.6396 -0.1047
 4773TIP3    H138514   0.015   3.767  19.121 -0.4160 -0.9869 -0.1170
 4773TIP3    H238515  -0.080   3.791  19.006  0.4614  1.0110 -0.4619
 4774TIP3   OH238516   3.321   7.350  18.366  0.5311 -0.4351  0.5010
 4774TIP3    H138517   3.295   7.264  18.397  0.2439 -1.1600 -1.6000
 4774TIP3    H238518   3.248   7.407  18.390 -0.6977 -1.4150 -0.7830
 4775TIP3   OH238519   0.651   4.080  18.830  0.0155  0.9839 -0.4546
 4775TIP3    H138520   0.586   4.136  18.787 -0.7534  0.9966  0.6705
 4775TIP3    H238521   0.722   4.073  18.767 -0.3091  2.4161 -1.0198
 4776TIP3   OH238522   5.816   6.844  18.932  0.6953 -0.7693 -0.1214
 4776TIP3    H138523   5.765   6.867  18.854  0.9315 -0.8148 -0.2917
 4776TIP3    H238524   5.900   6.889  18.919  1.3113 -2.0110 -0.6459
 4777TIP3   OH238525   5.566   3.394  18.348 -0.5334 -0.2334  0.2626
 4777TIP3    H138526   5.501   3.399  18.418 -1.9128 -0.4074 -0.9470
 4777TIP3    H238527   5.575   3.300  18.330 -0.0310 -0.2029  0.3535
 4778TIP3   OH238528   5.319   5.948  17.293  0.5517 -0.2038  0.7047
 4778TIP3    H138529   5.311   5.881  17.225  1.5127  0.3793 -0.0036
 4778TIP3    H238530   5.360   6.022  17.249  0.7502  0.3603  1.8106
 4779TIP3   OH238531   5.085   1.839  18.722 -0.2984 -0.2895 -0.6652
 4779TIP3    H138532   5.114   1.748  18.719 -1.3440 -0.6315 -1.4749
 4779TIP3    H238533   5.099   1.871  18.633 -0.4834  0.1533 -0.5367
 4780TIP3   OH238534   4.988   7.275  18.995  0.2920 -0.0433 -0.2838
 4780TIP3    H138535   4.992   7.218  18.919  1.2230 -0.8637  0.3567
 4780TIP3    H238536   4.901   7.260  19.033  0.4245 -0.8199 -0.2841
 4781TIP3   OH238537   1.119   0.329  18.182  0.5412 -0.8541  0.2281
 4781TIP3    H138538   1.120   0.248  18.130 -0.5500 -1.1785  0.6820
 4781TIP3    H238539   1.169   0.307  18.261  0.8272 -0.8668  0.0470
 4782TIP3   OH238540   0.095   5.875  16.677 -0.1546 -0.0446 -0.3178
 4782TIP3    H138541   0.008   5.905  16.702 -1.1713 -0.5280 -2.9929
 4782TIP3    H238542   0.154   5.945  16.707 -1.4182  0.3493  1.4102
 4783TIP3   OH238543   4.685   0.501  17.535  0.2362 -0.8276  0.6635
 4783TIP3    H138544   4.614   0.438  17.527  0.1575 -0.7133  0.4332
 4783TIP3    H238545   4.683   0.550  17.452  1.6295 -1.9141 -0.0529
 4784TIP3   OH238546   1.938   5.910  17.729  0.3253  0.1231  0.2891
 4784TIP3    H138547   1.946   5.849  17.802 -0.1712 -1.0713 -0.6176
 4784TIP3    H238548   2.010   5.887  17.670  2.3364  2.7422  1.4857
 4785TIP3   OH238549   4.511   5.620  19.140  0.2882  0.0069 -0.0422
 4785TIP3    H138550   4.541   5.619  19.231  0.6441 -0.2987 -0.1621
 4785TIP3    H238551   4.432   5.674  19.141 -0.3262 -0.8683  0.6469
 4786TIP3   OH238552   3.759   2.364  17.559  0.1170 -0.0083 -0.3061
 4786TIP3    H138553   3.771   2.452  17.594 -0.9348 -0.3331  0.9987
 4786TIP3    H238554   3.809   2.363  17.478  2.8254  0.7985  1.1958
 4787TIP3   OH238555   2.698   1.213  17.675  0.5556  0.0820  0.4889
 4787TIP3    H138556   2.610   1.252  17.670  0.4836 -0.2412 -2.6993
 4787TIP3    H238557   2.750   1.264  17.612  1.3219 -2.7068 -1.3237
 4788TIP3   OH238558   4.860   7.450  16.647 -0.5330  0.2258  0.6115
 4788TIP3    H138559   4.879   7.357  16.648  0.1637  0.3632  0.4311
 4788TIP3    H238560   4.846   7.471  16.554 -1.1330  0.2146  0.6960
 4789TIP3   OH238561   6.403   5.436  16.603  0.2196  0.4133 -0.1714
 4789TIP3    H138562   6.404   5.341  16.617  0.5729  0.3194 -0.7882
 4789TIP3    H238563   6.310   5.459  16.600  0.0781  0.5333  2.7198
 4790TIP3   OH238564   0.048   2.220  17.418  0.2048 -0.4475 -0.3869
 4790TIP3    H138565   0.126   2.272  17.402  0.4613 -0.8015 -0.2917
 4790TIP3    H238566  -0.024   2.277  17.391  0.4959 -0.1481 -0.5447
 4791TIP3   OH238567   3.923   2.652  18.597 -0.8503  0.1214 -1.1566
 4791TIP3    H138568   3.883   2.565  18.602 -0.4813 -0.0658 -1.3663
 4791TIP3    H238569   4.000   2.639  18.542  0.8111 -0.0549  1.0338
 4792TIP3   OH238570   1.397   2.323  18.093 -0.3157 -0.1581  0.2849
 4792TIP3    H138571   1.383   2.310  17.999 -0.1397 -0.0585  0.2446
 4792TIP3    H238572   1.405   2.235  18.129  4.0570 -0.2766 -0.4390
 4793TIP3   OH238573   3.459   0.188  17.757 -0.3399  0.2447 -0.5963
 4793TIP3    H138574   3.492   0.150  17.675 -0.7846  0.6632 -0.9701
 4793TIP3    H238575   3.385   0.132  17.782 -0.2935  0.2036 -0.5473
 4794TIP3   OH238576   3.872   5.934  17.608  0.0350  0.1733 -0.4804
 4794TIP3    H138577   3.899   5.938  17.700  0.5229 -0.2018 -0.6049
 4794TIP3    H238578   3.852   5.842  17.593  0.9875  0.0520 -1.0403
 4795TIP3   OH238579   4.596   3.765  19.069 -0.4162 -0.1118 -0.1523
 4795TIP3    H138580   4.681   3.773  19.028 -1.3132  1.8944 -1.7755
 4795TIP3    H238581   4.606   3.807  19.154  0.1286  0.3815 -0.4577
 4796TIP3   OH238582   7.311   4.997  18.329  0.2464  0.3052 -0.2419
 4796TIP3    H138583   7.345   5.077  18.370  1.0336  0.1707 -0.6059
 4796TIP3    H238584   7.371   4.980  18.257  0.4248 -0.9283  0.1636
 4797TIP3   OH238585   4.290   1.970  17.459  0.3005  0.0901 -0.3167
 4797TIP3    H138586   4.239   1.908  17.511 -0.8966  1.0554 -0.3008
 4797TIP3    H238587   4.377   1.931  17.454  0.5146 -0.0304  2.4854
 4798TIP3   OH238588   0.157   2.843  17.666 -0.0860 -0.1742 -0.1575
 4798TIP3    H138589   0.129   2.760  17.625  0.2626  0.1613 -1.0980
 4798TIP3    H238590   0.102   2.909  17.625 -1.6945 -0.1052  1.9444
 4799TIP3   OH238591   2.041   7.290  17.995 -0.2139  0.0358 -0.2901
 4799TIP3    H138592   1.994   7.299  17.912 -1.5432  1.6980  0.5975
 4799TIP3    H238593   1.984   7.236  18.049  0.1693 -0.1833 -0.1046
 4800TIP3   OH238594   2.393   5.440  19.361 -0.7938 -0.0455  0.0607
 4800TIP3    H138595   2.452   5.471  19.429 -0.3568 -0.0779 -0.2981
 4800TIP3    H238596   2.349   5.518  19.328 -1.3618 -0.0865  0.7038
 4801TIP3   OH238597   5.948   6.527  18.660  0.7403  0.3799  0.0214
 4801TIP3    H138598   5.962   6.482  18.743 -0.2334  1.0802  0.5835
 4801TIP3    H238599   6.013   6.598  18.661 -1.1186  2.1882  1.5647
 4802TIP3   OH238600   1.940   3.632  16.875  0.0599  0.4788  0.3496
 4802TIP3    H138601   1.974   3.589  16.797 -0.4089 -0.1489  0.4908
 4802TIP3    H238602   2.007   3.616  16.942 -1.1391 -2.0280  1.0321
 4803TIP3   OH238603   7.009   2.593  17.668  0.0521 -0.4129 -0.2793
 4803TIP3    H138604   6.990   2.621  17.579  1.4104 -2.6970 -1.3815
 4803TIP3    H238605   7.101   2.618  17.682 -0.5246  1.2027  1.0898
 4804TIP3   OH238606   4.084   6.248  17.680  0.7678 -0.1344  0.5024
 4804TIP3    H138607   4.146   6.304  17.727  2.8426  0.0866 -2.2219
 4804TIP3    H238608   4.122   6.161  17.684  0.0620 -0.4417  0.6626
 4805TIP3   OH238609   5.220   3.174  18.587 -0.0513 -0.6169 -0.3099
 4805TIP3    H138610   5.233   3.081  18.607 -0.7555 -0.5484  0.5613
 4805TIP3    H238611   5.177   3.209  18.665 -1.6480  0.0024 -1.4108
 4806TIP3   OH238612   5.472   2.681  17.891 -0.3758  0.0200 -0.2353
 4806TIP3    H138613   5.505   2.644  17.973  0.9206  1.1760 -0.1951
 4806TIP3    H238614   5.489   2.775  17.899 -0.9258  0.2442 -1.5184
 4807TIP3   OH238615   6.050   1.425  18.399 -0.0556  0.0174 -0.1161
 4807TIP3    H138616   6.081   1.460  18.315 -0.6312 -1.3307 -0.9160
 4807TIP3    H238617   5.977   1.368  18.376  0.3555 -1.0932  1.2028
 4808TIP3   OH238618   1.414   1.676  17.176  0.1050  0.3900  0.2340
 4808TIP3    H138619   1.490   1.712  17.131  0.3858 -1.2284 -0.6733
 4808TIP3    H238620   1.354   1.751  17.185  0.0477  0.8450 -2.8447
 4809TIP3   OH238621   0.652   5.698  19.628  0.0806  0.1266 -0.0885
 4809TIP3    H138622   0.694   5.639  19.565  0.5369 -0.7202  0.9821
 4809TIP3    H238623   0.710   5.775  19.631  0.1624  0.0851 -0.5565
 4810TIP3   OH238624   6.872   0.367  19.438 -0.2228 -0.0767 -0.2916
 4810TIP3    H138625   6.952   0.322  19.412 -1.5762 -1.6818 -1.9468
 4810TIP3    H238626   6.822   0.302  19.487 -1.0610  0.4791 -0.3792
 4811TIP3   OH238627   2.230   7.418  18.955 -0.1012  0.2534 -0.4550
 4811TIP3    H138628   2.306   7.428  18.897  0.4252  1.1113  0.3462
 4811TIP3    H238629   2.268   7.385  19.037 -1.0414 -2.6673 -1.0791
 4812TIP3   OH238630   7.250   2.103  18.234 -0.3729 -0.2004  0.0120
 4812TIP3    H138631   7.269   2.040  18.304 -0.2672 -0.5984 -0.3695
 4812TIP3    H238632   7.296   2.183  18.260  1.4926 -1.0060 -0.6905
 4813TIP3   OH238633   6.298   1.474  17.922 -0.4549  0.3765 -0.2538
 4813TIP3    H138634   6.290   1.419  17.844  1.6208  1.0350 -1.0101
 4813TIP3    H238635   6.235   1.544  17.908 -0.7178  0.0225 -0.9309
 4814TIP3   OH238636   1.765   3.454  17.014  0.3667  0.3002 -0.0259
 4814TIP3    H138637   1.679   3.415  17.030  1.5244 -2.0156  1.0228
 4814TIP3    H238638   1.764   3.476  16.921 -1.1354 -0.2340 -0.1683
 4815TIP3   OH238639   6.939   5.375  17.214 -0.1419  0.1786 -0.1740
 4815TIP3    H138640   7.030   5.392  17.190  0.1346 -0.3256  0.4671
 4815TIP3    H238641   6.890   5.451  17.181  0.4624  0.3119 -0.7804
 4816TIP3   OH238642   1.252   7.216  18.150 -0.7667  0.2820  0.4282
 4816TIP3    H138643   1.213   7.168  18.223  1.2711 -2.2238  0.0320
 4816TIP3    H238644   1.321   7.269  18.189  0.2960 -1.0264  0.4286
 4817TIP3   OH238645   3.290   4.338  19.374 -0.1504  0.3409 -0.1294
 4817TIP3    H138646   3.212   4.361  19.324  1.2757 -0.2202 -2.7904
 4817TIP3    H238647   3.298   4.408  19.439 -2.7087  0.5093  0.1151
 4818TIP3   OH238648   6.607   6.439  17.427 -0.0727 -0.2274  0.0605
 4818TIP3    H138649   6.622   6.349  17.399 -1.5507 -0.4909 -0.0006
 4818TIP3    H238650   6.598   6.488  17.345 -1.1283 -0.3896  0.0644
 4819TIP3   OH238651   3.152   7.640  19.188  0.5319 -0.0626  0.3993
 4819TIP3    H138652   3.145   7.735  19.196 -0.0815 -0.1873  1.5424
 4819TIP3    H238653   3.096   7.618  19.113  0.0266  0.3961  0.6398
 4820TIP3   OH238654   3.383   4.782  18.102  0.0173 -0.3169  0.4437
 4820TIP3    H138655   3.457   4.759  18.159 -0.4307  1.1253  1.6802
 4820TIP3    H238656   3.413   4.860  18.056 -0.4799 -0.1320  0.4343
 4821TIP3   OH238657   1.043   7.073  19.127 -0.6737  0.0148  0.0407
 4821TIP3    H138658   1.048   7.090  19.222  1.1376  0.5723 -0.1134
 4821TIP3    H238659   1.029   6.979  19.121 -0.8461 -0.0263  0.8716
 4822TIP3   OH238660   1.300   0.026  16.507 -0.0235  0.4623  0.3177
 4822TIP3    H138661   1.232   0.004  16.444  0.1074 -1.2200  0.7288
 4822TIP3    H238662   1.285  -0.034  16.581  0.9004  1.1825  1.1236
 4823TIP3   OH238663   3.265   7.311  18.852 -0.3249  0.2069 -0.0631
 4823TIP3    H138664   3.319   7.339  18.926  0.9874 -0.8153 -0.5887
 4823TIP3    H238665   3.327   7.304  18.779 -0.7755 -2.6669 -0.2710
 4824TIP3   OH238666   1.718   4.510  18.958  0.6100  0.4409 -0.0705
 4824TIP3    H138667   1.759   4.446  19.014  1.3486  0.0076 -1.0766
 4824TIP3    H238668   1.643   4.464  18.919 -0.3924  0.9869  1.1502
 4825TIP3   OH238669   5.227   1.202  18.296  0.3358  0.2212  0.4587
 4825TIP3    H138670   5.224   1.130  18.359 -0.5062  0.1733  0.3748
 4825TIP3    H238671   5.287   1.172  18.227  0.9599  0.1189  1.0378
 4826TIP3   OH238672   2.202   0.900  19.288 -0.1299  0.1330 -0.0163
 4826TIP3    H138673   2.144   0.971  19.315 -2.8752 -0.6724 -3.1851
 4826TIP3    H238674   2.216   0.914  19.195 -1.7459 -3.9295 -1.0834
 4827TIP3   OH238675   2.296   4.639  17.967 -0.2645  0.5761  0.4170
 4827TIP3    H138676   2.381   4.647  18.009 -0.0957 -0.4791  0.3009
 4827TIP3    H238677   2.242   4.590  18.029 -0.2957 -0.1562 -0.1631
 4828TIP3   OH238678   5.652   4.809  17.520  0.5173  0.1225 -0.2952
 4828TIP3    H138679   5.711   4.864  17.571 -0.5215  0.5167  0.5186
 4828TIP3    H238680   5.567   4.818  17.563  0.2725 -2.0067 -0.2280
 4829TIP3   OH238681   4.319   1.889  18.875 -0.3112 -0.1021 -0.2073
 4829TIP3    H138682   4.237   1.843  18.893 -0.5741  0.0528 -0.9530
 4829TIP3    H238683   4.374   1.822  18.834  0.3956 -0.5384  1.3943
 4830TIP3   OH238684   4.890   0.828  17.375  0.5322  0.5111 -0.0740
 4830TIP3    H138685   4.950   0.858  17.307  0.3622  0.3261 -0.3096
 4830TIP3    H238686   4.884   0.901  17.436 -0.1609  1.1036 -0.8230
 4831TIP3   OH238687   4.947   4.418  19.338  0.0294 -0.4867 -0.5291
 4831TIP3    H138688   4.891   4.491  19.365  1.8833  1.3216 -1.2592
 4831TIP3    H238689   4.974   4.441  19.249  3.5064 -0.1352  0.4587
 4832TIP3   OH238690   2.728   5.741  19.727  0.3342  0.0239  0.3386
 4832TIP3    H138691   2.784   5.776  19.797  2.2817  0.1849 -1.1978
 4832TIP3    H238692   2.789   5.718  19.657 -1.4618 -0.8811 -1.0211
 4833TIP3   OH238693   7.383   2.949  18.858  0.6804 -0.0777  0.4731
 4833TIP3    H138694   7.401   3.031  18.904 -1.3555  0.5405  0.2599
 4833TIP3    H238695   7.414   2.881  18.918  0.4640  0.7860  1.6129
 4834TIP3   OH238696   0.884   1.336  18.168 -0.5412 -0.3276  0.1180
 4834TIP3    H138697   0.923   1.313  18.083  1.7454 -1.2576  1.3198
 4834TIP3    H238698   0.837   1.257  18.195  1.3141 -1.1981  1.0213
 4835TIP3   OH238699   3.831   3.777  18.536  0.3604  0.5778 -0.4748
 4835TIP3    H138700   3.850   3.868  18.559 -0.1595  0.4799  0.3518
 4835TIP3    H238701   3.913   3.730  18.555  0.2182  0.6505  0.3553
 4836TIP3   OH238702   3.480   2.995  18.450  0.0460 -0.0201  0.0640
 4836TIP3    H138703   3.400   3.024  18.407 -0.6375 -1.0042  0.6206
 4836TIP3    H238704   3.550   3.022  18.391 -0.5687  2.1563  0.2641
 4837TIP3   OH238705   1.070   6.982  17.048 -0.1450  0.7200  0.0203
 4837TIP3    H138706   1.039   7.053  17.104  0.2437  0.8604  0.0610
 4837TIP3    H238707   0.998   6.918  17.049 -0.4326  1.0379  0.1101
 4838TIP3   OH238708   2.418   1.651  18.665 -0.5453  0.4247 -0.2008
 4838TIP3    H138709   2.400   1.599  18.587 -1.6320 -1.5902  1.2853
 4838TIP3    H238710   2.355   1.619  18.730  0.4822  1.8154  1.5813
 4839TIP3   OH238711   6.374   3.507  17.306 -0.5749  0.4131 -0.3318
 4839TIP3    H138712   6.451   3.552  17.274  0.0265 -1.0624 -1.0628
 4839TIP3    H238713   6.306   3.524  17.241 -0.3026  0.1175 -0.6912
 4840TIP3   OH238714   7.038   4.321  18.140 -0.0153 -0.2502 -0.0137
 4840TIP3    H138715   7.048   4.357  18.051  5.3091  1.1912  0.8125
 4840TIP3    H238716   6.998   4.393  18.190  0.1193  0.2243 -0.5711
 4841TIP3   OH238717   1.764   3.473  19.605  0.7016  1.1438  0.1914
 4841TIP3    H138718   1.778   3.437  19.692  1.8252  1.1816  0.0362
 4841TIP3    H238719   1.844   3.453  19.557 -1.3504 -2.8499 -2.2278
 4842TIP3   OH238720   1.779   7.569  17.688 -0.4597  0.4286 -0.0293
 4842TIP3    H138721   1.798   7.608  17.603  1.3911 -1.2233 -0.4545
 4842TIP3    H238722   1.792   7.641  17.750  0.6427  1.0716 -0.9585
 4843TIP3   OH238723   2.113   2.567  17.866  0.2133  0.0589 -0.1387
 4843TIP3    H138724   2.193   2.547  17.913 -1.2305  0.0779  2.5330
 4843TIP3    H238725   2.058   2.489  17.878 -1.0172  0.9428  0.1139
 4844TIP3   OH238726   0.042   7.656  19.381  0.2693 -0.2512 -0.5189
 4844TIP3    H138727  -0.009   7.736  19.395  0.5184  0.1375 -1.7335
 4844TIP3    H238728  -0.024   7.589  19.363  0.1462  0.1134 -1.4512
 4845TIP3   OH238729   0.059   5.406  18.409 -0.0267  0.2220 -0.0235
 4845TIP3    H138730   0.041   5.473  18.475  0.1000  0.0250  0.2115
 4845TIP3    H238731   0.151   5.418  18.386 -0.2132  0.6448 -0.5665
 4846TIP3   OH238732   0.810   1.269  18.575  0.3370  0.4241 -0.3082
 4846TIP3    H138733   0.735   1.284  18.517  0.3641 -1.2922 -0.8437
 4846TIP3    H238734   0.867   1.343  18.559 -0.0263  0.4019 -1.9291
 4847TIP3   OH238735   3.157   5.224  17.283 -0.0223 -0.5127  0.7021
 4847TIP3    H138736   3.077   5.173  17.272 -0.2385 -0.1537  0.5840
 4847TIP3    H238737   3.130   5.314  17.268  0.5104 -0.4359  0.1515
 4848TIP3   OH238738   3.814   0.563  18.257  0.3519 -0.2406 -0.1156
 4848TIP3    H138739   3.878   0.626  18.224  1.0425 -0.1098  1.3620
 4848TIP3    H238740   3.795   0.594  18.346 -2.0231 -0.1058 -0.6031
 4849TIP3   OH238741   4.901   7.674  18.934 -0.4995 -0.8136 -0.8016
 4849TIP3    H138742   4.909   7.586  18.897  1.3055 -0.6813 -0.8215
 4849TIP3    H238743   4.972   7.679  18.998 -0.8859  0.4714 -0.4558
 4850TIP3   OH238744   3.014   4.077  18.062 -0.1649 -0.0416 -0.2432
 4850TIP3    H138745   3.012   4.142  17.991 -0.5926 -1.1432 -1.2819
 4850TIP3    H238746   3.069   4.117  18.129  0.2847  1.0338 -1.2058
 4851TIP3   OH238747   3.209   0.524  18.307 -0.0648 -0.6790  0.4352
 4851TIP3    H138748   3.141   0.549  18.369  0.6011 -0.9655  1.3182
 4851TIP3    H238749   3.245   0.606  18.275  1.0643 -0.4593  2.1295
 4852TIP3   OH238750   5.836   6.234  16.759  0.0429 -0.3186  0.2055
 4852TIP3    H138751   5.792   6.255  16.677 -1.0337 -2.0589  0.2856
 4852TIP3    H238752   5.831   6.139  16.765  0.5953 -0.2691  2.0330
 4853TIP3   OH238753   4.690   0.230  17.269 -0.0003  0.0750 -0.0442
 4853TIP3    H138754   4.670   0.305  17.213 -0.0391  0.4972  0.5274
 4853TIP3    H238755   4.761   0.184  17.223 -0.8793 -0.3054 -1.0709
 4854TIP3   OH238756   4.045   0.370  16.888  0.4421  0.7812  0.1981
 4854TIP3    H138757   4.087   0.455  16.895  0.1842  0.8532  0.9477
 4854TIP3    H238758   4.107   0.317  16.837  0.8084  1.2748  0.1221
 4855TIP3   OH238759   3.900   6.167  16.641 -0.0303 -0.0251  0.4869
 4855TIP3    H138760   3.927   6.155  16.550  0.3526 -0.3426  0.6377
 4855TIP3    H238761   3.841   6.094  16.658 -0.0349 -0.0147  0.5167
 4856TIP3   OH238762   3.509   0.421  16.608 -0.2848 -0.4950 -0.5765
 4856TIP3    H138763   3.544   0.332  16.593  1.9885  0.2160  0.0540
 4856TIP3    H238764   3.538   0.470  16.531  1.5733  0.4761  0.6614
 4857TIP3   OH238765   2.700   4.444  18.719  0.4515  0.2063  0.3944
 4857TIP3    H138766   2.791   4.447  18.689  0.1919  2.7377 -0.3554
 4857TIP3    H238767   2.707   4.416  18.810  2.0090  0.3685  0.3625
 4858TIP3   OH238768   1.170   7.202  17.637  0.0086 -0.1089 -0.5217
 4858TIP3    H138769   1.235   7.185  17.706 -0.1027 -0.5913 -0.5355
 4858TIP3    H238770   1.158   7.117  17.594  0.1701  0.2144 -1.2171
 4859TIP3   OH238771   5.692   3.795  18.144 -0.6972  0.4367  0.3207
 4859TIP3    H138772   5.682   3.891  18.146 -0.2513  0.4924 -0.0136
 4859TIP3    H238773   5.731   3.774  18.228  2.9493  1.0080 -1.0587
 4860TIP3   OH238774   6.657   2.136  17.354 -0.0756  0.0413 -0.2231
 4860TIP3    H138775   6.596   2.074  17.395  1.4349 -0.9563  0.5742
 4860TIP3    H238776   6.621   2.222  17.376 -0.2960 -0.4988  1.7113
 4861TIP3   OH238777   0.318   0.742  18.993 -0.1413 -0.2705 -0.9510
 4861TIP3    H138778   0.262   0.667  19.014 -2.9258  0.9335 -3.4029
 4861TIP3    H238779   0.350   0.724  18.905 -1.1245  1.4677 -1.7160
 4862TIP3   OH238780   3.852   1.209  17.197 -0.0553  0.0849  0.4471
 4862TIP3    H138781   3.834   1.215  17.103  2.6054  0.4123 -0.1203
 4862TIP3    H238782   3.861   1.300  17.226  0.2596 -0.0467  0.7719
 4863TIP3   OH238783   0.240   6.895  18.393 -0.2445  0.4021  0.3367
 4863TIP3    H138784   0.212   6.854  18.312 -1.5599  0.8384  0.5418
 4863TIP3    H238785   0.333   6.873  18.401  0.0991  0.9974 -1.6613
 4864TIP3   OH238786   4.330   5.635  19.358 -0.3438 -0.0451 -0.0215
 4864TIP3    H138787   4.257   5.618  19.298  0.5659  0.9214 -1.4878
 4864TIP3    H238788   4.348   5.729  19.347  0.0322  0.0943  1.5896
 4865TIP3   OH238789   1.072   7.222  16.505 -0.5076 -0.1768 -0.3273
 4865TIP3    H138790   1.107   7.133  16.514  1.3182  0.5024 -0.3694
 4865TIP3    H238791   1.121   7.259  16.432 -0.4644  1.2173  0.3853
 4866TIP3   OH238792   1.759   2.329  18.653  0.3882 -0.4099  0.2919
 4866TIP3    H138793   1.767   2.397  18.586 -0.4571  1.5482  2.0906
 4866TIP3    H238794   1.668   2.300  18.647  0.0840  0.3338  1.0572
 4867TIP3   OH238795   0.398   4.296  16.777 -0.2950  0.0586  0.0815
 4867TIP3    H138796   0.345   4.250  16.842 -0.0813  1.5102  1.3388
 4867TIP3    H238797   0.468   4.235  16.755 -0.4321 -0.5001  1.1472
 4868TIP3   OH238798   1.055   3.526  17.586 -0.4066  0.2607  0.2184
 4868TIP3    H138799   1.059   3.604  17.642 -1.7765  1.2494 -1.0165
 4868TIP3    H238800   0.994   3.468  17.631  0.3735 -0.0008  0.9773
 4869TIP3   OH238801   1.701   0.949  16.790 -0.4433  0.8342  0.5854
 4869TIP3    H138802   1.709   1.044  16.782  0.4302  0.6284 -1.4741
 4869TIP3    H238803   1.609   0.931  16.772 -1.1752  1.4211  3.2829
 4870TIP3   OH238804   3.687   0.948  17.469  0.1117  0.0205 -0.2899
 4870TIP3    H138805   3.690   0.894  17.548 -0.9374  0.2795 -0.0551
 4870TIP3    H238806   3.618   1.013  17.487  1.3630  1.4764 -0.5457
 4871TIP3   OH238807   4.220   7.534  18.084 -0.2467  0.3162  0.3438
 4871TIP3    H138808   4.156   7.479  18.131 -0.4050 -1.4401 -1.7687
 4871TIP3    H238809   4.172   7.565  18.007  0.9447  0.3948 -0.3759
 4872TIP3   OH238810   1.079   3.167  17.675 -0.0049  0.7080 -0.1740
 4872TIP3    H138811   1.011   3.235  17.674  1.0002  1.7580 -1.2334
 4872TIP3    H238812   1.068   3.123  17.759 -1.7442  1.0980 -0.1651
 4873TIP3   OH238813   0.047   0.416  18.612  0.3093  0.1643 -0.3690
 4873TIP3    H138814   0.110   0.358  18.655  2.4069 -0.2353 -3.5922
 4873TIP3    H238815  -0.038   0.374  18.626  1.0424 -0.6783  1.9547
 4874TIP3   OH238816   5.948   2.566  16.929  0.1495 -0.3682 -0.1646
 4874TIP3    H138817   5.947   2.480  16.971  0.7627 -0.4952 -0.4079
 4874TIP3    H238818   5.859   2.600  16.943  0.0174 -0.8739  0.2648
 4875TIP3   OH238819   0.165   7.050  17.895 -0.4123 -0.2775  0.0018
 4875TIP3    H138820   0.236   6.992  17.868 -0.2771 -0.8926  1.5927
 4875TIP3    H238821   0.181   7.067  17.988 -2.0146  0.0492  0.2542
 4876TIP3   OH238822   1.416   3.384  16.873  0.4663 -0.3165 -0.0925
 4876TIP3    H138823   1.384   3.307  16.921 -0.8231  0.0121 -0.3872
 4876TIP3    H238824   1.368   3.383  16.791  1.3239  0.1509 -0.6175
 4877TIP3   OH238825   1.351   0.197  18.885  0.5806  0.0323  0.1584
 4877TIP3    H138826   1.328   0.104  18.889  0.3955  0.1084  1.3458
 4877TIP3    H238827   1.414   0.203  18.813  0.1807 -0.9112 -0.2945
 4878TIP3   OH238828   0.057   6.393  19.410  0.1009  0.0611  0.0102
 4878TIP3    H138829   0.042   6.337  19.486  0.6833  3.0668  2.5365
 4878TIP3    H238830   0.152   6.396  19.399  0.0316 -0.2297 -0.7900
 4879TIP3   OH238831   5.126   6.225  17.206 -0.2464 -0.1385 -0.0017
 4879TIP3    H138832   5.149   6.215  17.299  1.7559 -1.7953 -0.6040
 4879TIP3    H238833   5.098   6.316  17.198  0.9743  0.4710  1.9632
 4880TIP3   OH238834   7.214   7.295  17.535  0.5302  0.8642 -0.2840
 4880TIP3    H138835   7.224   7.347  17.614 -0.4348 -0.1758  0.5672
 4880TIP3    H238836   7.253   7.210  17.556 -0.1902  0.4043 -0.7263
 4881TIP3   OH238837   2.561   7.011  18.791  0.0182 -0.4245 -0.1756
 4881TIP3    H138838   2.542   6.918  18.782  2.4776 -0.9390 -0.6263
 4881TIP3    H238839   2.656   7.017  18.783 -0.1381  2.2061 -0.8556
 4882TIP3   OH238840   3.297   3.059  17.972  0.1154 -0.2726 -0.4649
 4882TIP3    H138841   3.328   3.026  18.056 -0.2821 -0.5376 -0.4176
 4882TIP3    H238842   3.227   2.999  17.947 -0.6501  0.5399 -0.3581
 4883TIP3   OH238843   4.705   4.863  19.136 -0.2215  0.4837 -0.5472
 4883TIP3    H138844   4.679   4.774  19.110  0.2999  0.0886  0.2303
 4883TIP3    H238845   4.649   4.883  19.212  0.0871  0.5742 -0.3434
 4884TIP3   OH238846   1.265   6.280  18.717 -0.5584  0.6745  0.1040
 4884TIP3    H138847   1.189   6.308  18.667  0.4326  0.5860 -1.5353
 4884TIP3    H238848   1.334   6.267  18.651  0.0899 -1.9947  1.1585
 4885TIP3   OH238849   7.020   2.616  17.399  0.3480  0.2501 -0.6948
 4885TIP3    H138850   7.087   2.562  17.356  0.4485 -1.1480  1.0782
 4885TIP3    H238851   6.951   2.554  17.422  0.5397  0.8060  1.5625
 4886TIP3   OH238852   3.169   3.234  18.375  0.2617  0.0044  0.6927
 4886TIP3    H138853   3.182   3.204  18.465  0.4845 -1.1212  0.3024
 4886TIP3    H238854   3.097   3.181  18.342  2.5645 -2.3318 -0.9592
 4887TIP3   OH238855   3.704   4.275  17.735  0.3038 -0.2057  0.0053
 4887TIP3    H138856   3.625   4.233  17.769 -1.5916  2.1275 -1.1835
 4887TIP3    H238857   3.728   4.338  17.804  0.1910  0.1644 -0.2904
 4888TIP3   OH238858   0.396   5.379  19.917  0.3489 -0.6232 -0.1505
 4888TIP3    H138859   0.473   5.409  19.868 -1.1679  1.6114 -1.3213
 4888TIP3    H238860   0.397   5.430  19.997 -0.3881  0.1188 -0.5960
 4889TIP3   OH238861   0.929   7.391  19.292  0.1879  0.8122 -0.2429
 4889TIP3    H138862   0.922   7.486  19.302  1.6312  0.9532 -0.4301
 4889TIP3    H238863   0.873   7.371  19.217 -0.0990  1.5174 -0.2252
 4890TIP3   OH238864   0.945   6.997  18.583  0.3878  0.0935 -0.0832
 4890TIP3    H138865   0.925   6.931  18.516  1.8459  0.0702 -0.5263
 4890TIP3    H238866   0.931   6.952  18.666 -0.6211 -0.1340 -0.3611
 4891TIP3   OH238867   4.610   0.571  18.671 -0.2308 -0.4960 -0.3907
 4891TIP3    H138868   4.542   0.503  18.673 -0.0905 -0.6341 -0.2980
 4891TIP3    H238869   4.586   0.631  18.742 -1.0124  0.1915 -1.2223
 4892TIP3   OH238870   5.657   2.796  18.176  0.5654  0.1779  0.4081
 4892TIP3    H138871   5.561   2.792  18.172  0.5621 -0.0986  0.7222
 4892TIP3    H238872   5.680   2.737  18.248  1.0635 -0.9276 -0.6251
 4893TIP3   OH238873   1.568   6.303  18.008  0.2732  0.0084 -0.1444
 4893TIP3    H138874   1.515   6.293  17.929 -0.6378 -0.5176  0.5073
 4893TIP3    H238875   1.504   6.318  18.078  1.1281  3.9834  0.0539
 4894TIP3   OH238876   1.554   0.102  17.534  0.3906  0.3711  0.9030
 4894TIP3    H138877   1.593   0.170  17.589  1.6262 -1.5266  2.5144
 4894TIP3    H238878   1.629   0.056  17.496 -0.4237  0.1978 -0.5454
 4895TIP3   OH238879   6.325   5.696  18.361 -0.2655  0.0640  0.2596
 4895TIP3    H138880   6.349   5.607  18.337 -0.8238  0.3364 -1.4400
 4895TIP3    H238881   6.298   5.690  18.452 -0.3254 -1.5021  0.1618
 4896TIP3   OH238882   5.776   1.205  19.446  0.0909  0.1387  0.2680
 4896TIP3    H138883   5.693   1.207  19.399  0.2601 -1.4564 -0.1711
 4896TIP3    H238884   5.811   1.293  19.437 -1.3569  0.7262  0.1171
 4897TIP3   OH238885   4.351   5.462  17.438 -0.4242  0.0492  0.3873
 4897TIP3    H138886   4.364   5.535  17.378  1.3076 -0.7287 -0.2442
 4897TIP3    H238887   4.324   5.503  17.520 -2.2681  1.1787 -0.7056
 4898TIP3   OH238888   6.554   5.273  18.586 -0.5659  0.3120 -0.3021
 4898TIP3    H138889   6.462   5.246  18.589 -0.2045 -1.1170 -1.0808
 4898TIP3    H238890   6.593   5.231  18.664 -0.2150 -0.6230 -0.9610
 4899TIP3   OH238891   5.150   1.788  17.864  0.4290 -0.2055 -0.1151
 4899TIP3    H138892   5.215   1.722  17.890 -0.4087 -0.7581  0.6123
 4899TIP3    H238893   5.069   1.738  17.852 -0.4568  0.8159  1.3970
 4900TIP3   OH238894   6.977   2.573  19.758 -0.0633 -0.1076 -0.0621
 4900TIP3    H138895   6.953   2.490  19.718  1.8465 -0.8499  0.2585
 4900TIP3    H238896   7.019   2.550  19.841  1.1229  1.1248 -0.2803
 4901TIP3   OH238897   2.970   3.448  18.586 -0.3410  0.0553  0.6470
 4901TIP3    H138898   3.013   3.437  18.671  0.0222  1.3274  0.6528
 4901TIP3    H238899   2.937   3.361  18.564 -0.5606 -0.2703  2.1553
 4902TIP3   OH238900   2.480   0.628  18.288  0.2094 -0.5339 -0.6678
 4902TIP3    H138901   2.497   0.622  18.382 -1.1705 -3.1465 -0.5196
 4902TIP3    H238902   2.539   0.698  18.259  1.0215  0.0499  2.0212
 4903TIP3   OH238903   3.078   1.099  18.887 -0.4117  0.2367 -0.5574
 4903TIP3    H138904   3.060   1.126  18.797 -2.3197  0.3536 -0.1832
 4903TIP3    H238905   3.084   1.003  18.882 -0.4146  0.2482 -0.8128
 4904TIP3   OH238906   7.244   3.566  18.961 -0.3703 -0.1080  0.3200
 4904TIP3    H138907   7.179   3.531  19.022 -1.5195  0.8790 -0.2878
 4904TIP3    H238908   7.242   3.506  18.886  0.9134 -1.2200  1.1377
 4905TIP3   OH238909   4.323   7.040  18.082 -0.1598  0.2095  0.3253
 4905TIP3    H138910   4.405   7.000  18.108 -0.3953  0.5607  1.7042
 4905TIP3    H238911   4.348   7.124  18.043  0.1590  0.1619  0.4260
 4906TIP3   OH238912   4.360   0.430  18.507 -0.0686 -0.2856 -0.2815
 4906TIP3    H138913   4.324   0.345  18.482 -0.2926  0.0455 -1.1267
 4906TIP3    H238914   4.385   0.471  18.424 -0.8198  0.8549  0.0287
 4907TIP3   OH238915   3.398   7.006  17.190  0.0244  0.2078  0.5703
 4907TIP3    H138916   3.468   6.997  17.124  1.7879 -0.5688  2.4586
 4907TIP3    H238917   3.345   7.080  17.158  0.2202 -0.7322 -2.1801
 4908TIP3   OH238918   7.624   2.401  18.497 -0.2033  0.1652  0.3339
 4908TIP3    H138919   7.569   2.474  18.467 -0.5155  0.2646  1.1285
 4908TIP3    H238920   7.581   2.369  18.576 -0.2397 -1.0906 -0.1738
 4909TIP3   OH238921   6.497   6.815  18.335 -0.1223 -0.2927 -0.2809
 4909TIP3    H138922   6.480   6.902  18.373  0.6429  0.6239 -1.9332
 4909TIP3    H238923   6.552   6.833  18.259  0.5435 -2.3056 -0.3143
 4910TIP3   OH238924   4.030   6.921  17.196  0.2030 -0.0997 -0.1451
 4910TIP3    H138925   3.934   6.927  17.189  0.3791  0.3721 -3.0992
 4910TIP3    H238926   4.045   6.833  17.229 -1.2386 -0.1774  0.4111
 4911TIP3   OH238927   4.942   0.770  17.925  0.1332  0.1121  0.7328
 4911TIP3    H138928   4.886   0.702  17.961  0.5822  0.7870  2.8780
 4911TIP3    H238929   4.882   0.831  17.881 -0.3957 -0.9657 -0.0748
 4912TIP3   OH238930   0.860   2.362  18.732  0.6286 -0.1684  0.0408
 4912TIP3    H138931   0.766   2.366  18.747  0.7759  2.6711  0.7572
 4912TIP3    H238932   0.875   2.276  18.693 -1.9063 -1.6160  2.0361
 4913TIP3   OH238933   3.379   5.546  18.854 -0.6885  0.3513  0.2690
 4913TIP3    H138934   3.382   5.639  18.834  1.8188  0.4501  0.8151
 4913TIP3    H238935   3.344   5.506  18.774  0.0493  1.5880 -0.7134
 4914TIP3   OH238936   2.364   2.955  16.869  0.7061  0.7254 -0.1078
 4914TIP3    H138937   2.285   2.992  16.909  0.9808  1.3089 -0.0932
 4914TIP3    H238938   2.335   2.872  16.830  0.3673  0.2863  1.0315
 4915TIP3   OH238939   7.528   2.566  17.696  0.2281 -0.4271  0.2134
 4915TIP3    H138940   7.505   2.657  17.715 -0.0985  0.4547 -3.6847
 4915TIP3    H238941   7.611   2.572  17.649  0.8320 -2.3037  0.9600
 4916TIP3   OH238942   1.181   4.227  18.889  0.6412 -0.5702 -0.1907
 4916TIP3    H138943   1.210   4.255  18.976  1.8624  0.1743 -0.8074
 4916TIP3    H238944   1.238   4.153  18.868  0.2617 -0.8302 -0.3047
 4917TIP3   OH238945   5.495   5.305  18.648  0.2628 -0.6500  0.5784
 4917TIP3    H138946   5.503   5.245  18.722  1.9963 -2.1762 -0.7515
 4917TIP3    H238947   5.567   5.280  18.589 -0.1379  1.4877 -0.9343
 4918TIP3   OH238948   6.123   2.554  17.896 -0.1767 -0.0673 -0.0981
 4918TIP3    H138949   6.096   2.624  17.956 -1.0120  0.5625 -1.1646
 4918TIP3    H238950   6.087   2.475  17.934 -0.2936  0.2545  0.4753
 4919TIP3   OH238951   6.313   2.692  18.047 -0.2747 -0.7227 -0.1266
 4919TIP3    H138952   6.281   2.704  17.958 -0.2981 -1.5217 -0.2368
 4919TIP3    H238953   6.235   2.701  18.102 -0.4244 -1.1228 -0.2664
 4920TIP3   OH238954   1.872   4.587  17.950  0.3540 -0.0514  0.7556
 4920TIP3    H138955   1.929   4.516  17.918 -0.3663 -0.3195  0.0448
 4920TIP3    H238956   1.783   4.555  17.934 -0.0552  2.1413 -2.2523
 4921TIP3   OH238957   7.072   1.714  19.372  0.0100 -0.0519  0.1659
 4921TIP3    H138958   6.980   1.733  19.389 -0.0115  0.2253 -0.2291
 4921TIP3    H238959   7.073   1.623  19.344  0.1180 -0.6848  2.1143
 4922TIP3   OH238960   3.552   4.770  19.152  0.3298 -0.2962 -0.8055
 4922TIP3    H138961   3.591   4.854  19.176  0.2747 -0.3689 -0.4689
 4922TIP3    H238962   3.464   4.772  19.189  1.4152 -1.8618  2.2195
 4923TIP3   OH238963   0.097   6.062  17.915  0.1137  0.0289 -0.0796
 4923TIP3    H138964   0.061   6.089  18.000 -0.7225 -1.3874  0.0566
 4923TIP3    H238965   0.025   6.073  17.854 -0.6839 -2.8747  0.1994
 4924TIP3   OH238966   3.881   2.394  18.333  0.1136 -0.0705  0.1617
 4924TIP3    H138967   3.838   2.310  18.317  0.7370 -0.4519  0.4308
 4924TIP3    H238968   3.879   2.403  18.429  1.8008 -0.7555  0.3115
 4925TIP3   OH238969   6.624   1.974  18.344 -0.1233  0.2865 -0.0570
 4925TIP3    H138970   6.542   1.924  18.350  0.6145 -1.2891 -2.0521
 4925TIP3    H238971   6.681   1.920  18.289  2.3224  1.2995  1.3138
 4926TIP3   OH238972   5.257   7.471  17.850  0.3279  0.4365 -0.0063
 4926TIP3    H138973   5.264   7.382  17.884 -2.0838  0.1510 -0.0853
 4926TIP3    H238974   5.345   7.493  17.821  0.8956 -2.0915 -0.3928
 4927TIP3   OH238975   7.101   1.142  17.184 -0.5496  0.5749  0.3754
 4927TIP3    H138976   7.108   1.101  17.271 -0.4045 -0.4920 -0.1276
 4927TIP3    H238977   7.011   1.175  17.181 -0.6351  0.3982  0.8292
 4928TIP3   OH238978   0.837   0.289  18.427 -0.4490  0.0052  0.6601
 4928TIP3    H138979   0.870   0.379  18.427 -0.1913 -0.0893  0.3088
 4928TIP3    H238980   0.891   0.244  18.491  1.5474 -0.6675 -1.3837
 4929TIP3   OH238981   2.432   0.105  16.936  0.2021 -0.2416  0.0584
 4929TIP3    H138982   2.365   0.130  16.998 -4.1080  1.4694 -4.5917
 4929TIP3    H238983   2.412   0.013  16.915  0.6318 -0.3390  0.0631
 4930TIP3   OH238984   3.829   4.295  18.817 -0.0710  0.1956 -0.1461
 4930TIP3    H138985   3.819   4.311  18.910 -0.0770 -0.2396 -0.0708
 4930TIP3    H238986   3.740   4.281  18.785 -0.1794  1.4120 -0.4212
 4931TIP3   OH238987   4.522   6.513  19.189  0.4615  0.7479 -0.2301
 4931TIP3    H138988   4.524   6.607  19.203 -0.7689  1.1903 -2.4434
 4931TIP3    H238989   4.441   6.484  19.231  0.7416  0.7070  0.2833
 4932TIP3   OH238990   4.961   2.798  19.069  0.0242 -0.6263 -0.5129
 4932TIP3    H138991   5.013   2.765  19.142 -0.0495 -2.0007 -1.0550
 4932TIP3    H238992   5.011   2.872  19.036 -0.3580  0.5612  1.4291
 4933TIP3   OH238993   0.158   6.301  17.620  0.3418  0.7445 -0.7873
 4933TIP3    H138994   0.175   6.337  17.533  0.2768 -1.0880 -1.6018
 4933TIP3    H238995   0.211   6.221  17.624  0.6886  1.0008  1.0421
 4934TIP3   OH238996   1.091   5.029  17.415 -0.2071  0.2372 -0.1423
 4934TIP3    H138997   1.006   5.065  17.392 -0.9687 -2.1876 -1.4911
 4934TIP3    H238998   1.145   5.043  17.337 -0.6335 -1.6538 -0.8577
 4935TIP3   OH238999   2.066   3.470  18.805 -0.3610  0.4218  0.3846
 4935TIP3    H139000   2.046   3.475  18.898 -1.9777  0.8105  0.0466
 4935TIP3    H239001   1.987   3.501  18.761 -0.3487 -1.5251 -1.1773
 4936TIP3   OH239002   1.881   5.518  19.196  0.2523  0.2142  0.0891
 4936TIP3    H139003   1.960   5.468  19.177  0.1023  0.3712 -1.0200
 4936TIP3    H239004   1.907   5.609  19.188 -0.4483  0.2654 -2.2181
 4937TIP3   OH239005   4.160   3.380  19.396 -0.0104 -0.0222  0.1341
 4937TIP3    H139006   4.163   3.287  19.375  1.3756  0.2347 -0.9984
 4937TIP3    H239007   4.210   3.422  19.326 -1.8603  1.7457 -0.2397
 4938TIP3   OH239008   3.324   0.317  18.157  0.4807  0.4138  0.0712
 4938TIP3    H139009   3.290   0.378  18.222  2.3758  2.2275 -0.5157
 4938TIP3    H239010   3.415   0.301  18.183  0.9280  0.2535 -1.4555
 4939TIP3   OH239011   2.220   5.672  19.323  0.2492 -0.2478 -0.6997
 4939TIP3    H139012   2.212   5.746  19.383  0.7907  1.1475 -2.2710
 4939TIP3    H239013   2.135   5.629  19.325  0.2498 -0.2249  1.0027
 4940TIP3   OH239014   6.074   3.834  17.290 -0.0324 -0.4531  0.4475
 4940TIP3    H139015   6.023   3.904  17.329  0.3822  0.0114  0.1684
 4940TIP3    H239016   6.148   3.878  17.249 -0.1510 -0.9781 -0.3605
 4941TIP3   OH239017   1.883   5.575  18.234  0.2491  0.1548 -1.2166
 4941TIP3    H139018   1.830   5.502  18.203  0.3578 -0.6092  0.3094
 4941TIP3    H239019   1.819   5.643  18.257 -0.0408 -0.4505 -0.1752
 4942TIP3   OH239020   1.737   1.850  18.373  0.2733 -0.0886 -0.7106
 4942TIP3    H139021   1.785   1.922  18.415 -0.6741  0.7110 -0.9493
 4942TIP3    H239022   1.770   1.771  18.416  0.3248  0.5933  0.5634
 4943TIP3   OH239023   0.332   4.334  17.100  0.2505 -0.3752  0.0671
 4943TIP3    H139024   0.275   4.277  17.049 -0.4441  0.6244 -0.3199
 4943TIP3    H239025   0.292   4.337  17.187  0.8447 -1.2511  0.3749
 4944TIP3   OH239026   6.010   0.672  17.709  0.2178 -0.4216  0.4153
 4944TIP3    H139027   6.056   0.675  17.625  0.2744  1.7241  0.4647
 4944TIP3    H239028   6.057   0.733  17.765 -1.2477  0.0281  1.2240
 4945TIP3   OH239029   0.698   4.468  17.904  0.7349  0.0903  0.3752
 4945TIP3    H139030   0.675   4.454  17.996  0.3381 -2.5179 -0.0402
 4945TIP3    H239031   0.785   4.431  17.895 -0.0902 -1.7419 -0.7022
 4946TIP3   OH239032   2.567   3.850  17.457  0.0493  0.3841  0.4571
 4946TIP3    H139033   2.657   3.883  17.464 -0.4583  1.6296  1.3605
 4946TIP3    H239034   2.529   3.900  17.385  0.6082 -1.4908 -1.2302
 4947TIP3   OH239035   4.825   5.623  18.439  0.4354  0.1878  0.1521
 4947TIP3    H139036   4.754   5.622  18.375 -0.4467 -0.5887  1.1018
 4947TIP3    H239037   4.782   5.608  18.523  1.4151  2.1733  1.0946
 4948TIP3   OH239038   7.601   2.944  17.560  0.4909  0.6081 -0.7225
 4948TIP3    H139039   7.541   2.879  17.523  0.1923 -0.1125  0.9104
 4948TIP3    H239040   7.544   3.015  17.588  0.4534  0.2802  0.0872
 4949TIP3   OH239041   4.979   2.669  18.803 -0.0908  0.1173  0.5194
 4949TIP3    H139042   4.974   2.729  18.878 -0.3474 -0.9225  1.3578
 4949TIP3    H239043   5.059   2.618  18.819 -1.6770 -2.1601  1.7053
 4950TIP3   OH239044   1.555   4.921  19.257  0.2505 -0.1636  0.4452
 4950TIP3    H139045   1.535   4.857  19.189 -1.5420  0.9128 -0.1014
 4950TIP3    H239046   1.647   4.904  19.280 -0.5686 -4.0393  1.5763
 4951TIP3   OH239047   5.935   6.277  17.800  0.4555  0.2575  0.4912
 4951TIP3    H139048   5.971   6.290  17.712 -0.3766 -0.3397  0.0510
 4951TIP3    H239049   5.866   6.213  17.788  0.1763  0.3473  1.5539
 4952TIP3   OH239050   3.064   4.444  18.376  0.1962 -0.4014  0.0818
 4952TIP3    H139051   3.024   4.447  18.463  0.1781  0.3399  0.0573
 4952TIP3    H239052   3.154   4.475  18.389 -0.2839  1.3505 -0.3943
 4953TIP3   OH239053   7.304   0.592  17.063  0.3961  0.3670 -0.1614
 4953TIP3    H139054   7.242   0.569  16.994 -0.1763  0.0431  0.4539
 4953TIP3    H239055   7.314   0.687  17.056 -1.0542  0.5806  0.4672
 4954TIP3   OH239056   6.905   7.491  17.589  0.5729 -1.0573 -0.0243
 4954TIP3    H139057   6.812   7.475  17.570  0.2784  0.5721 -0.0893
 4954TIP3    H239058   6.937   7.541  17.514  1.0486 -0.1155  0.7774
 4955TIP3   OH239059   4.211   3.835  19.515 -0.1637 -0.0916 -0.6218
 4955TIP3    H139060   4.132   3.796  19.551 -0.2430  0.4302 -0.2308
 4955TIP3    H239061   4.282   3.777  19.544 -0.5732 -1.7047 -2.6406
 4956TIP3   OH239062   7.318   4.508  17.949  0.1855  0.1748  0.4379
 4956TIP3    H139063   7.250   4.528  17.884 -0.4022  2.2673  1.6177
 4956TIP3    H239064   7.375   4.585  17.948 -0.5672  0.8539  3.2762
 4957TIP3   OH239065   6.716   7.567  18.333  0.4644  0.6763  0.2038
 4957TIP3    H139066   6.713   7.560  18.429 -2.0541 -1.6801  0.0902
 4957TIP3    H239067   6.640   7.619  18.310  0.9671  1.0922 -0.5600
 4958TIP3   OH239068   6.804   7.030  16.909 -0.1498 -0.1693 -0.0483
 4958TIP3    H139069   6.824   6.951  16.859 -1.6062 -0.0386 -0.8966
 4958TIP3    H239070   6.888   7.074  16.919  0.2290 -0.2644 -2.2986
 4959TIP3   OH239071   3.045   5.161  19.336 -0.3219  0.0391  0.0716
 4959TIP3    H139072   3.048   5.256  19.353 -1.9503  0.1807 -0.2606
 4959TIP3    H239073   3.066   5.153  19.243  0.7590 -0.0345  0.3048
 4960TIP3   OH239074   6.527   5.706  17.184  0.7026  0.2602  0.6866
 4960TIP3    H139075   6.520   5.782  17.242 -0.0944  2.3229 -1.9185
 4960TIP3    H239076   6.603   5.726  17.129  1.1291 -1.3859  0.6349
 4961TIP3   OH239077   7.221   2.776  17.719 -0.2282  0.0162 -0.6405
 4961TIP3    H139078   7.160   2.778  17.792  0.1675 -1.3234 -0.2485
 4961TIP3    H239079   7.307   2.793  17.758 -0.2914  1.9009 -1.1886
 4962TIP3   OH239080   0.486   5.401  17.868  0.4005  0.3421  0.5909
 4962TIP3    H139081   0.411   5.360  17.825  0.1450 -1.7407  2.7495
 4962TIP3    H239082   0.539   5.326  17.898  1.5341  1.6819  2.0989
 4963TIP3   OH239083   6.505   3.145  18.664 -0.6983  0.1308 -0.3611
 4963TIP3    H139084   6.441   3.215  18.678  0.0895  0.7918 -0.0100
 4963TIP3    H239085   6.557   3.143  18.745  2.2915  2.2917 -2.0208
 4964TIP3   OH239086   5.233   5.747  18.067 -0.3140 -0.0216 -0.1076
 4964TIP3    H139087   5.240   5.672  18.126  2.5355  0.3868  0.2200
 4964TIP3    H239088   5.270   5.715  17.984 -0.1762  0.6717 -0.3192
 4965TIP3   OH239089   1.379   0.464  19.296  0.4577 -0.1507 -0.4406
 4965TIP3    H139090   1.306   0.496  19.349  1.0929  1.5275 -0.5281
 4965TIP3    H239091   1.340   0.446  19.211  0.3247  1.9706 -0.8815
 4966TIP3   OH239092   4.363   3.524  18.738 -0.4725 -0.5779 -0.0311
 4966TIP3    H139093   4.301   3.586  18.777  0.4436 -0.4922  1.3932
 4966TIP3    H239094   4.417   3.578  18.679 -0.6939 -0.3253 -0.0033
 4967TIP3   OH239095   4.164   3.211  17.010  0.2035  0.1241  0.1247
 4967TIP3    H139096   4.208   3.167  16.938 -1.0853  0.2823 -0.8084
 4967TIP3    H239097   4.150   3.300  16.978 -1.7146 -0.2049 -0.0674
 4968TIP3   OH239098   6.925   5.986  18.627 -0.0968  0.3204 -0.1585
 4968TIP3    H139099   6.865   5.917  18.601 -0.5390  1.5849 -2.8764
 4968TIP3    H239100   6.869   6.062  18.643  0.3741  0.1497  2.7881
 4969TIP3   OH239101   5.066   0.397  18.354 -0.0804 -0.3976 -0.1746
 4969TIP3    H139102   5.079   0.377  18.447 -2.1587 -1.2475 -0.0106
 4969TIP3    H239103   5.025   0.319  18.318  1.8174 -0.5800 -2.1580
 4970TIP3   OH239104   0.845   6.574  19.449  0.1392  0.0380  0.0349
 4970TIP3    H139105   0.769   6.628  19.429 -0.3413 -1.0324 -1.1617
 4970TIP3    H239106   0.912   6.636  19.479 -0.4412  1.2672 -1.1548
 4971TIP3   OH239107   0.267   5.581  18.597  0.2721  0.7028  0.3842
 4971TIP3    H139108   0.305   5.525  18.664  0.1631  0.1010 -0.0517
 4971TIP3    H239109   0.338   5.640  18.571  0.6059  0.2717  0.3095
 4972TIP3   OH239110   0.437   6.686  19.445  0.2348  0.1760  0.3842
 4972TIP3    H139111   0.354   6.733  19.436  0.4082  0.2544 -0.9533
 4972TIP3    H239112   0.415   6.596  19.423  0.3842  0.0763  0.6421
 4973TIP3   OH239113   3.130   6.799  19.385 -0.1625 -0.1695 -0.2938
 4973TIP3    H139114   3.212   6.798  19.335  0.2118 -0.3528  0.3182
 4973TIP3    H239115   3.129   6.885  19.427 -1.5142  0.8649 -2.2812
 4974TIP3   OH239116   3.564   5.646  17.112 -0.3043  0.3420  0.5682
 4974TIP3    H139117   3.595   5.569  17.160 -1.0435 -2.3329 -2.8935
 4974TIP3    H239118   3.623   5.654  17.038 -2.1881  1.0197 -0.9480
 4975TIP3   OH239119   0.840   6.876  16.434 -0.4227 -0.4096 -0.0310
 4975TIP3    H139120   0.795   6.794  16.411 -0.2932 -0.1474 -1.3431
 4975TIP3    H239121   0.783   6.944  16.398 -1.9910  0.3168  3.4499
 4976TIP3   OH239122   0.760   3.636  17.763 -1.1259  0.6947  0.6170
 4976TIP3    H139123   0.786   3.724  17.737 -1.5529  1.0338  1.2912
 4976TIP3    H239124   0.666   3.633  17.746 -1.0778  0.3012  0.4153
 4977TIP3   OH239125   0.506   1.022  18.499  0.7122  0.1502  0.3427
 4977TIP3    H139126   0.449   0.982  18.433  1.4263 -0.8709  0.3278
 4977TIP3    H239127   0.582   1.052  18.450  0.6509  0.5970  0.5144
 4978TIP3   OH239128   5.947   1.938  19.122 -0.0148 -0.2819  0.2723
 4978TIP3    H139129   6.010   1.999  19.084 -0.3410  0.3732  0.7639
 4978TIP3    H239130   5.990   1.903  19.200 -0.1047 -0.1384  0.3861
 4979TIP3   OH239131   0.600   4.726  18.428  0.2266 -0.0850  0.2012
 4979TIP3    H139132   0.654   4.788  18.476  1.2517 -0.1166 -0.8750
 4979TIP3    H239133   0.608   4.644  18.477  3.3010 -0.8037 -1.3180
 4980TIP3   OH239134   1.629   7.010  19.097 -0.1997  0.2615 -0.2020
 4980TIP3    H139135   1.703   6.956  19.070 -0.5089  0.2499 -1.0631
 4980TIP3    H239136   1.594   6.966  19.174 -0.2849 -0.6299 -0.7306
 4981TIP3   OH239137   3.646   2.129  18.261 -0.0276  0.0203 -0.3548
 4981TIP3    H139138   3.657   2.074  18.183 -0.5583  0.5425 -0.8091
 4981TIP3    H239139   3.731   2.126  18.304  0.2380 -0.3761 -0.8868
 4982TIP3   OH239140   0.753   3.368  18.731 -0.1273 -0.1271 -0.4943
 4982TIP3    H139141   0.721   3.344  18.817 -1.6922  0.3806 -0.9040
 4982TIP3    H239142   0.817   3.437  18.747 -0.9634  0.4968  0.2185
 4983TIP3   OH239143   1.667   6.022  17.768 -0.0007 -0.0791  0.4620
 4983TIP3    H139144   1.751   6.010  17.723  0.0636 -0.0869  0.5832
 4983TIP3    H239145   1.625   6.095  17.722 -0.4147 -0.7901 -0.3106
 4984TIP3   OH239146   6.267   4.646  18.755  0.3106  0.2605 -0.6896
 4984TIP3    H139147   6.257   4.643  18.850  0.1572 -0.5306 -0.7219
 4984TIP3    H239148   6.314   4.728  18.738  0.3244  0.4156  0.0605
 4985TIP3   OH239149   3.360   1.209  18.716  0.1122 -0.0969 -0.1065
 4985TIP3    H139150   3.318   1.145  18.658  0.4725 -1.5271  1.1321
 4985TIP3    H239151   3.299   1.282  18.720 -1.2561 -1.1923 -0.0549
 4986TIP3   OH239152   7.309   3.764  18.168  0.2027  0.0700 -0.0864
 4986TIP3    H139153   7.381   3.738  18.110  0.6670  1.5068 -0.1889
 4986TIP3    H239154   7.309   3.698  18.237  0.4026 -0.9985 -1.0782
 4987TIP3   OH239155   6.564   7.587  18.016  0.3337 -0.0277  0.0270
 4987TIP3    H139156   6.502   7.660  18.018 -1.1224 -1.2218  1.4140
 4987TIP3    H239157   6.632   7.615  17.955 -0.3684  2.3120  0.2072
 4988TIP3   OH239158   0.203   1.654  18.322  0.5803 -0.2004 -0.0868
 4988TIP3    H139159   0.127   1.595  18.322  1.8378 -1.9610  1.9939
 4988TIP3    H239160   0.200   1.695  18.236 -1.6276 -1.6586 -0.8230
 4989TIP3   OH239161   0.555   3.092  18.811  0.1959  0.2125 -0.4621
 4989TIP3    H139162   0.466   3.079  18.844 -0.3829  2.1986 -1.1231
 4989TIP3    H239163   0.590   3.003  18.802 -0.2501 -0.5713  3.5147
 4990TIP3   OH239164   0.224   6.619  18.908  0.2048  0.2163 -0.2254
 4990TIP3    H139165   0.130   6.599  18.906  0.4590 -1.5711  2.0100
 4990TIP3    H239166   0.265   6.542  18.869  0.8883 -1.0118  2.6974
 4991TIP3   OH239167   6.811   7.128  19.276 -0.6995  0.1417  0.1484
 4991TIP3    H139168   6.717   7.145  19.272 -0.8303 -0.8299 -2.1061
 4991TIP3    H239169   6.819   7.050  19.330 -1.3660 -0.7590 -1.0258
 4992TIP3   OH239170   3.753   7.034  16.711  0.4096 -0.0722 -0.0791
 4992TIP3    H139171   3.781   7.089  16.785 -0.5008 -0.7444  0.7923
 4992TIP3    H239172   3.807   6.955  16.718  0.1910 -0.2160 -0.0162
 4993TIP3   OH239173   2.087   6.327  17.254 -0.2579  0.4160  0.5223
 4993TIP3    H139174   2.020   6.337  17.186  0.2002  1.9923  0.2432
 4993TIP3    H239175   2.081   6.236  17.281 -1.3792  0.1035 -0.6753
 4994TIP3   OH239176   3.280   5.296  18.176  0.0622 -0.0461  0.1520
 4994TIP3    H139177   3.239   5.238  18.241  0.1400  0.3934  0.6024
 4994TIP3    H239178   3.329   5.359  18.229 -0.4424  0.7487 -0.3147
 4995TIP3   OH239179   5.438   1.916  19.431  0.6285 -0.1068 -0.5001
 4995TIP3    H139180   5.496   1.991  19.415  1.8289 -1.2826 -1.9966
 4995TIP3    H239181   5.496   1.840  19.429 -0.8747 -1.2849 -1.4652
 4996TIP3   OH239182   3.979   2.019  17.863 -0.5985  0.5890  0.5490
 4996TIP3    H139183   4.058   2.013  17.917 -0.1880 -0.2077 -0.1104
 4996TIP3    H239184   4.010   2.053  17.779 -0.9637  0.3121  0.2983
 4997TIP3   OH239185   4.638   2.967  17.263  0.2849  0.4215 -0.2766
 4997TIP3    H139186   4.648   2.874  17.243  1.6217  0.8784 -1.9730
 4997TIP3    H239187   4.695   2.981  17.339 -0.7887 -0.3209  0.7111
 4998TIP3   OH239188   5.048   3.261  18.378  0.0001  0.2084 -0.2580
 4998TIP3    H139189   5.103   3.243  18.454 -0.6773 -1.2728 -0.0865
 4998TIP3    H239190   5.060   3.354  18.361  3.4189 -0.2526 -0.9463
 4999TIP3   OH239191   3.979   6.398  16.785 -0.1331  0.3115  0.0971
 4999TIP3    H139192   4.006   6.325  16.729  1.6435  0.8272  0.2273
 4999TIP3    H239193   3.982   6.475  16.728  0.4728  0.6463  0.5566
 5000TIP3   OH239194   1.726   6.408  17.628 -0.0218 -0.0666  0.5625
 5000TIP3    H139195   1.804   6.419  17.682 -0.5049 -0.4525  1.3520
 5000TIP3    H239196   1.685   6.495  17.627  0.6704  0.2614 -0.2684
 5001TIP3   OH239197   3.232   3.665  17.029  0.2099  0.0977 -0.8621
 5001TIP3    H139198   3.205   3.722  17.101 -2.4823 -2.1149  0.0540
 5001TIP3    H239199   3.247   3.724  16.956 -1.4777  2.0818  0.2887
 5002TIP3   OH239200   7.580   4.452  19.482 -0.5165  0.6448 -0.0428
 5002TIP3    H139201   7.665   4.437  19.442 -0.5383 -0.9262  0.4338
 5002TIP3    H239202   7.557   4.542  19.458  1.2350  1.0687 -0.2251
 5003TIP3   OH239203   3.019   5.476  17.258  0.0364 -0.1465 -0.2210
 5003TIP3    H139204   2.967   5.526  17.195 -0.0555  0.1717  0.1092
 5003TIP3    H239205   2.986   5.386  17.249 -0.7688  0.1029  0.1915
 5004TIP3   OH239206   6.800   0.502  19.215  0.2022 -0.4389 -0.2512
 5004TIP3    H139207   6.864   0.571  19.233  0.1357 -0.4409  0.0002
 5004TIP3    H239208   6.808   0.443  19.289  0.4350 -0.8357 -0.5924
 5005TIP3   OH239209   1.348   7.198  18.796 -0.0140 -0.2322  0.1588
 5005TIP3    H139210   1.439   7.168  18.800 -0.7107 -2.6326 -0.7158
 5005TIP3    H239211   1.347   7.256  18.720  0.7711 -0.2009  0.1551
 5006TIP3   OH239212   2.131   6.723  18.015  0.4356  0.5826 -0.0186
 5006TIP3    H139213   2.216   6.697  18.049 -0.5201 -1.7359  0.7916
 5006TIP3    H239214   2.139   6.712  17.920  2.2258  4.3856 -0.5079
 5007TIP3   OH239215   5.193   3.479  17.856 -0.6837 -0.3191  0.0883
 5007TIP3    H139216   5.215   3.476  17.949  0.6420  0.0103 -0.1906
 5007TIP3    H239217   5.115   3.534  17.851  0.0402  0.8283  0.8776
 5008TIP3   OH239218   5.352   2.746  19.143  0.1958  0.1082  0.1403
 5008TIP3    H139219   5.380   2.823  19.192 -1.9033  0.9754  0.0834
 5008TIP3    H239220   5.406   2.746  19.064  0.8032  1.0325  0.5503
 5009TIP3   OH239221   7.293   7.622  16.936  0.4483 -0.1664  0.0650
 5009TIP3    H139222   7.262   7.612  16.846  3.4299 -0.5305 -1.0438
 5009TIP3    H239223   7.369   7.681  16.929  0.6513 -0.0519  2.3873
 5010TIP3   OH239224   0.304   1.119  19.181  0.3724  0.3108  0.4785
 5010TIP3    H139225   0.318   1.085  19.092 -2.5493 -1.5542  0.5861
 5010TIP3    H239226   0.297   1.040  19.235 -3.0180  1.0728  1.4037
 5011TIP3   OH239227   4.525   6.698  17.098 -0.3234  0.2055  0.1367
 5011TIP3    H139228   4.438   6.702  17.138 -0.8175  3.0603 -0.9584
 5011TIP3    H239229   4.515   6.745  17.015  1.5803 -2.1079 -1.5189
 5012TIP3   OH239230   4.715   6.450  18.128 -0.6951  0.0185  0.2945
 5012TIP3    H139231   4.724   6.400  18.209 -0.0583 -0.5124 -0.0990
 5012TIP3    H239232   4.802   6.447  18.088 -0.5164  1.8203  0.4713
 5013TIP3   OH239233   0.954   6.883  18.833 -0.0385 -0.6764  0.7067
 5013TIP3    H139234   0.876   6.862  18.885 -0.1300 -1.3019  0.3351
 5013TIP3    H239235   1.009   6.805  18.840 -0.1391 -0.8479 -0.2809
 5014TIP3   OH239236   1.195   3.409  18.689 -0.0692 -0.4892  0.3240
 5014TIP3    H139237   1.113   3.380  18.727 -0.6114 -0.1423 -0.5399
 5014TIP3    H239238   1.251   3.430  18.764 -0.8952 -0.3765  0.9204
 5015TIP3   OH239239   3.700   0.652  17.190 -0.5435  0.3546  0.1881
 5015TIP3    H139240   3.710   0.703  17.110  3.4283  1.8523  1.3983
 5015TIP3    H239241   3.662   0.713  17.253  1.7744  1.1326  0.9224
 5016TIP3   OH239242   4.400   5.225  18.351  0.2130  0.5130  0.4261
 5016TIP3    H139243   4.432   5.172  18.279 -0.5603  1.1679 -0.4243
 5016TIP3    H239244   4.402   5.315  18.318  0.1047  0.8580  1.3123
 5017TIP3   OH239245   4.345   7.447  17.105  0.3182 -0.6423  0.5825
 5017TIP3    H139246   4.412   7.380  17.121  1.4451  0.8041  2.3678
 5017TIP3    H239247   4.391   7.518  17.061 -0.2586 -0.0175  0.9631
 5018TIP3   OH239248   2.653   3.441  18.944  0.2472  0.3942 -0.4308
 5018TIP3    H139249   2.687   3.492  18.871  1.1153 -0.3426 -0.5636
 5018TIP3    H239250   2.567   3.411  18.915  1.6061 -2.1076 -2.3147
 5019TIP3   OH239251   1.133   0.601  18.509 -0.2043  0.3759 -0.3798
 5019TIP3    H139252   1.191   0.529  18.484 -1.4852 -0.3658 -1.2747
 5019TIP3    H239253   1.190   0.678  18.507  1.0108 -0.4739 -0.1419
 5020TIP3   OH239254   1.780   5.192  17.056  0.1120 -0.4784  0.1749
 5020TIP3    H139255   1.763   5.257  17.125  0.5877 -1.1630  0.9729
 5020TIP3    H239256   1.708   5.129  17.063 -0.6020  0.2038 -0.9110
 5021TIP3   OH239257   7.512   5.007  17.485  0.0305 -0.0481 -0.5189
 5021TIP3    H139258   7.427   5.044  17.460  0.8808  2.1189 -0.4268
 5021TIP3    H239259   7.567   5.019  17.407  0.7112  0.1544 -0.0146
 5022TIP3   OH239260   2.285   3.496  18.626  0.7450  0.2982  0.1444
 5022TIP3    H139261   2.289   3.591  18.623  3.1272  0.2721  0.8516
 5022TIP3    H239262   2.216   3.476  18.689 -1.2264  1.4774 -1.5377
 5023TIP3   OH239263   4.628   0.003  19.469 -0.0182 -0.3065  0.4159
 5023TIP3    H139264   4.683   0.077  19.445 -0.7735  1.0247  2.5379
 5023TIP3    H239265   4.687  -0.072  19.470  0.8492  0.3057 -1.3568
 5024TIP3   OH239266   6.781   6.829  19.122  0.1520  0.8990 -0.2833
 5024TIP3    H139267   6.790   6.803  19.031 -1.3028 -1.1896  0.0990
 5024TIP3    H239268   6.871   6.828  19.156  0.4369 -1.4086 -0.9528
 5025TIP3   OH239269   0.014   3.241  18.407  0.4008  0.2489 -0.5630
 5025TIP3    H139270  -0.039   3.287  18.472 -1.1335  0.6134 -1.9957
 5025TIP3    H239271   0.024   3.153  18.442 -0.9053  0.2688 -0.0932
 5026TIP3   OH239272   5.077   6.497  16.848 -0.0754  0.5615  0.0048
 5026TIP3    H139273   5.068   6.568  16.785 -0.7916  0.2383 -0.2685
 5026TIP3    H239274   5.076   6.541  16.934  1.4422  1.0491 -0.1992
 5027TIP3   OH239275   7.629   0.075  18.462 -0.1720 -0.2409 -0.0241
 5027TIP3    H139276   7.588   0.144  18.513  0.2683  0.5006 -0.6567
 5027TIP3    H239277   7.719   0.072  18.495 -0.4704 -1.2900  0.7733
 5028TIP3   OH239278   7.160   4.084  19.280  0.1298 -0.1551 -0.0517
 5028TIP3    H139279   7.227   4.121  19.337 -0.0287 -0.8229  0.5831
 5028TIP3    H239280   7.209   4.044  19.208  0.3913 -0.2476  0.1778
 5029TIP3   OH239281   6.256   1.909  17.763  0.1404  0.0011  0.0334
 5029TIP3    H139282   6.339   1.932  17.805  1.6156 -0.1410 -2.5668
 5029TIP3    H239283   6.217   1.993  17.741 -0.0950  0.0666  0.6970
 5030TIP3   OH239284   3.404   5.110  17.275 -0.6391 -0.6004 -0.1092
 5030TIP3    H139285   3.417   5.099  17.181  0.3643 -0.8934  0.0449
 5030TIP3    H239286   3.320   5.155  17.283 -0.5628 -0.2370 -1.1589
 5031TIP3   OH239287   7.568   1.720  16.755 -0.0730 -0.2138  0.1689
 5031TIP3    H139288   7.654   1.761  16.741 -0.8642  2.0616  1.3933
 5031TIP3    H239289   7.582   1.659  16.827  0.4931  0.2185  0.4329
 5032TIP3   OH239290   0.442   1.644  17.001  0.2133  0.2359  0.7259
 5032TIP3    H139291   0.393   1.624  16.922  2.8772  0.3854 -1.1148
 5032TIP3    H239292   0.443   1.740  17.004  0.8747  0.2457  0.3895
 5033TIP3   OH239293   6.217   4.587  17.202  0.0195  0.2124  0.1984
 5033TIP3    H139294   6.277   4.616  17.133  0.6984  0.9644  1.0827
 5033TIP3    H239295   6.184   4.668  17.241 -0.7699 -0.2050  0.4165
 5034TIP3   OH239296   3.167   7.037  18.408  0.6836  0.1834  0.3653
 5034TIP3    H139297   3.094   7.099  18.401  0.9120  0.6018  1.3939
 5034TIP3    H239298   3.139   6.961  18.358 -0.7478  0.0796  1.2357
 5035TIP3   OH239299   7.225   7.528  19.257 -0.2088  0.2828  0.0364
 5035TIP3    H139300   7.142   7.481  19.257 -1.7309  2.6878 -2.3322
 5035TIP3    H239301   7.209   7.606  19.310  0.6841  0.5669 -0.0801
 5036TIP3   OH239302   3.094   6.790  17.500 -0.3828 -0.2646  0.1386
 5036TIP3    H139303   3.077   6.836  17.417  0.3477  0.4722  0.3800
 5036TIP3    H239304   3.010   6.752  17.524 -1.4989  2.4188  0.8180
 5037TIP3   OH239305   2.873   6.033  18.779 -0.0525 -0.2595 -0.5509
 5037TIP3    H139306   2.901   5.951  18.819  0.6170 -0.2060 -0.8997
 5037TIP3    H239307   2.863   6.012  18.686  0.2026  0.0706 -0.6550
 5038TIP3   OH239308   0.339   2.919  18.663 -0.0913  0.1328  0.3206
 5038TIP3    H139309   0.343   2.899  18.569  1.1307  0.9756  0.1605
 5038TIP3    H239310   0.304   2.840  18.703  1.2386 -0.9791 -0.6345
 5039TIP3   OH239311   5.806   3.945  18.829  0.2529 -0.3964 -0.7543
 5039TIP3    H139312   5.894   3.906  18.823  0.0060 -1.2290  0.4789
 5039TIP3    H239313   5.752   3.892  18.770  0.7390  0.6949 -2.2269
 5040TIP3   OH239314   4.002   3.549  17.413 -0.1363 -0.2548  0.4022
 5040TIP3    H139315   3.982   3.613  17.482  0.5547  0.0996  0.2750
 5040TIP3    H239316   3.916   3.519  17.384 -0.5049  1.0078  0.1012
 5041TIP3   OH239317   3.677   2.844  19.116  0.0410  0.3570  0.2291
 5041TIP3    H139318   3.680   2.920  19.174  1.1071  3.4039 -3.4921
 5041TIP3    H239319   3.594   2.854  19.069  0.2673 -0.7597 -0.4289
 5042TIP3   OH239320   5.635   4.858  18.898 -0.2604 -0.8012 -0.3843
 5042TIP3    H139321   5.629   4.808  18.979  1.4707 -1.0490 -0.3760
 5042TIP3    H239322   5.656   4.792  18.831  0.7330 -0.2954 -0.5927
 5043TIP3   OH239323   3.765   3.043  17.277 -0.1115 -0.8031  0.1599
 5043TIP3    H139324   3.826   3.111  17.248 -0.8092 -0.4425 -0.5152
 5043TIP3    H239325   3.767   2.978  17.207  0.4037 -1.3863  0.7132
 5044TIP3   OH239326   7.576   1.577  17.646  0.2427  0.3756 -0.7961
 5044TIP3    H139327   7.666   1.564  17.616  0.3470  0.3984 -0.4989
 5044TIP3    H239328   7.522   1.554  17.571  0.4616 -0.6583 -0.6610
 5045TIP3   OH239329   0.965   5.283  18.847  0.3861  0.5546 -0.0086
 5045TIP3    H139330   0.977   5.334  18.927  2.0287  2.8699 -1.6112
 5045TIP3    H239331   1.053   5.270  18.813 -0.2244 -0.9544 -1.1404
 5046TIP3   OH239332   6.203   7.093  19.119  0.3947  0.3455  0.2160
 5046TIP3    H139333   6.274   7.119  19.060  1.8978 -2.4039  0.6697
 5046TIP3    H239334   6.235   7.015  19.164 -2.7598 -0.8002  0.7847
 5047TIP3   OH239335   3.400   4.076  19.093  0.4700  0.0348 -0.0750
 5047TIP3    H139336   3.332   4.020  19.130  1.1846 -0.7838  0.0203
 5047TIP3    H239337   3.367   4.165  19.107  1.0390 -0.1619  3.2728
 5048TIP3   OH239338   1.193   2.851  17.368  0.1008 -0.0269 -0.3146
 5048TIP3    H139339   1.140   2.859  17.289 -0.9076 -1.2777  0.1928
 5048TIP3    H239340   1.168   2.766  17.405  3.1538 -1.1383 -0.5287
 5049TIP3   OH239341   1.149   3.106  19.039 -0.3924  0.1158 -0.1732
 5049TIP3    H139342   1.234   3.082  19.001 -1.8592 -0.4512 -3.4063
 5049TIP3    H239343   1.171   3.166  19.111  2.9268 -3.2788  2.0381
 5050TIP3   OH239344   6.526   0.815  17.582 -0.2431  0.0679 -0.1793
 5050TIP3    H139345   6.577   0.873  17.526 -1.3735 -0.0549 -1.3935
 5050TIP3    H239346   6.589   0.748  17.610  0.0896 -0.7067 -2.5264
 5051TIP3   OH239347   5.641   3.039  17.417  0.6154 -0.2975  0.5835
 5051TIP3    H139348   5.696   3.065  17.491  0.3417 -2.5713  1.6959
 5051TIP3    H239349   5.696   2.978  17.367 -0.1607 -0.9829  0.5428
 5052TIP3   OH239350   5.955   1.438  18.866  0.0823  0.0532 -0.1871
 5052TIP3    H139351   5.886   1.425  18.932  0.1815  2.0953  0.4026
 5052TIP3    H239352   5.941   1.528  18.836  2.0751  0.2638 -0.5625
 5053TIP3   OH239353   1.210   1.982  18.866 -0.0718 -0.2072 -0.2421
 5053TIP3    H139354   1.131   1.978  18.920 -1.4560  1.5716 -1.9383
 5053TIP3    H239355   1.188   1.930  18.788  0.7448 -0.3538 -0.3782
 5054TIP3   OH239356   0.532   6.139  17.414  0.2438  0.8248  0.0881
 5054TIP3    H139357   0.601   6.143  17.348 -0.8339 -1.8908 -1.3329
 5054TIP3    H239358   0.451   6.151  17.365 -0.6342 -2.0725  0.6942
 5055TIP3   OH239359   6.551   6.380  18.948  0.0892 -0.0313  0.4745
 5055TIP3    H139360   6.614   6.308  18.937  0.4371  0.1763  1.0536
 5055TIP3    H239361   6.590   6.435  19.017  0.1762  1.0771 -0.4199
 5056TIP3   OH239362   5.787   6.495  17.377 -0.2953  0.0767 -0.0518
 5056TIP3    H139363   5.770   6.567  17.438  1.0540  0.6677 -0.3377
 5056TIP3    H239364   5.797   6.538  17.292  0.7285 -0.4173 -0.1948
 5057TIP3   OH239365   2.463   1.494  18.441 -0.3868  0.7266 -0.3989
 5057TIP3    H139366   2.543   1.441  18.440 -0.6210  0.3008  1.0047
 5057TIP3    H239367   2.408   1.455  18.373 -0.7283 -1.1894  0.8771
 5058TIP3   OH239368   5.383   3.642  17.739  0.3619 -0.2110  0.6577
 5058TIP3    H139369   5.376   3.582  17.814  1.9501  0.7779  1.6555
 5058TIP3    H239370   5.293   3.651  17.707 -0.3120 -0.9215  2.2502
 5059TIP3   OH239371   6.090   7.436  19.131 -0.4252  0.0620 -0.2962
 5059TIP3    H139372   6.047   7.361  19.172 -1.0541  0.8413  0.5096
 5059TIP3    H239373   6.025   7.469  19.068 -0.4969  0.4441 -0.0275
 5060TIP3   OH239374   5.038   4.335  18.542  0.0930  0.0649 -0.2008
 5060TIP3    H139375   4.978   4.383  18.599  0.6377 -0.2028  0.6178
 5060TIP3    H239376   5.033   4.244  18.573  2.6588  0.3868  1.5309
 5061TIP3   OH239377   6.943   2.792  19.562 -0.2664 -0.3407 -0.0725
 5061TIP3    H139378   6.946   2.727  19.633 -1.0177 -0.2033  0.0899
 5061TIP3    H239379   7.027   2.783  19.518 -0.3570 -1.4301 -0.0464
 5062TIP3   OH239380   2.173   6.441  18.455  0.5564  0.1065  0.6334
 5062TIP3    H139381   2.122   6.431  18.374 -1.5148  2.1735  1.5445
 5062TIP3    H239382   2.228   6.517  18.439  2.4786 -1.3193  0.1492
 5063TIP3   OH239383   5.658   3.062  16.818  0.1197  0.4541  0.3002
 5063TIP3    H139384   5.641   3.069  16.912 -1.7734 -0.0275  0.0410
 5063TIP3    H239385   5.656   2.968  16.800  2.6235  0.3890  0.0861
 5064TIP3   OH239386   0.857   6.269  17.504  0.0344  0.0502 -0.4413
 5064TIP3    H139387   0.790   6.322  17.460  1.1060  1.1234 -0.8133
 5064TIP3    H239388   0.924   6.254  17.438  0.0285 -1.3037 -0.1683
 5065TIP3   OH239389   7.653   0.745  17.127 -0.1571 -0.4819  0.3023
 5065TIP3    H139390   7.735   0.695  17.130  0.6805  0.8740  1.8910
 5065TIP3    H239391   7.676   0.825  17.080 -0.5395 -0.0448  0.8600
 5066TIP3   OH239392   0.727   7.050  17.333  0.3659 -0.5560 -0.9560
 5066TIP3    H139393   0.702   6.968  17.375 -0.1611  0.5191  0.9001
 5066TIP3    H239394   0.799   7.083  17.385 -0.6759  1.0932 -0.4809
 5067TIP3   OH239395   3.830   6.344  17.012 -0.5249  0.0185 -0.5507
 5067TIP3    H139396   3.859   6.391  16.934  1.2132 -1.0189 -0.5798
 5067TIP3    H239397   3.838   6.252  16.989 -1.9438 -0.3173  0.1874
 5068TIP3   OH239398   1.688   4.600  17.258 -0.4831  0.4125 -0.1891
 5068TIP3    H139399   1.694   4.509  17.228 -0.7854  0.3340 -0.0096
 5068TIP3    H239400   1.620   4.639  17.202 -0.8058  0.3575  0.1638
 5069TIP3   OH239401   5.333   4.517  17.955  0.1566 -0.6887  0.1648
 5069TIP3    H139402   5.272   4.506  18.028 -2.1640 -0.5766 -1.6190
 5069TIP3    H239403   5.277   4.519  17.878  2.5142 -1.1463 -1.6838
 5070TIP3   OH239404   4.224   5.508  17.657  0.9888 -0.3526 -0.0630
 5070TIP3    H139405   4.192   5.418  17.650  0.0187  0.0853 -2.1300
 5070TIP3    H239406   4.195   5.538  17.743  1.4391 -2.0378  0.7111
 5071TIP3   OH239407   3.910   6.896  19.645  0.0073  0.4343 -0.4242
 5071TIP3    H139408   3.893   6.925  19.555 -0.1119  0.1492 -0.4942
 5071TIP3    H239409   3.850   6.823  19.659 -0.3643  0.8317  0.0829
 5072TIP3   OH239410   5.472   0.058  19.147  0.2915  0.0553  0.6881
 5072TIP3    H139411   5.552   0.056  19.095  0.7483  0.9352  1.3212
 5072TIP3    H239412   5.431  -0.026  19.131 -0.1487  0.6704 -1.9405
 5073TIP3   OH239413   2.154   1.913  17.921 -0.1226 -0.3200 -0.1190
 5073TIP3    H139414   2.114   1.908  18.008 -0.0254  2.1589  0.1209
 5073TIP3    H239415   2.244   1.940  17.938  0.0657 -0.3886 -0.9712
 5074TIP3   OH239416   1.034   4.714  17.262  0.1527 -0.5005  0.2674
 5074TIP3    H139417   1.013   4.650  17.195 -0.3467 -2.7734  2.4212
 5074TIP3    H239418   0.949   4.745  17.293  0.3790  0.6562 -0.2082
 5075TIP3   OH239419   0.629   6.540  18.675 -0.6239 -0.5726 -0.1961
 5075TIP3    H139420   0.650   6.479  18.605 -0.0215  0.8787 -1.3500
 5075TIP3    H239421   0.713   6.579  18.699 -0.8962 -0.6857  1.0062
 5076TIP3   OH239422   6.296   0.594  18.475 -0.5195 -0.5170  0.4405
 5076TIP3    H139423   6.281   0.654  18.401  3.6847  0.3921  0.0659
 5076TIP3    H239424   6.273   0.508  18.440 -0.3792  0.1125 -1.3494
 5077TIP3   OH239425   4.971   6.688  17.582  0.0613  0.5683  0.4364
 5077TIP3    H139426   4.939   6.743  17.510  0.7290  1.3474  0.7115
 5077TIP3    H239427   4.894   6.673  17.636 -0.0670  1.6129  0.5789
 5078TIP3   OH239428   6.631   3.844  19.845 -0.2928 -0.0577  0.2732
 5078TIP3    H139429   6.587   3.789  19.781  0.1431  0.1110 -0.1823
 5078TIP3    H239430   6.646   3.787  19.920  2.0856 -1.2617 -0.9755
 5079TIP3   OH239431   2.124   1.196  17.184  0.1298  0.2355  0.0312
 5079TIP3    H139432   2.049   1.158  17.230  0.0904 -0.3737 -0.5252
 5079TIP3    H239433   2.171   1.121  17.149  0.1272  0.6873 -0.9609
 5080TIP3   OH239434   0.089   0.979  17.041  0.0642 -0.2093  0.1838
 5080TIP3    H139435   0.061   1.065  17.074  0.0039 -0.1121 -0.1183
 5080TIP3    H239436   0.174   0.996  17.000 -0.5619 -0.0276 -1.0749
 5081TIP3   OH239437   4.063   0.438  19.102  0.5947 -0.6155  0.1454
 5081TIP3    H139438   3.991   0.495  19.075 -1.1639 -1.0864  3.2528
 5081TIP3    H239439   4.073   0.457  19.196  3.7868 -1.4525  0.0785
 5082TIP3   OH239440   0.598   2.595  18.035  0.3424 -0.1839 -0.1900
 5082TIP3    H139441   0.686   2.565  18.058  1.0219 -0.6716 -3.0982
 5082TIP3    H239442   0.601   2.690  18.048  1.6213 -0.0766 -1.1061
 5083TIP3   OH239443   1.422   3.129  18.942  0.8647  0.2289 -0.6289
 5083TIP3    H139444   1.478   3.149  18.867  1.4380  2.5001  0.3153
 5083TIP3    H239445   1.448   3.192  19.009 -2.0207  0.6475  0.2485
 5084TIP3   OH239446   5.704   6.072  17.844 -0.1934  0.2813  0.6476
 5084TIP3    H139447   5.642   6.130  17.799 -0.9327 -1.2334 -0.3593
 5084TIP3    H239448   5.650   6.023  17.907  0.1004 -0.5472  0.2626
 5085TIP3   OH239449   3.752   4.607  19.106  0.0299 -0.6256 -0.5408
 5085TIP3    H139450   3.825   4.669  19.104  0.6215 -1.2555  0.4455
 5085TIP3    H239451   3.676   4.660  19.131  0.1285  0.0443 -1.6079
 5086TIP3   OH239452   3.449   1.061  19.102 -0.4228 -0.2691 -0.4379
 5086TIP3    H139453   3.505   0.996  19.144  0.2526  0.2067 -0.5924
 5086TIP3    H239454   3.399   1.100  19.174  0.1141 -0.0522 -0.1772
 5087TIP3   OH239455   4.814   2.518  18.674  0.2915 -0.4042  0.7932
 5087TIP3    H139456   4.848   2.572  18.745  1.3460 -2.4965  1.9544
 5087TIP3    H239457   4.887   2.510  18.613  0.3292 -0.9475  0.9050
 5088TIP3   OH239458   5.042   6.029  19.695 -0.3648 -0.2858 -0.8882
 5088TIP3    H139459   5.007   5.948  19.658 -2.1473  0.4475 -0.8845
 5088TIP3    H239460   5.039   6.016  19.790 -0.8357 -0.1328 -0.8844
 5089TIP3   OH239461   7.559   4.256  18.634  0.3128 -0.6576  0.2665
 5089TIP3    H139462   7.571   4.274  18.728 -1.3186 -0.7746  0.5305
 5089TIP3    H239463   7.471   4.221  18.628  0.5842 -1.1291 -1.2741
 5090TIP3   OH239464   1.614   0.045  18.674  0.2708 -0.1116 -0.2709
 5090TIP3    H139465   1.613   0.002  18.589 -2.0687 -0.3231 -0.2220
 5090TIP3    H239466   1.562   0.125  18.660  0.9478  0.5012  0.6514
 5091TIP3   OH239467   7.478   7.192  17.159 -0.2737 -0.5783 -0.1785
 5091TIP3    H139468   7.384   7.187  17.143 -0.1455 -0.2581 -1.1242
 5091TIP3    H239469   7.487   7.239  17.242 -0.9139  0.8507 -0.8971
 5092TIP3   OH239470   4.026   7.344  19.216 -0.6659 -0.4409 -0.4638
 5092TIP3    H139471   4.046   7.414  19.277 -1.3223  0.2168 -0.9902
 5092TIP3    H239472   3.947   7.303  19.251  0.3106 -1.6624  0.4447
 5093TIP3   OH239473   2.670   5.805  17.279 -0.0848  0.2042 -0.4107
 5093TIP3    H139474   2.682   5.761  17.363  0.5577  0.6885 -0.2420
 5093TIP3    H239475   2.662   5.898  17.301 -2.8819  0.0878 -0.6345
 5094TIP3   OH239476   6.697   4.936  19.125 -0.2052  0.5140  0.1594
 5094TIP3    H139477   6.632   4.921  19.056  0.7949  1.3418 -1.0182
 5094TIP3    H239478   6.655   4.904  19.205 -2.2460  1.4775 -0.4522
 5095TIP3   OH239479   5.256   6.138  19.536 -0.2872  0.2427 -0.8177
 5095TIP3    H139480   5.320   6.179  19.594 -0.2942  0.7441 -1.1620
 5095TIP3    H239481   5.180   6.122  19.592  0.1595 -0.4472 -0.3782
 5096TIP3   OH239482   6.825   1.008  17.722  0.3457  0.5710  0.0054
 5096TIP3    H139483   6.901   1.048  17.766  0.0795  2.9410 -1.4856
 5096TIP3    H239484   6.789   0.948  17.787  1.8902  1.4193  1.7707
 5097TIP3   OH239485   0.435   1.956  18.925 -0.2631 -0.1522 -0.7649
 5097TIP3    H139486   0.492   1.951  18.849 -0.0586 -1.1933 -0.5585
 5097TIP3    H239487   0.491   1.989  18.996  0.1333 -1.2983 -0.5296
 5098TIP3   OH239488   0.638   6.815  17.442  0.0670 -0.1624 -0.1458
 5098TIP3    H139489   0.628   6.776  17.355  0.7661 -0.2617 -0.1841
 5098TIP3    H239490   0.632   6.741  17.502  1.3068 -0.3332 -0.2138
 5099TIP3   OH239491   5.392   3.779  18.054 -0.5914 -0.1978  0.0612
 5099TIP3    H139492   5.404   3.780  17.959 -0.3561 -1.2831  0.0596
 5099TIP3    H239493   5.467   3.828  18.088  0.5623 -1.6576 -0.2396
 5100TIP3   OH239494   4.680   2.023  18.763  0.4406 -0.3028 -0.1690
 5100TIP3    H139495   4.742   2.016  18.691 -0.6483  0.4625 -1.2272
 5100TIP3    H239496   4.626   1.944  18.757  2.3817 -1.9094  1.8806
 5101TIP3   OH239497   7.142   5.307  18.224  0.3245  0.1106  0.4216
 5101TIP3    H139498   7.107   5.242  18.163 -0.6767  0.3665  0.6980
 5101TIP3    H239499   7.222   5.339  18.182  1.2500 -1.8105  0.6298
 5102TIP3   OH239500   3.747   1.773  18.898  0.6185 -0.4192  0.5778
 5102TIP3    H139501   3.753   1.683  18.866 -2.4079 -0.5922  0.1577
 5102TIP3    H239502   3.791   1.825  18.832 -0.1394 -1.3606 -0.7096
 5103TIP3   OH239503   4.037   2.193  19.622  1.7408  0.7182 -0.8742
 5103TIP3    H139504   4.123   2.178  19.663  2.5889  1.2683 -2.3890
 5103TIP3    H239505   4.054   2.256  19.552  0.6026 -1.1033 -2.9106
 5104TIP3   OH239506   0.043   3.983  17.465 -0.1870 -0.1114  0.8875
 5104TIP3    H139507  -0.037   3.938  17.438  0.5161 -2.2339  2.0519
 5104TIP3    H239508   0.086   4.008  17.384 -1.9821  1.0515  0.2391
 5105TIP3   OH239509   1.014   5.094  18.062 -0.5613 -0.5230  0.4405
 5105TIP3    H139510   0.928   5.056  18.048 -0.4938 -1.2703  1.9080
 5105TIP3    H239511   0.997   5.186  18.081 -1.3926 -1.2589  3.9187
 5106TIP3   OH239512   0.329   5.442  18.332 -0.3653 -0.6642  0.4419
 5106TIP3    H139513   0.341   5.512  18.396 -1.2661 -0.5609  0.5120
 5106TIP3    H239514   0.361   5.479  18.250 -1.0094 -0.0864  0.4372
 5107TIP3   OH239515   4.513   2.075  18.076 -0.2778 -0.1384  0.4502
 5107TIP3    H139516   4.596   2.119  18.057  0.7826 -3.0851 -2.7020
 5107TIP3    H239517   4.528   2.031  18.160  1.5001 -0.7784 -0.1591
 5108TIP3   OH239518   6.457   1.464  18.344 -0.3869  0.0241  0.2425
 5108TIP3    H139519   6.521   1.454  18.273  0.2222  0.0924  0.7667
 5108TIP3    H239520   6.389   1.520  18.308 -0.5307 -0.6649 -0.5750
 5109TIP3   OH239521   2.194   4.598  17.728  1.2491  0.3587  0.3231
 5109TIP3    H139522   2.155   4.512  17.742  0.3569  0.5368 -0.8839
 5109TIP3    H239523   2.251   4.612  17.804  1.0294 -1.0731  0.7758
 5110TIP3   OH239524   0.812   2.737  17.845  0.2307  0.1038 -0.5322
 5110TIP3    H139525   0.899   2.711  17.814 -0.0141 -0.0654 -1.0944
 5110TIP3    H239526   0.827   2.770  17.934  0.9591  0.6710 -0.8542
 5111TIP3   OH239527   2.314   5.185  16.503 -0.2357  0.5626  0.0788
 5111TIP3    H139528   2.333   5.096  16.474  0.7203  0.8872 -0.3183
 5111TIP3    H239529   2.370   5.198  16.579  0.1356  1.0597 -0.2744
 5112TIP3   OH239530   6.407   0.312  18.233  0.1501  0.8373 -0.2287
 5112TIP3    H139531   6.320   0.318  18.273 -0.0891  0.1445 -0.6192
 5112TIP3    H239532   6.416   0.394  18.184 -0.8925  0.3214 -1.3379
 5113TIP3   OH239533   1.844   6.430  19.119  0.3135  0.1383 -0.2996
 5113TIP3    H139534   1.806   6.444  19.032  1.3945 -0.9325 -0.9749
 5113TIP3    H239535   1.929   6.474  19.114  0.9758 -1.0950 -0.2803
 5114TIP3   OH239536   5.493   7.277  18.555  0.1277 -0.4862 -0.6619
 5114TIP3    H139537   5.570   7.304  18.605  0.4697  0.5810 -1.6916
 5114TIP3    H239538   5.526   7.265  18.466 -0.8726 -0.1371 -1.0937
 5115TIP3   OH239539   3.623   6.693  17.137 -0.6008  0.6713 -0.2046
 5115TIP3    H139540   3.653   6.680  17.227 -1.1047  0.6735 -0.0325
 5115TIP3    H239541   3.694   6.658  17.083 -0.5241  0.1837  0.2007
 5116TIP3   OH239542   1.789   1.062  18.415  0.2264  0.5330  0.8709
 5116TIP3    H139543   1.753   1.114  18.343  0.5519  2.4316  2.0083
 5116TIP3    H239544   1.850   1.001  18.373  1.2864  2.3595 -0.3924
 5117TIP3   OH239545   4.424   1.411  17.725 -0.2663 -0.5441 -0.1383
 5117TIP3    H139546   4.443   1.319  17.744 -0.7402 -0.3746  1.2656
 5117TIP3    H239547   4.329   1.418  17.734 -0.3929 -0.1633 -1.4795
 5118TIP3   OH239548   0.983   4.701  19.226 -0.1860 -0.8557  0.5877
 5118TIP3    H139549   1.001   4.768  19.293 -0.6331  0.6292 -0.7137
 5118TIP3    H239550   0.919   4.643  19.267 -1.0147  0.4487  1.2299
 5119TIP3   OH239551   0.227   3.462  17.689  0.0361 -0.4296  0.0037
 5119TIP3    H139552   0.189   3.449  17.776  0.2445 -1.9035 -0.0994
 5119TIP3    H239553   0.270   3.379  17.669  0.6610  0.1566 -1.1865
 5120TIP3   OH239554   2.080   7.168  18.285  0.5241 -0.3052 -0.1049
 5120TIP3    H139555   2.149   7.227  18.253 -0.4288 -0.7778 -3.2905
 5120TIP3    H239556   2.070   7.103  18.216 -3.5375  0.1028 -0.1292
 5121TIP3   OH239557   4.533   1.789  18.065 -0.3018 -0.4991  0.2005
 5121TIP3    H139558   4.473   1.861  18.086  0.1505 -0.3753  1.1675
 5121TIP3    H239559   4.614   1.833  18.038  0.2404 -0.6053  1.5619
 5122TIP3   OH239560   4.723   6.988  17.585 -0.3458  0.2822 -0.1964
 5122TIP3    H139561   4.678   6.905  17.570 -0.4908  0.2500  0.3953
 5122TIP3    H239562   4.790   6.968  17.651  1.0307  0.1710 -1.5653
 5123TIP3   OH239563   6.792   2.846  18.900  0.3450 -0.8039  0.6833
 5123TIP3    H139564   6.846   2.830  18.823  2.4719  0.5405  1.7849
 5123TIP3    H239565   6.787   2.761  18.944  0.2570 -1.2692 -0.1968
 5124TIP3   OH239566   6.597   7.046  18.994 -0.2051  0.0863  0.1962
 5124TIP3    H139567   6.587   7.065  19.087  0.9106  0.4527  0.2566
 5124TIP3    H239568   6.634   6.958  18.991  1.4742  0.7486  0.1971
 5125TIP3   OH239569   1.386   4.984  18.292  0.5343  0.1042 -0.4191
 5125TIP3    H139570   1.306   4.957  18.248 -0.2247 -0.3524  1.1417
 5125TIP3    H239571   1.430   5.043  18.230 -0.0685 -1.0892 -2.0381
 5126TIP3   OH239572   3.670   4.954  19.662  0.1950 -0.2882 -0.5890
 5126TIP3    H139573   3.743   4.991  19.613  1.2057 -1.5820 -0.1360
 5126TIP3    H239574   3.706   4.940  19.750 -1.1168  0.5840  0.1037
 5127TIP3   OH239575   6.178   0.864  17.850  0.4722 -0.6881 -0.3867
 5127TIP3    H139576   6.196   0.919  17.926 -0.0028 -0.7728 -0.2054
 5127TIP3    H239577   6.230   0.902  17.780  1.2647 -0.8746  0.0803
 5128TIP3   OH239578   6.989   5.439  18.507  0.1766  0.6265  0.1105
 5128TIP3    H139579   7.036   5.421  18.589 -1.1379  0.4344  0.8505
 5128TIP3    H239580   7.031   5.518  18.473  0.0453  1.3542  1.5462
 5129TIP3   OH239581   6.812   1.528  18.192  0.1272  0.1786 -0.6063
 5129TIP3    H139582   6.796   1.498  18.102 -0.0698 -0.8328 -0.2402
 5129TIP3    H239583   6.907   1.545  18.195  0.0260  0.9395 -1.2045
 5130TIP3   OH239584   7.134   3.727  17.748 -0.4321 -0.2796  0.1898
 5130TIP3    H139585   7.070   3.655  17.744 -0.8656  0.1575 -1.6594
 5130TIP3    H239586   7.210   3.693  17.700  0.1232 -0.2221  1.0279
 5131TIP3   OH239587   6.060   6.301  17.508  0.3100 -0.2965  0.6416
 5131TIP3    H139588   6.026   6.381  17.550  0.4028  0.6003 -0.9286
 5131TIP3    H239589   5.987   6.268  17.456  0.6225 -0.6089  0.3969
 5132TIP3   OH239590   0.275   4.881  18.955 -0.3328  0.3715  0.4326
 5132TIP3    H139591   0.308   4.792  18.944 -1.9475 -0.1784 -0.4275
 5132TIP3    H239592   0.204   4.873  19.018 -0.9196  0.9177 -0.1396
 5133TIP3   OH239593   5.194   7.460  18.875 -0.0105 -0.1088  0.2822
 5133TIP3    H139594   5.246   7.396  18.827 -0.2600 -0.9043  1.0397
 5133TIP3    H239595   5.109   7.418  18.886 -0.5300  0.8040 -0.1464
 5134TIP3   OH239596   5.156   0.310  18.608 -0.1793 -0.2815  0.4038
 5134TIP3    H139597   5.171   0.356  18.690  0.5673  0.2157  0.0005
 5134TIP3    H239598   5.143   0.218  18.633 -2.0324  0.1662  1.2458
 5135TIP3   OH239599   5.163   4.530  18.197 -0.6812 -0.4118 -0.1385
 5135TIP3    H139600   5.160   4.617  18.235 -0.6725 -0.4484 -0.0556
 5135TIP3    H239601   5.090   4.483  18.236  0.1582 -0.8895  0.9032
 5136TIP3   OH239602   3.307   5.831  16.346 -0.1250  0.6248 -0.0755
 5136TIP3    H139603   3.321   5.913  16.299 -1.7546  0.7685 -0.3684
 5136TIP3    H239604   3.214   5.831  16.368 -0.5853 -1.9418 -1.6080
 5137TIP3   OH239605   5.625   2.808  16.834 -0.0733 -0.7782  0.1239
 5137TIP3    H139606   5.629   2.769  16.921 -1.2281  0.8799  0.9909
 5137TIP3    H239607   5.681   2.753  16.780  0.6983 -1.8397  1.9150
 5138TIP3   OH239608   7.278   4.336  18.653 -0.0288 -0.1571 -0.1001
 5138TIP3    H139609   7.211   4.358  18.589 -1.0041 -1.3676  0.4493
 5138TIP3    H239610   7.353   4.391  18.630 -0.8775  0.5408 -1.3131
 5139TIP3   OH239611   7.028   3.469  17.702 -0.2173 -0.3656  0.2342
 5139TIP3    H139612   7.100   3.424  17.748  1.3642  0.8360 -0.9693
 5139TIP3    H239613   7.022   3.424  17.618  0.1075  0.4436 -0.2329
 5140TIP3   OH239614   7.588   4.589  16.620 -0.3239 -0.0694 -0.1210
 5140TIP3    H139615   7.580   4.496  16.599  1.8596 -0.5516  0.8293
 5140TIP3    H239616   7.680   4.609  16.600 -0.9583  2.0979 -1.0450
 5141TIP3   OH239617   2.026   6.794  16.658 -0.0263 -0.2652  0.3346
 5141TIP3    H139618   2.044   6.715  16.607  0.1627 -0.1298  0.1909
 5141TIP3    H239619   2.112   6.827  16.682 -0.1180 -0.4001  0.8533
 5142TIP3   OH239620   7.607   0.861  17.568  0.0730 -0.0028  0.3681
 5142TIP3    H139621   7.672   0.801  17.605 -0.5865 -1.9051 -1.3923
 5142TIP3    H239622   7.655   0.914  17.505  0.3192  0.1831  0.7049
 5143TIP3   OH239623   5.619   1.322  17.508 -0.3375  0.2314 -0.3268
 5143TIP3    H139624   5.569   1.350  17.584 -0.0495 -0.3965  0.0993
 5143TIP3    H239625   5.578   1.240  17.482  0.5968 -0.3950  0.1522
 5144TIP3   OH239626   0.086   1.902  19.264  0.3930  0.3745 -0.1108
 5144TIP3    H139627   0.115   1.957  19.191  0.0259  0.7583  0.0282
 5144TIP3    H239628   0.074   1.815  19.226 -0.6939  0.7688 -0.7312
 5145TIP3   OH239629   4.543   2.745  17.878 -0.3871  0.8081 -0.7410
 5145TIP3    H139630   4.526   2.774  17.968 -2.9829  0.4912 -1.0383
 5145TIP3    H239631   4.464   2.696  17.854  0.8375 -0.3073 -2.7325
 5146TIP3   OH239632   0.607   6.459  18.112 -0.0133 -0.1107  0.6708
 5146TIP3    H139633   0.626   6.369  18.137  0.2820 -0.9046 -2.1306
 5146TIP3    H239634   0.562   6.496  18.189 -1.9455 -3.2104  1.2027
 5147TIP3   OH239635   0.757   6.992  16.674  0.2173 -0.0713  0.8325
 5147TIP3    H139636   0.788   6.961  16.589  1.1222 -0.7709  1.4009
 5147TIP3    H239637   0.662   6.980  16.671 -0.1105  2.3647 -1.0403
 5148TIP3   OH239638   3.496   7.003  16.632  0.3798 -0.0782 -0.4103
 5148TIP3    H139639   3.451   7.058  16.696 -0.2948  0.4019 -1.2771
 5148TIP3    H239640   3.589   7.016  16.652  0.2233  1.0761 -0.3414
 5149TIP3   OH239641   7.210   0.252  18.063 -0.4774  0.2803  0.0233
 5149TIP3    H139642   7.227   0.298  18.145 -1.7512 -1.0767  1.1236
 5149TIP3    H239643   7.196   0.161  18.090 -3.1770  0.1701 -1.3869
 5150TIP3   OH239644   3.588   5.646  18.506 -0.0073  0.1342  0.1433
 5150TIP3    H139645   3.523   5.695  18.556  0.4422 -0.1236  1.0134
 5150TIP3    H239646   3.669   5.654  18.558 -0.2246 -2.6673  1.1056
 5151TIP3   OH239647   5.854   0.189  18.021  0.2349  0.3985 -0.2730
 5151TIP3    H139648   5.937   0.146  18.001 -0.1526  0.0151 -1.0999
 5151TIP3    H239649   5.790   0.144  17.967 -0.0547  2.5788 -1.8719
 5152TIP3   OH239650   0.319   3.825  18.216 -0.1585  0.6221  0.0913
 5152TIP3    H139651   0.355   3.911  18.198  0.2670  0.6114  0.8234
 5152TIP3    H239652   0.316   3.781  18.131  0.5954  0.9950 -0.1355
 5153TIP3   OH239653   3.217   6.444  18.700  0.7817 -0.3539  0.0518
 5153TIP3    H139654   3.151   6.379  18.724 -0.0324  0.2699 -0.4563
 5153TIP3    H239655   3.225   6.435  18.605 -1.4504  2.1858 -0.4834
 5154TIP3   OH239656   3.655   1.423  19.580 -0.2318 -0.0988 -0.1033
 5154TIP3    H139657   3.632   1.515  19.567 -0.3850 -0.0683  0.3500
 5154TIP3    H239658   3.743   1.425  19.618 -0.0534 -0.1596 -0.5081
 5155TIP3   OH239659   7.318   4.982  19.720  0.2065  0.1842  0.5466
 5155TIP3    H139660   7.403   4.939  19.709  0.0706 -1.2093  3.8758
 5155TIP3    H239661   7.325   5.030  19.802 -1.4685  2.1610 -0.3627
 5156TIP3   OH239662   4.712   5.333  19.526  0.2519 -0.0720  0.2536
 5156TIP3    H139663   4.712   5.316  19.620 -0.4560  0.1585  0.3026
 5156TIP3    H239664   4.630   5.379  19.510  0.0539 -0.6983 -0.5839
 5157TIP3   OH239665   5.285   3.377  19.284  0.5544 -0.3358  0.1904
 5157TIP3    H139666   5.242   3.292  19.284 -0.4324  0.1465  0.8758
 5157TIP3    H239667   5.246   3.424  19.211 -1.4279  0.7264  1.8445
 5158TIP3   OH239668   4.110   0.491  17.729  0.3447  0.0227 -0.4407
 5158TIP3    H139669   4.033   0.452  17.771 -0.3444  0.4595 -1.2846
 5158TIP3    H239670   4.101   0.585  17.745  1.1418  0.0041  0.1658
 5159TIP3   OH239671   7.481   5.272  17.007 -0.6265 -0.2129  0.2812
 5159TIP3    H139672   7.566   5.254  16.966 -1.2447 -1.5276 -0.4986
 5159TIP3    H239673   7.463   5.194  17.060  0.1107  1.4020  3.1105
 5160TIP3   OH239674   2.543   1.035  18.403  0.0779 -0.4819 -0.1958
 5160TIP3    H139675   2.489   1.041  18.324 -0.4299 -0.8176  0.1239
 5160TIP3    H239676   2.481   1.024  18.474  0.4289  1.4993  0.4732
 5161TIP3   OH239677   5.315   0.122  17.294  0.1346 -0.2052  0.1616
 5161TIP3    H139678   5.257   0.149  17.223  1.3282 -2.1444 -1.6655
 5161TIP3    H239679   5.385   0.188  17.294  0.1675 -0.2343 -0.5244
 5162TIP3   OH239680   1.304   5.217  16.686  0.6070 -0.1684 -0.5096
 5162TIP3    H139681   1.264   5.134  16.709  2.2510 -1.0881 -0.8403
 5162TIP3    H239682   1.395   5.196  16.665  0.7578  1.5109 -1.8482
 5163TIP3   OH239683   2.836   2.662  18.835  0.2668 -0.9369 -0.2486
 5163TIP3    H139684   2.825   2.679  18.929 -0.3686  0.9526 -0.6386
 5163TIP3    H239685   2.864   2.570  18.831  0.7102 -0.9384  1.8064
 5164TIP3   OH239686   2.299   5.098  16.835 -0.7377  0.2988 -0.1608
 5164TIP3    H139687   2.211   5.067  16.856 -0.5380  0.1598  0.5066
 5164TIP3    H239688   2.303   5.186  16.873 -0.2836 -0.0553  0.6464
 5165TIP3   OH239689   1.864   3.384  19.227 -0.4881 -0.0668 -0.2150
 5165TIP3    H139690   1.842   3.356  19.138  1.2505 -0.6731 -0.4775
 5165TIP3    H239691   1.908   3.468  19.215  1.0711 -0.8373 -0.0802
 5166TIP3   OH239692   5.440   2.463  17.740  0.0502 -0.1756 -0.4413
 5166TIP3    H139693   5.470   2.535  17.794 -0.3927 -0.6798  0.4885
 5166TIP3    H239694   5.479   2.480  17.654  0.6960  0.6700  0.0061
 5167TIP3   OH239695   3.503   7.292  17.969 -0.4141 -0.0054  0.2570
 5167TIP3    H139696   3.583   7.248  17.997  0.7546  1.3351 -0.8160
 5167TIP3    H239697   3.494   7.365  18.030 -0.2029  0.4678 -0.2713
 5168TIP3   OH239698   2.835   3.676  18.303  0.0455  0.5815  0.2147
 5168TIP3    H139699   2.824   3.758  18.255 -0.1151  0.5855  0.2608
 5168TIP3    H239700   2.809   3.608  18.241  2.3419  0.3859 -0.6462
 5169TIP3   OH239701   5.384   6.461  17.839 -0.5606 -0.0399 -0.0193
 5169TIP3    H139702   5.297   6.421  17.835 -1.2156  1.3916 -0.7814
 5169TIP3    H239703   5.373   6.547  17.799  1.2309  0.1589 -0.1768
 5170TIP3   OH239704   0.850   5.692  17.946 -0.4848 -0.0351 -0.5269
 5170TIP3    H139705   0.814   5.604  17.935 -0.7273  0.0140 -0.1158
 5170TIP3    H239706   0.853   5.728  17.857  0.6997 -0.8807 -0.8558
 5171TIP3   OH239707   1.928   1.041  17.004  0.1982 -0.3985 -0.0117
 5171TIP3    H139708   1.887   0.955  16.998  0.9754 -0.8539  1.0370
 5171TIP3    H239709   1.905   1.073  17.091  1.3683 -0.3018  0.2781
 5172TIP3   OH239710   6.148   2.174  17.737  0.1306  0.0582  0.2106
 5172TIP3    H139711   6.225   2.218  17.771 -0.6807  1.6134  0.1373
 5172TIP3    H239712   6.074   2.226  17.769 -0.8462 -0.8246 -0.5142
 5173TIP3   OH239713   2.936   5.668  19.532 -0.3030 -0.1673 -0.0814
 5173TIP3    H139714   3.028   5.670  19.505 -0.1205  0.6358  0.5465
 5173TIP3    H239715   2.888   5.694  19.453  0.2115  1.9918  0.2414
 5174TIP3   OH239716   6.005   2.096  19.368 -0.0337  0.0773 -0.2395
 5174TIP3    H139717   6.019   2.106  19.463  0.2710 -0.7826 -0.1849
 5174TIP3    H239718   6.001   2.186  19.335 -0.0102  0.3867  0.5703
 5175TIP3   OH239719   5.162   5.164  18.391 -0.3634  0.1343  0.1361
 5175TIP3    H139720   5.225   5.116  18.445 -2.6605 -2.1518  0.9452
 5175TIP3    H239721   5.091   5.188  18.451 -0.6571  2.0635 -0.8742
 5176TIP3   OH239722   6.059   6.045  17.925 -0.1038  0.1969 -0.2107
 5176TIP3    H139723   6.016   6.069  17.843  1.1741 -2.0703 -1.6584
 5176TIP3    H239724   6.005   5.973  17.959 -0.0872  0.4918  0.4617
 5177TIP3   OH239725   6.308   0.985  17.649 -0.3662 -0.1299  0.2054
 5177TIP3    H139726   6.277   1.030  17.570  0.9522 -2.4008 -1.7313
 5177TIP3    H239727   6.363   0.914  17.616  1.7630 -0.0790  3.2606
 5178TIP3   OH239728   2.903   3.829  18.852 -0.3986  0.1159 -0.0141
 5178TIP3    H139729   2.995   3.842  18.827 -0.7078 -0.5179 -1.6005
 5178TIP3    H239730   2.902   3.743  18.895 -0.3934 -0.3030 -0.8412
 5179TIP3   OH239731   0.359   5.963  18.306  0.0321 -0.1435 -0.0398
 5179TIP3    H139732   0.342   6.040  18.251 -0.3440  1.0873  1.7310
 5179TIP3    H239733   0.371   5.891  18.243 -0.4683  1.1732 -1.7177
 5180TIP3   OH239734   4.226   1.698  19.358 -0.3019 -0.3516  0.3790
 5180TIP3    H139735   4.206   1.752  19.434 -1.3319  1.2789 -0.9815
 5180TIP3    H239736   4.266   1.758  19.295 -0.6658 -1.3473 -0.8464
 5181TIP3   OH239737   5.188   6.850  17.685  0.6869  0.0640 -0.0471
 5181TIP3    H139738   5.130   6.775  17.671  3.9049 -2.7138  0.4511
 5181TIP3    H239739   5.207   6.882  17.597  0.2403 -0.4583 -0.3404
 5182TIP3   OH239740   4.998   4.198  18.937 -0.4855 -0.1590 -0.2068
 5182TIP3    H139741   5.041   4.251  18.870  0.2001  0.7234  0.8800
 5182TIP3    H239742   5.031   4.234  19.020 -0.0190 -2.2623  0.5950
 5183TIP3   OH239743   2.198   7.315  18.627 -0.4188 -0.5231 -0.3403
 5183TIP3    H139744   2.287   7.286  18.645 -0.5295 -0.8490 -0.3252
 5183TIP3    H239745   2.195   7.405  18.659  0.0465 -0.3495 -0.7715
 5184TIP3   OH239746   4.233   6.159  19.139 -0.5919  0.0522  0.2348
 5184TIP3    H139747   4.210   6.251  19.138  1.5102  0.6455 -0.5035
 5184TIP3    H239748   4.237   6.135  19.232 -0.2356  0.9754  0.4605
 5185TIP3   OH239749   7.642   3.640  17.883  0.0475 -0.4342 -0.0235
 5185TIP3    H139750   7.551   3.644  17.853  0.2594  0.6662 -0.5819
 5185TIP3    H239751   7.641   3.573  17.952 -1.5201  0.6603  1.1015
 5186TIP3   OH239752   7.121   6.424  18.392  0.1497  0.0225 -0.0261
 5186TIP3    H139753   7.069   6.503  18.385 -0.4600 -0.3220  0.4784
 5186TIP3    H239754   7.163   6.414  18.307 -2.4042 -0.9137 -1.2690
 5187TIP3   OH239755   5.146   3.296  19.606 -0.3319  0.0508 -0.1740
 5187TIP3    H139756   5.080   3.231  19.630 -0.6850  0.2992 -0.4678
 5187TIP3    H239757   5.117   3.329  19.521 -0.3176  0.8139  0.1141
 5188TIP3   OH239758   2.492   6.386  18.317 -0.2853 -0.0820 -0.3837
 5188TIP3    H139759   2.495   6.477  18.348 -0.4893 -0.2469  0.1294
 5188TIP3    H239760   2.573   6.347  18.350 -0.4964 -0.2544 -0.0683
 5189TIP3   OH239761   7.421   6.481  19.166 -0.0246 -0.8129  0.1397
 5189TIP3    H139762   7.485   6.545  19.197 -2.0867  1.6496 -0.3391
 5189TIP3    H239763   7.361   6.468  19.239 -0.7081 -0.7161 -0.3894
 5190TIP3   OH239764   3.607   1.750  16.943  0.3076  0.0655 -0.8475
 5190TIP3    H139765   3.669   1.725  17.011  0.2906  1.3609 -0.3352
 5190TIP3    H239766   3.567   1.830  16.975 -2.5734 -1.3597 -0.5813
 5191TIP3   OH239767   3.581   0.564  18.724 -0.2936  0.0747 -0.4389
 5191TIP3    H139768   3.610   0.508  18.796 -0.8844  0.0441 -0.2181
 5191TIP3    H239769   3.604   0.653  18.752 -3.7008  0.5145  1.4983
 5192TIP3   OH239770   1.151   6.626  17.003  0.1203  0.5883  0.5359
 5192TIP3    H139771   1.179   6.684  17.074  1.4765  0.9482 -0.2539
 5192TIP3    H239772   1.057   6.639  16.998  0.1642  1.4591  1.4896
 5193TIP3   OH239773   2.837   4.601  19.620 -0.6562 -0.1379 -0.2063
 5193TIP3    H139774   2.742   4.592  19.606 -0.4327 -0.2119 -1.8609
 5193TIP3    H239775   2.861   4.523  19.670 -1.6407  0.4661  1.2620
 5194TIP3   OH239776   6.250   3.996  16.818 -0.3373 -0.4094 -0.5561
 5194TIP3    H139777   6.199   4.061  16.867  0.5534 -0.4821  0.5249
 5194TIP3    H239778   6.211   3.912  16.842 -0.2804 -0.4005 -0.4281
 5195TIP3   OH239779   6.982   4.853  18.489 -0.9120  0.2746 -0.3291
 5195TIP3    H139780   6.982   4.909  18.412  1.5000  0.3871 -0.3242
 5195TIP3    H239781   7.012   4.909  18.560  2.0400 -0.9908 -0.4195
 5196TIP3   OH239782   1.666   1.011  17.826 -0.1855  0.1429  0.0659
 5196TIP3    H139783   1.636   0.993  17.916 -0.3588  0.3739  0.0550
 5196TIP3    H239784   1.607   0.960  17.771 -0.5034  0.5229  0.0494
 5197TIP3   OH239785   4.083   2.359  18.962  0.2513 -0.2152  0.3209
 5197TIP3    H139786   4.040   2.445  18.964 -1.4616 -1.0257 -0.0970
 5197TIP3    H239787   4.015   2.297  18.987  1.2081 -1.5615 -0.2685
 5198TIP3   OH239788   6.326   7.297  17.724 -0.5952  0.0576  0.3296
 5198TIP3    H139789   6.364   7.209  17.729  0.2690  0.3967 -0.0738
 5198TIP3    H239790   6.259   7.298  17.793 -0.5238 -0.8653  0.4298
 5199TIP3   OH239791   0.083   2.890  18.100 -0.2105  0.3267  0.4205
 5199TIP3    H139792   0.173   2.922  18.108  1.3221 -3.6379  1.9270
 5199TIP3    H239793   0.086   2.831  18.025 -2.3021  1.9101 -1.0096
 5200TIP3   OH239794   2.584   5.019  17.823 -0.1291 -0.0245  0.2069
 5200TIP3    H139795   2.508   5.070  17.798 -0.8889 -0.4870  1.4930
 5200TIP3    H239796   2.574   5.005  17.917  1.2899 -0.5152  0.3103
 5201TIP3   OH239797   7.600   4.710  19.309 -0.2346 -0.2256  0.1317
 5201TIP3    H139798   7.590   4.801  19.338  1.0337 -0.5926  1.9182
 5201TIP3    H239799   7.532   4.698  19.243  0.3214  2.3784 -1.0618
 5202TIP3   OH239800   0.423   3.645  18.397  0.2568  0.1222  0.4753
 5202TIP3    H139801   0.370   3.635  18.476 -1.1653  0.3265 -0.4107
 5202TIP3    H239802   0.383   3.718  18.350  1.4553  0.4080 -0.1596
 5203TIP3   OH239803   4.134   6.668  16.996 -0.6254 -0.6614 -0.1846
 5203TIP3    H139804   4.120   6.651  17.089 -1.2336 -2.6110 -0.5830
 5203TIP3    H239805   4.189   6.746  16.993 -0.3204 -0.7679  1.8080
 5204TIP3   OH239806   1.461   5.263  17.383 -0.2746 -0.2155  0.8639
 5204TIP3    H139807   1.537   5.275  17.440  1.9312  0.9102 -2.0176
 5204TIP3    H239808   1.458   5.168  17.367  0.5278 -0.2904  1.0959
 5205TIP3   OH239809   1.230   5.635  16.550  0.0102  0.0723  0.7823
 5205TIP3    H139810   1.200   5.547  16.570 -0.1616 -0.1671 -0.4329
 5205TIP3    H239811   1.319   5.623  16.517 -0.5463  0.1514 -0.8453
 5206TIP3   OH239812   7.466   2.763  19.072 -0.1961 -0.2571 -0.3796
 5206TIP3    H139813   7.546   2.727  19.034 -0.1671 -2.3146  1.4632
 5206TIP3    H239814   7.496   2.808  19.151 -0.6909  0.4616 -0.5923
 5207TIP3   OH239815   6.462   1.091  18.654  0.3218 -0.0793 -0.0599
 5207TIP3    H139816   6.506   1.066  18.573 -2.1597 -2.8712 -0.7196
 5207TIP3    H239817   6.407   1.166  18.629  2.6959  1.8437  0.1968
 5208TIP3   OH239818   2.421   4.635  19.164  0.0498  0.5456  0.4429
 5208TIP3    H139819   2.337   4.638  19.118 -0.4229  1.0328  1.3106
 5208TIP3    H239820   2.478   4.695  19.117 -0.2777  0.6716  0.2115
 5209TIP3   OH239821   3.052   5.610  17.492 -0.1391 -0.4111 -0.0005
 5209TIP3    H139822   3.028   5.564  17.412  3.5858  1.3201 -2.3946
 5209TIP3    H239823   3.147   5.596  17.500  0.0612  1.6474  2.6529
 5210TIP3   OH239824   0.711   7.272  17.764 -0.3886 -0.1769  0.2707
 5210TIP3    H139825   0.690   7.246  17.674 -1.4143  2.4680 -0.3495
 5210TIP3    H239826   0.634   7.245  17.815  0.7457 -2.9192  0.7464
 5211TIP3   OH239827   4.162   0.794  17.375 -0.3217  0.1799  0.1561
 5211TIP3    H139828   4.120   0.866  17.423 -0.3116 -0.0947  0.5835
 5211TIP3    H239829   4.091   0.732  17.359 -0.2345  0.0681  0.2022
 5212TIP3   OH239830   4.088   4.914  17.685 -0.6232 -0.1334  0.3942
 5212TIP3    H139831   4.062   4.957  17.767  0.1796  1.6081 -0.2150
 5212TIP3    H239832   4.033   4.955  17.619  0.8174  0.6862 -0.3365
 5213TIP3   OH239833   5.915   0.585  17.364 -0.7625 -0.5322 -0.2105
 5213TIP3    H139834   5.949   0.641  17.294 -0.9985  1.7829  1.3817
 5213TIP3    H239835   5.993   0.546  17.404 -0.3657  0.4926  0.0532
 5214TIP3   OH239836   1.521   6.680  16.961  0.4495  0.1499  0.1999
 5214TIP3    H139837   1.563   6.595  16.972  1.9541  0.9396  0.8418
 5214TIP3    H239838   1.436   6.660  16.922  1.1877 -1.5541 -0.6301
 5215TIP3   OH239839   1.906   5.747  17.965  0.1052  0.2214 -0.1968
 5215TIP3    H139840   1.965   5.784  18.031  2.2649 -0.9538 -1.3641
 5215TIP3    H239841   1.897   5.655  17.990  0.1495 -0.0052 -0.9822
 5216TIP3   OH239842   2.128   3.578  17.076 -0.1658 -0.2323 -0.1855
 5216TIP3    H139843   2.100   3.555  17.164  0.6660 -1.8840 -0.3231
 5216TIP3    H239844   2.206   3.632  17.088  0.1487 -0.7437  0.0977
 5217TIP3   OH239845   5.815   6.216  17.390  0.3795  0.7076  0.3905
 5217TIP3    H139846   5.804   6.311  17.393  1.5014  0.8362  1.5165
 5217TIP3    H239847   5.799   6.193  17.299 -2.2351  1.6373  0.5175
 5218TIP3   OH239848   1.233   5.559  18.301  1.1156  0.6865  0.1454
 5218TIP3    H139849   1.142   5.588  18.304  0.1828 -1.9904  0.2885
 5218TIP3    H239850   1.272   5.607  18.228 -0.7690  0.9138 -0.7531
 5219TIP3   OH239851   7.266   5.974  17.347 -0.2718  0.2344  0.1529
 5219TIP3    H139852   7.356   5.954  17.322 -0.1976  0.1288  0.5028
 5219TIP3    H239853   7.274   6.015  17.434 -0.5925 -0.1347  0.3575
 5220TIP3   OH239854   2.923   4.021  18.400  0.2894 -0.4541  0.5004
 5220TIP3    H139855   2.987   4.049  18.334 -0.8129  1.1585  0.0558
 5220TIP3    H239856   2.892   3.936  18.368  1.7744 -0.9956  0.4273
 5221TIP3   OH239857   4.848   3.860  19.111  0.0246  0.2011 -0.0558
 5221TIP3    H139858   4.939   3.876  19.089 -0.1133  0.5930 -0.3443
 5221TIP3    H239859   4.847   3.852  19.206  0.1253  1.7196  0.0916
 5222TIP3   OH239860   2.684   5.476  17.281 -0.4402 -0.3889  0.6876
 5222TIP3    H139861   2.723   5.500  17.197 -0.5754 -0.7686  0.5164
 5222TIP3    H239862   2.719   5.541  17.342 -0.5833  0.0808  0.2837
 5223TIP3   OH239863   5.096   0.012  17.949  0.6245 -0.0464  0.0045
 5223TIP3    H139864   5.142  -0.065  17.917  0.0953 -0.1425 -0.5319
 5223TIP3    H239865   5.039   0.038  17.877 -1.7564 -1.1727  1.3811
 5224TIP3   OH239866   3.711   2.861  17.821  0.5579  0.0919  0.4247
 5224TIP3    H139867   3.689   2.954  17.813 -1.2374 -0.2687  0.6368
 5224TIP3    H239868   3.628   2.815  17.805  1.4325 -1.4844  0.1998
 5225TIP3   OH239869   6.877   6.508  17.515  0.3752 -0.3228  0.2749
 5225TIP3    H139870   6.876   6.604  17.510  0.8621 -0.2224  1.5426
 5225TIP3    H239871   6.790   6.481  17.485  0.0768  0.5500  0.3248
 5226TIP3   OH239872   5.127   3.150  19.261 -0.4930  0.1540  0.0830
 5226TIP3    H139873   5.160   3.087  19.196 -0.0493 -1.0507  1.4216
 5226TIP3    H239874   5.033   3.153  19.244 -0.5949 -1.2329  0.2500
 5227TIP3   OH239875   5.938   6.361  17.019  0.2183 -0.4100 -0.3720
 5227TIP3    H139876   5.881   6.339  16.945 -0.2991 -1.0674  0.2049
 5227TIP3    H239877   5.981   6.442  16.993 -0.0899 -0.5428 -1.3195
 5228TIP3   OH239878   0.727   7.456  18.147  0.7664 -0.0038  0.7012
 5228TIP3    H139879   0.731   7.521  18.077  2.4604 -0.2325  0.5431
 5228TIP3    H239880   0.760   7.376  18.106  1.7425 -0.1462  1.7162
 5229TIP3   OH239881   5.177   3.562  19.051  0.0303 -0.0525  0.4881
 5229TIP3    H139882   5.085   3.541  19.066 -0.0943 -0.0115 -0.1930
 5229TIP3    H239883   5.176   3.649  19.012  0.3348 -0.1800  0.1869
 5230TIP3   OH239884   1.509   3.668  17.392 -0.2561 -0.0921 -0.0990
 5230TIP3    H139885   1.452   3.659  17.315  1.9934  2.0602 -2.2006
 5230TIP3    H239886   1.597   3.656  17.358  0.7714 -0.2051  2.4076
 5231TIP3   OH239887   6.209   0.324  18.416 -0.4253 -1.1188 -0.8015
 5231TIP3    H139888   6.115   0.338  18.425 -0.3252  0.1345 -1.4576
 5231TIP3    H239889   6.232   0.265  18.487 -1.7001 -1.4120 -0.6151
 5232TIP3   OH239890   0.561   4.409  17.687 -0.2181 -0.1254  0.2271
 5232TIP3    H139891   0.565   4.315  17.708 -1.1959 -0.3252 -0.4248
 5232TIP3    H239892   0.622   4.449  17.749  0.2501 -1.1947  0.4949
 5233TIP3   OH239893   6.631   7.425  19.189  0.1307 -0.2988 -0.0992
 5233TIP3    H139894   6.632   7.442  19.095  1.3209 -1.8599 -0.4167
 5233TIP3    H239895   6.539   7.415  19.211 -0.1094 -1.1738 -1.3804
 5234TIP3   OH239896   0.334   6.091  17.594 -1.0154 -0.4824 -0.1807
 5234TIP3    H139897   0.421   6.073  17.559 -1.1291 -1.6397  0.0861
 5234TIP3    H239898   0.278   6.022  17.556 -1.5976 -0.3808  0.4762
 5235TIP3   OH239899   4.122   5.502  18.623 -0.2606 -0.4301  0.9659
 5235TIP3    H139900   4.098   5.420  18.580 -1.2076  0.2772  0.1149
 5235TIP3    H239901   4.178   5.547  18.560  0.8559 -0.7161  1.7219
 5236TIP3   OH239902   5.111   3.906  18.035  0.4452  0.6317 -0.1637
 5236TIP3    H139903   5.204   3.882  18.034  0.0842 -0.8830 -0.0100
 5236TIP3    H239904   5.101   3.958  18.115  1.0475  0.3089  0.1275
 5237TIP3   OH239905   0.382   0.452  17.352  0.5261 -0.2600 -0.1134
 5237TIP3    H139906   0.350   0.449  17.262  1.1855 -0.1118 -0.3589
 5237TIP3    H239907   0.353   0.537  17.385 -0.0509 -0.4766 -0.0556
 5238TIP3   OH239908   0.175   4.011  18.442 -0.1547 -0.3102 -0.1345
 5238TIP3    H139909   0.215   4.091  18.478  1.1752 -1.2065  0.4784
 5238TIP3    H239910   0.229   3.991  18.366 -0.2186 -0.8467 -0.0387
 5239TIP3   OH239911   3.816   2.690  19.408  0.0830 -0.8753 -0.0129
 5239TIP3    H139912   3.839   2.782  19.393 -1.0253 -0.3725  1.2090
 5239TIP3    H239913   3.795   2.656  19.321  0.3798  0.0669 -0.4602
 5240TIP3   OH239914   5.205   0.980  17.436 -0.1955  0.9423 -0.5381
 5240TIP3    H139915   5.181   0.985  17.344  0.8265  1.9502 -0.7707
 5240TIP3    H239916   5.123   0.998  17.483 -0.8097  0.0252 -1.2186
 5241TIP3   OH239917   4.670   2.829  19.062 -0.3962  0.0005  0.3054
 5241TIP3    H139918   4.764   2.811  19.065 -0.3571 -0.6307 -2.1376
 5241TIP3    H239919   4.664   2.924  19.059  0.2688  0.0331 -0.6292
 5242TIP3   OH239920   6.575   2.378  19.113 -0.2034  0.2703 -0.1898
 5242TIP3    H139921   6.521   2.300  19.111 -0.4591  0.4077  0.6791
 5242TIP3    H239922   6.518   2.448  19.081  0.2849 -0.0298 -1.7725
 5243TIP3   OH239923   7.533   2.241  18.750  0.4555 -0.1459  0.1596
 5243TIP3    H139924   7.507   2.173  18.813 -0.3271 -0.7898 -0.8406
 5243TIP3    H239925   7.573   2.309  18.805 -1.7568  0.0970  1.5917
 5244TIP3   OH239926   0.459   6.841  18.641  1.1012  0.2228  0.6322
 5244TIP3    H139927   0.392   6.773  18.640 -0.5897  1.8158 -0.7921
 5244TIP3    H239928   0.526   6.807  18.700 -0.8518 -1.5270  2.0043
 5245TIP3   OH239929   4.238   4.875  17.972 -0.4227 -0.4081  0.1393
 5245TIP3    H139930   4.227   4.851  18.064  0.3349 -1.0451  0.0767
 5245TIP3    H239931   4.330   4.856  17.953 -0.4050  0.3390 -0.5743
 5246TIP3   OH239932   5.936   7.456  18.459 -0.4198 -0.1643 -0.0068
 5246TIP3    H139933   6.029   7.481  18.458 -0.5439  0.2893 -1.3021
 5246TIP3    H239934   5.898   7.503  18.385 -1.4271 -1.3665 -0.2712
 5247TIP3   OH239935   0.694   3.770  18.048 -0.3288  0.0569 -0.1872
 5247TIP3    H139936   0.685   3.834  17.977  0.8262  1.2463  0.6918
 5247TIP3    H239937   0.674   3.686  18.007 -0.3964  0.7889 -1.7402
 5248TIP3   OH239938   7.610   0.504  16.991 -0.0032 -0.4547  0.6149
 5248TIP3    H139939   7.566   0.553  16.922  0.0755 -1.3541 -0.0871
 5248TIP3    H239940   7.612   0.565  17.065  1.6597  1.2616 -0.7357
 5249TIP3   OH239941   1.132   7.162  18.569 -0.0646 -0.3623 -0.0151
 5249TIP3    H139942   1.144   7.156  18.664 -0.6900 -0.4932  0.0646
 5249TIP3    H239943   1.047   7.119  18.554 -0.9850  1.4941 -0.3893
 5250TIP3   OH239944   4.659   7.233  16.707 -0.2497  0.4060  0.2233
 5250TIP3    H139945   4.745   7.191  16.714 -0.7539 -0.3815  2.4019
 5250TIP3    H239946   4.616   7.186  16.636  1.0299  0.6954 -0.7812
 5251TIP3   OH239947   5.935   2.065  17.405 -0.1548  0.4515 -1.0522
 5251TIP3    H139948   5.895   2.150  17.426 -0.0042  0.0507  1.0698
 5251TIP3    H239949   6.029   2.082  17.407 -0.1212  0.2116 -0.4609
 5252TIP3   OH239950   5.947   1.449  19.725 -0.5639  0.1691  0.1689
 5252TIP3    H139951   5.950   1.353  19.723 -2.3741  0.0220  1.4464
 5252TIP3    H239952   5.884   1.472  19.656 -0.9663  0.3373  0.5823
 5253TIP3   OH239953   4.361   7.086  18.958 -0.1667 -0.3338  0.4271
 5253TIP3    H139954   4.415   7.013  18.990  0.2865  0.7566  2.3069
 5253TIP3    H239955   4.425   7.155  18.939 -0.7565  0.4064  1.0827
 5254TIP3   OH239956   6.308   0.577  16.799 -0.0557 -0.5540 -0.2720
 5254TIP3    H139957   6.240   0.529  16.848  0.8524 -0.0093  1.6167
 5254TIP3    H239958   6.391   0.542  16.834  0.6419  2.1838  1.0502
 5255TIP3   OH239959   1.435   6.016  19.194  0.0586  0.4359 -0.6007
 5255TIP3    H139960   1.513   6.071  19.194  2.7624 -2.6291  4.6869
 5255TIP3    H239961   1.372   6.063  19.248  0.9087  0.1340  0.7061
 5256TIP3   OH239962   6.063   4.086  17.713 -0.4284  0.0317  0.4842
 5256TIP3    H139963   5.991   4.036  17.675 -0.6941  0.7213  0.0619
 5256TIP3    H239964   6.084   4.039  17.794 -0.5923 -0.8200  0.0480
 5257TIP3   OH239965   0.609   2.408  18.986 -0.4931  0.1181  0.0857
 5257TIP3    H139966   0.605   2.351  18.909  0.4975 -0.3881  0.3986
 5257TIP3    H239967   0.628   2.350  19.059 -2.4813  0.4304  0.9351
 5258TIP3   OH239968   6.835   3.187  19.439  0.5476 -0.5427  0.0486
 5258TIP3    H139969   6.808   3.109  19.487  1.9056 -0.4678  0.9891
 5258TIP3    H239970   6.801   3.260  19.491  1.9988 -0.4622  0.9461
 5259TIP3   OH239971   4.966   1.628  19.033 -0.3952  0.2130 -0.7233
 5259TIP3    H139972   4.972   1.676  19.116  1.2896 -0.5512 -0.3573
 5259TIP3    H239973   4.941   1.539  19.058 -3.4498  0.7626 -1.3950
 5260TIP3   OH239974   7.057   3.878  18.236 -0.2648 -0.5507  0.1670
 5260TIP3    H139975   7.036   3.899  18.145  0.0301  0.2107  0.2677
 5260TIP3    H239976   7.128   3.815  18.230  0.2553  0.0531 -0.1319
 5261TIP3   OH239977   6.916   1.921  18.441 -0.0085  0.1469  0.0053
 5261TIP3    H139978   6.834   1.875  18.458  0.0008  0.4231  0.8479
 5261TIP3    H239979   6.922   1.925  18.346 -0.1196 -1.3924 -0.0801
 5262TIP3   OH239980   3.228   0.039  17.278  0.6196  0.4246 -0.8291
 5262TIP3    H139981   3.245   0.030  17.371 -0.2582  0.9538 -0.6116
 5262TIP3    H239982   3.285   0.110  17.249  0.4647  0.6486 -0.5791
 5263TIP3   OH239983   6.513   1.376  16.741 -0.3815  0.3937  0.3042
 5263TIP3    H139984   6.488   1.468  16.747 -1.5664  0.0012  3.2456
 5263TIP3    H239985   6.431   1.329  16.724  0.1162 -0.1588 -0.6136
 5264TIP3   OH239986   7.613   2.880  19.284  0.4116 -0.0617  0.2172
 5264TIP3    H139987   7.701   2.842  19.294  0.7437  1.0489  1.9629
 5264TIP3    H239988   7.628   2.957  19.229  0.5782  0.2071  0.6292
 5265TIP3   OH239989   1.759   6.781  18.430 -0.0568 -0.3250  0.2189
 5265TIP3    H139990   1.853   6.778  18.411  0.2442  0.1437  1.4984
 5265TIP3    H239991   1.731   6.689  18.425 -0.0767 -0.2432 -2.5009
 5266TIP3   OH239992   1.662   7.397  18.297  0.3283 -0.0220 -0.0519
 5266TIP3    H139993   1.673   7.327  18.232 -1.4563  0.4528 -0.9211
 5266TIP3    H239994   1.746   7.443  18.296  1.3000 -1.6893  0.0265
 5267TIP3   OH239995   5.094   6.313  17.739 -0.8448 -0.1540  0.2264
 5267TIP3    H139996   5.063   6.295  17.650  1.1396  0.9860 -0.7557
 5267TIP3    H239997   5.114   6.226  17.775  0.7296 -0.5192 -1.3915
 5268TIP3   OH239998   0.234   1.790  17.157 -0.1260 -0.3538 -0.3586
 5268TIP3    H139999   0.167   1.850  17.190  1.4592  0.8747  0.7434
 5268TIP3    H240000   0.261   1.827  17.073  0.5138  0.2349  0.0993
 5269TIP3   OH240001   6.444   2.257  17.512  1.0448 -0.5305 -0.0479
 5269TIP3    H140002   6.434   2.316  17.437 -0.3770  0.1377  0.6249
 5269TIP3    H240003   6.450   2.316  17.588 -0.6798 -1.2174  0.6723
 5270TIP3   OH240004   2.030   7.312  19.249 -0.2290  0.0720 -0.3236
 5270TIP3    H140005   2.073   7.257  19.184 -0.5239 -0.7126  0.1293
 5270TIP3    H240006   2.084   7.303  19.328  0.2297  1.1585 -0.4911
 5271TIP3   OH240007   2.473   3.683  19.068 -0.4115  0.3937 -0.0336
 5271TIP3    H140008   2.479   3.590  19.045 -1.1060  0.4608 -0.5335
 5271TIP3    H240009   2.384   3.708  19.040 -1.2003  0.5728  2.4451
 5272TIP3   OH240010   5.097   3.966  19.047 -0.3718 -0.0393  0.3153
 5272TIP3    H140011   5.174   3.975  19.104 -0.1139  0.1902 -0.0666
 5272TIP3    H240012   5.099   4.044  18.992 -1.8121  0.8062  1.4054
 5273TIP3   OH240013   0.496   1.336  19.091 -0.2495  0.1095 -0.5284
 5273TIP3    H140014   0.495   1.309  18.999 -0.8590  0.2163 -0.5559
 5273TIP3    H240015   0.456   1.262  19.138  0.1302  0.0229 -0.3392
 5274TIP3   OH240016   5.323   2.929  17.480 -0.9733  0.3690  0.1954
 5274TIP3    H140017   5.305   2.892  17.567 -0.7979  0.2110  0.1666
 5274TIP3    H240018   5.369   3.010  17.498  0.9494 -0.6800  0.2307
 5275TIP3   OH240019   2.481   2.422  18.382 -0.3240 -0.4673 -0.1328
 5275TIP3    H140020   2.501   2.413  18.475 -0.6675  0.2583  0.0227
 5275TIP3    H240021   2.396   2.468  18.381  0.1666  0.4461 -0.8061
 5276TIP3   OH240022   0.157   2.261  18.085 -0.7079 -0.2574  0.7020
 5276TIP3    H140023   0.230   2.296  18.035 -2.2745  0.3921 -1.2585
 5276TIP3    H240024   0.197   2.203  18.149  1.4611 -0.5713 -0.8454
 5277TIP3   OH240025   1.886   7.514  19.177  0.2606  0.4014  0.3351
 5277TIP3    H140026   1.816   7.475  19.229 -0.6431  1.5296 -0.0093
 5277TIP3    H240027   1.959   7.453  19.186 -0.9579 -1.1239  0.1786
 5278TIP3   OH240028   6.995   5.253  19.180  0.2651  0.4792  0.0574
 5278TIP3    H140029   7.032   5.223  19.097  0.6289 -1.2114  0.7908
 5278TIP3    H240030   7.067   5.298  19.223  1.4334 -2.3052  1.2332
 5279TIP3   OH240031   2.213   1.657  17.635 -0.0900  0.1687 -0.1011
 5279TIP3    H140032   2.120   1.651  17.655  0.1165 -0.1163  0.8411
 5279TIP3    H240033   2.221   1.620  17.547 -0.9422  0.7482 -0.4276
 5280TIP3   OH240034   2.845   3.660  17.610  0.0872 -0.5734  0.1625
 5280TIP3    H140035   2.800   3.740  17.637  0.2339 -0.9087  1.4787
 5280TIP3    H240036   2.938   3.679  17.621  0.1431 -0.7923  0.0800
 5281TIP3   OH240037   3.365   6.853  17.628  0.2456 -0.2709 -0.4721
 5281TIP3    H140038   3.359   6.948  17.619  0.7455 -0.2583 -0.7576
 5281TIP3    H240039   3.283   6.820  17.592  0.1064  0.0527 -0.4514
 5282TIP3   OH240040   7.672   0.536  17.447 -0.0751  0.0264 -0.4883
 5282TIP3    H140041   7.740   0.588  17.404 -1.1714  0.0953 -2.2308
 5282TIP3    H240042   7.591   0.565  17.407 -1.3126  0.5717  2.1469
 5283TIP3   OH240043   4.904   5.224  19.237 -0.0371 -0.1858 -0.2023
 5283TIP3    H140044   4.882   5.162  19.307  2.1359 -1.2900 -0.4314
 5283TIP3    H240045   4.860   5.188  19.160  1.8029 -1.9628 -0.5022
 5284TIP3   OH240046   4.008   5.257  18.525  0.3440 -0.2657 -0.1068
 5284TIP3    H140047   4.007   5.291  18.436 -3.3889  1.0404  0.2421
 5284TIP3    H240048   3.979   5.166  18.517 -1.3567  0.2560 -0.1851
 5285TIP3   OH240049   1.044   4.965  19.350 -0.2213  0.1606  0.3952
 5285TIP3    H140050   1.095   5.011  19.283 -0.1137 -1.3509 -0.6210
 5285TIP3    H240051   0.954   4.995  19.338 -0.2486 -0.3049 -0.6394
 5286TIP3   OH240052   0.413   6.454  18.815 -0.3880 -0.6786 -0.2525
 5286TIP3    H140053   0.487   6.488  18.765  1.9617 -1.0363  2.7230
 5286TIP3    H240054   0.442   6.369  18.847 -1.6863 -0.3994  1.8122
 5287TIP3   OH240055   2.151   7.126  19.067 -0.0989  0.3262  0.1881
 5287TIP3    H140056   2.150   7.030  19.068 -0.1580  0.2810 -1.4135
 5287TIP3    H240057   2.087   7.150  18.999 -0.5769  1.5301  1.0222
 5288TIP3   OH240058   3.321   3.568  18.673 -0.4032  0.3523  0.8957
 5288TIP3    H140059   3.365   3.652  18.658 -0.6840  0.5021  0.8873
 5288TIP3    H240060   3.255   3.588  18.739 -1.0829  0.3546  0.2356
 5289TIP3   OH240061   6.958   5.586  18.811  0.0736  0.3853 -0.4895
 5289TIP3    H140062   7.014   5.514  18.839  0.3630 -0.6484 -3.4556
 5289TIP3    H240063   6.887   5.544  18.762 -0.6894  2.0186 -0.8469
 5290TIP3   OH240064   0.965   0.788  19.118 -0.0564 -0.0855  0.3804
 5290TIP3    H140065   1.001   0.834  19.193  0.8293  0.0470 -0.1175
 5290TIP3    H240066   0.994   0.839  19.042  0.0492 -0.8609 -0.1118
 5291TIP3   OH240067   7.651   1.414  17.328 -0.6701  0.0284  0.2341
 5291TIP3    H140068   7.590   1.473  17.372  0.3182  0.5962  0.8824
 5291TIP3    H240069   7.711   1.472  17.281 -0.7419 -0.5292 -0.5736
 5292TIP3   OH240070   4.216   7.524  16.564 -0.4275 -0.4457  0.2086
 5292TIP3    H140071   4.284   7.490  16.623 -0.7676 -1.0813  0.2358
 5292TIP3    H240072   4.137   7.477  16.588 -1.0916  0.9022  0.7458
 5293TIP3   OH240073   7.372   0.227  17.044 -0.0028  0.2199 -0.1701
 5293TIP3    H140074   7.443   0.169  17.014 -1.1156 -0.4205 -1.6703
 5293TIP3    H240075   7.376   0.302  16.985  0.4021  0.9342  0.7464
 5294TIP3   OH240076   4.596   3.983  17.056  0.2826 -0.0355 -0.2834
 5294TIP3    H140077   4.533   3.913  17.073  0.3094 -0.0410 -0.2089
 5294TIP3    H240078   4.673   3.959  17.107  0.1343  0.2807  0.0860
 5295TIP3   OH240079   4.595   3.281  17.090  0.3727  0.3286  0.7173
 5295TIP3    H140080   4.571   3.259  17.000 -0.4251  1.5930  0.5926
 5295TIP3    H240081   4.686   3.311  17.083 -0.3203  2.4216 -0.0614
 5296TIP3   OH240082   3.893   1.655  19.437 -0.3454  0.2576 -0.1336
 5296TIP3    H140083   3.944   1.730  19.406 -0.3193  0.2570 -0.0921
 5296TIP3    H240084   3.803   1.687  19.438 -0.5758 -0.2482 -1.7930
 5297TIP3   OH240085   4.651   5.650  17.788  0.3308 -0.0365  0.2995
 5297TIP3    H140086   4.717   5.584  17.767  0.1831 -0.2630  0.5394
 5297TIP3    H240087   4.595   5.607  17.853 -1.1444 -0.5170 -1.2106
 5298TIP3   OH240088   7.126   3.720  18.736  0.1563 -0.2731 -0.1378
 5298TIP3    H140089   7.210   3.764  18.725  0.0435  0.6576  2.2587
 5298TIP3    H240090   7.135   3.670  18.817 -0.5930 -2.7193 -1.4744
 5299TIP3   OH240091   6.029   4.780  17.407 -0.4608  0.2369  0.5921
 5299TIP3    H140092   5.941   4.801  17.376 -0.7734 -1.0224  0.5597
 5299TIP3    H240093   6.087   4.813  17.338 -0.9748  0.0645  0.0674
 5300TIP3   OH240094   1.389   2.596  17.378  0.0903 -0.1170  0.1938
 5300TIP3    H140095   1.405   2.652  17.302  1.3749  2.2025  2.0460
 5300TIP3    H240096   1.305   2.624  17.412  0.7777  0.8551  1.1800
 5301TIP3   OH240097   4.617   4.061  16.806  0.6602  0.0894  0.2688
 5301TIP3    H140098   4.584   4.053  16.895 -0.0031 -0.0976  0.0106
 5301TIP3    H240099   4.691   4.001  16.802 -0.7873 -1.7555 -0.0048
 5302TIP3   OH240100   6.457   5.915  18.584 -0.3224  0.7382  0.6342
 5302TIP3    H140101   6.383   5.862  18.554 -0.1080  0.2275  0.9814
 5302TIP3    H240102   6.465   5.984  18.519 -2.3674  2.0171  1.6457
 5303TIP3   OH240103   6.092   5.649  19.298  0.5894 -0.1561 -0.0494
 5303TIP3    H140104   6.102   5.707  19.223 -0.3245  0.4631  0.2868
 5303TIP3    H240105   6.006   5.609  19.286  0.3920  0.0251  0.7183
 5304TIP3   OH240106   0.755   3.724  19.122 -0.4448  0.3937  0.0643
 5304TIP3    H140107   0.663   3.736  19.147 -0.2932 -2.3172  2.3416
 5304TIP3    H240108   0.759   3.636  19.086  1.1872  0.6896 -0.5562
 5305TIP3   OH240109   6.826   5.437  19.040  0.5073 -0.0635 -0.2962
 5305TIP3    H140110   6.901   5.397  19.084 -0.2654 -0.2178  0.9271
 5305TIP3    H240111   6.797   5.506  19.101 -1.3187 -1.0654  0.0391
 5306TIP3   OH240112   0.454   3.106  17.179  0.6440  0.8066 -0.2254
 5306TIP3    H140113   0.370   3.067  17.201  1.1467  0.2399  0.7374
 5306TIP3    H240114   0.431   3.189  17.135 -0.4089  0.9388  0.5439
 5307TIP3   OH240115   6.140   0.745  18.950  0.1020  0.4728 -0.3871
 5307TIP3    H140116   6.130   0.719  18.859  0.4402 -1.7451  0.1331
 5307TIP3    H240117   6.186   0.671  18.991 -0.0233  1.3995  1.5701
 5308TIP3   OH240118   3.521   0.011  17.127  0.1670  0.1142 -0.4844
 5308TIP3    H140119   3.538   0.054  17.044  0.1577 -1.7090 -1.4715
 5308TIP3    H240120   3.546  -0.080  17.114  2.0173  0.1297  2.1189
 5309TIP3   OH240121   7.304   7.607  18.024 -0.1995 -0.0336  0.2564
 5309TIP3    H140122   7.346   7.562  18.098 -0.6356 -1.2100 -0.1821
 5309TIP3    H240123   7.376   7.624  17.963 -0.2498 -1.8738 -0.4059
 5310TIP3   OH240124   6.862   5.627  17.047  0.2650 -0.3132  0.4603
 5310TIP3    H140125   6.877   5.703  17.104  0.3696  0.5619 -0.6976
 5310TIP3    H240126   6.778   5.644  17.005  1.1671  0.1295 -1.2507
 5311TIP3   OH240127   7.431   0.201  18.913 -0.1021  0.1821 -0.0801
 5311TIP3    H140128   7.385   0.117  18.916  0.2683 -0.0267 -0.2565
 5311TIP3    H240129   7.361   0.265  18.897 -0.2612 -0.1908 -0.9533
 5312TIP3   OH240130   5.175   3.048  18.200 -0.2161  0.6180  0.3820
 5312TIP3    H140131   5.206   3.081  18.116 -0.9962  2.1435  0.6477
 5312TIP3    H240132   5.128   3.122  18.239 -2.0244 -0.8102  1.0801
 5313TIP3   OH240133   3.799   2.401  18.619  0.0038 -0.1114 -0.4667
 5313TIP3    H140134   3.782   2.328  18.679  0.0425 -0.3301 -0.7189
 5313TIP3    H240135   3.715   2.420  18.579 -0.5201  1.4802  1.2376
 5314TIP3   OH240136   1.503   7.107  16.949 -0.1445  0.2142  0.2998
 5314TIP3    H140137   1.408   7.116  16.941 -0.2124 -0.7312 -0.2236
 5314TIP3    H240138   1.517   7.083  17.040 -0.3536  0.9679  0.5298
 5315TIP3   OH240139   0.037   3.552  18.406 -0.1345  0.6642 -0.5833
 5315TIP3    H140140   0.098   3.540  18.479 -0.8189 -0.0774 -0.1060
 5315TIP3    H240141  -0.033   3.489  18.424  0.5449 -0.8642 -2.8405
 5316TIP3   OH240142   3.376   3.753  18.074  0.4980 -0.2310 -0.0278
 5316TIP3    H140143   3.294   3.705  18.058 -0.5559  1.2250  0.8009
 5316TIP3    H240144   3.371   3.778  18.166  2.4046 -1.0125  0.3331
 5317TIP3   OH240145   5.768   4.009  17.790  0.3434 -0.2383  0.1232
 5317TIP3    H140146   5.800   3.991  17.878  0.3536  0.9331  0.3758
 5317TIP3    H240147   5.699   3.945  17.776 -1.0939  0.8249  1.8083
 5318TIP3   OH240148   7.283   4.018  19.019 -0.1313 -0.3358 -0.3880
 5318TIP3    H140149   7.338   3.940  19.020 -0.1505 -0.3519  0.8014
 5318TIP3    H240150   7.263   4.032  18.927  0.0839 -1.5835 -0.6390
 5319TIP3   OH240151   6.984   7.105  19.068 -0.0441  0.5568  0.0247
 5319TIP3    H140152   6.921   7.116  19.139 -0.7888  1.4371 -0.7469
 5319TIP3    H240153   7.069   7.109  19.111 -0.4771  1.3334  0.8415
 5320TIP3   OH240154   7.624   0.962  19.192  0.7136 -0.3730 -0.1909
 5320TIP3    H140155   7.545   0.963  19.245  0.9187 -0.0350  0.1089
 5320TIP3    H240156   7.673   0.886  19.223 -0.0878 -1.3558 -1.2656
 5321TIP3   OH240157   5.266   2.089  19.316 -0.1062 -0.0579  0.2648
 5321TIP3    H140158   5.260   2.156  19.384  1.8772  1.5042 -0.9970
 5321TIP3    H240159   5.323   2.022  19.353  1.4410  1.0642 -0.0344
 5322TIP3   OH240160   4.624   2.481  19.679  0.0447 -0.3975 -0.1468
 5322TIP3    H140161   4.669   2.400  19.703 -0.4045 -1.2826 -2.1140
 5322TIP3    H240162   4.631   2.486  19.584 -0.0628  1.8280 -0.0923
 5323TIP3   OH240163   5.116   2.371  19.290 -0.4615 -0.3805  0.0166
 5323TIP3    H140164   5.201   2.384  19.248 -1.0923  0.4983 -1.0569
 5323TIP3    H240165   5.137   2.348  19.380  0.9269  1.9451  0.3691
 5324TIP3   OH240166   1.463   3.263  17.384 -0.2267  0.6198 -0.2386
 5324TIP3    H140167   1.466   3.308  17.468  0.1734  0.2907 -0.0755
 5324TIP3    H240168   1.395   3.197  17.395  0.9618 -0.5440  0.4034
 5325TIP3   OH240169   2.409   0.332  18.076 -0.0396  0.0138  0.3594
 5325TIP3    H140170   2.331   0.277  18.074  0.8009 -1.1966 -0.7712
 5325TIP3    H240171   2.382   0.410  18.126 -1.2680 -1.4014  2.0441
 5326TIP3   OH240172   7.052   7.578  18.042 -0.6625 -0.2057 -0.4924
 5326TIP3    H140173   7.042   7.553  18.134 -0.2999 -0.9468 -0.6428
 5326TIP3    H240174   7.146   7.587  18.029 -0.7153 -0.0478 -0.7722
 5327TIP3   OH240175   4.570   7.481  19.140  0.2237  0.4890 -0.0623
 5327TIP3    H140176   4.609   7.423  19.075 -0.0344 -2.4864  2.1900
 5327TIP3    H240177   4.479   7.450  19.148 -0.6032  2.7003 -0.2700
 5328TIP3   OH240178   5.530   3.211  19.210 -0.1546 -0.2257  0.5071
 5328TIP3    H140179   5.548   3.291  19.160 -1.9616 -1.0102 -1.6029
 5328TIP3    H240180   5.490   3.241  19.291 -1.3041  1.0312 -0.4857
 5329TIP3   OH240181   2.835   4.762  18.443  0.2301 -0.0601 -0.0986
 5329TIP3    H140182   2.810   4.680  18.401 -0.4207 -1.0769  2.1368
 5329TIP3    H240183   2.778   4.827  18.403  0.4748 -0.7304 -1.6178
 5330TIP3   OH240184   4.266   6.581  16.756  0.4407 -0.3842 -0.3074
 5330TIP3    H140185   4.196   6.585  16.691  0.8123  1.8000 -0.6389
 5330TIP3    H240186   4.221   6.573  16.840 -0.1554 -0.3116 -0.6170
 5331TIP3   OH240187   3.283   6.302  17.709  0.5911  0.6328  0.1714
 5331TIP3    H140188   3.274   6.252  17.790  0.5598  0.4793  0.0721
 5331TIP3    H240189   3.246   6.246  17.641 -0.9627  1.4618  0.3013
 5332TIP3   OH240190   2.513   6.255  19.332  0.1881  0.1601 -0.0637
 5332TIP3    H140191   2.538   6.218  19.416  0.9819 -0.0528 -0.3858
 5332TIP3    H240192   2.584   6.315  19.310  0.7649 -0.9453 -1.3136
 5333TIP3   OH240193   1.758   5.693  16.961  0.1075 -0.3444 -0.5300
 5333TIP3    H140194   1.803   5.646  16.890  0.7759 -0.2390 -0.1778
 5333TIP3    H240195   1.709   5.762  16.916 -1.3024 -1.6732 -1.1096
 5334TIP3   OH240196   2.476   0.514  17.110  0.5300 -0.3237  0.0015
 5334TIP3    H140197   2.488   0.483  17.020  2.5509  0.3123  0.0001
 5334TIP3    H240198   2.459   0.608  17.101 -2.0947 -0.7121  0.1885
 5335TIP3   OH240199   5.538   1.122  16.695 -0.1763 -0.0528  0.1583
 5335TIP3    H140200   5.618   1.074  16.717  0.8955  1.2775 -0.6590
 5335TIP3    H240201   5.468   1.056  16.700  0.7484 -0.9810  2.1329
 5336TIP3   OH240202   1.144   1.735  17.870 -0.8538  0.0654 -0.1770
 5336TIP3    H140203   1.096   1.787  17.935  0.6773 -1.6307  2.5174
 5336TIP3    H240204   1.195   1.800  17.822 -0.2924  1.2877  1.9154
 5337TIP3   OH240205   7.653   0.558  19.206 -0.4580 -0.4992 -0.0229
 5337TIP3    H140206   7.746   0.568  19.227 -0.5416 -1.2426  0.7432
 5337TIP3    H240207   7.607   0.608  19.273 -0.6666 -1.6829  0.7547
 5338TIP3   OH240208   7.642   6.596  19.255  0.2392 -1.0973 -0.4154
 5338TIP3    H140209   7.716   6.650  19.229 -1.0718  1.0111 -0.0302
 5338TIP3    H240210   7.679   6.531  19.314  1.5545  0.9900  1.1832
 5339TIP3   OH240211   5.015   3.585  18.463 -0.0936  0.0104 -0.2079
 5339TIP3    H140212   5.088   3.570  18.524  0.6878 -2.3495 -1.5695
 5339TIP3    H240213   4.976   3.667  18.492  3.3834  1.6718  0.3345
 5340TIP3   OH240214   2.301   2.455  18.080  0.2273  0.0706 -0.3901
 5340TIP3    H140215   2.389   2.422  18.059  0.6748 -0.6256  2.2626
 5340TIP3    H240216   2.312   2.550  18.089  0.6357  0.0200 -0.3482
 5341TIP3   OH240217   5.299   4.211  18.565  0.2321 -0.1876  0.4475
 5341TIP3    H140218   5.212   4.225  18.603  0.5991  1.1205  0.8580
 5341TIP3    H240219   5.292   4.248  18.477 -0.2847 -2.1983 -0.4136
 5342TIP3   OH240220   4.429   3.031  17.034 -0.3964 -0.0871  0.0164
 5342TIP3    H140221   4.473   3.052  16.951 -1.5211  0.7152 -0.4202
 5342TIP3    H240222   4.442   2.937  17.045  1.2701  0.0934 -0.1534
 5343TIP3   OH240223   0.168   0.432  18.340  0.9536 -0.4625 -0.7856
 5343TIP3    H140224   0.159   0.493  18.413  1.7091  0.4969 -1.4674
 5343TIP3    H240225   0.237   0.371  18.367  0.6098 -0.6607 -0.3463
 5344TIP3   OH240226   6.657   2.230  18.437  0.4324 -0.3026  0.2111
 5344TIP3    H140227   6.659   2.176  18.359  0.5679 -1.2551  0.8563
 5344TIP3    H240228   6.749   2.248  18.456  0.4628 -0.9675  0.7412
 5345TIP3   OH240229   3.796   5.180  17.711  0.2348  0.0700  0.1789
 5345TIP3    H140230   3.715   5.131  17.699  0.1676  0.2740 -0.2123
 5345TIP3    H240231   3.783   5.230  17.791 -0.1312  0.3178 -0.0356
 5346TIP3   OH240232   6.253   0.126  18.591 -0.3311  0.4158 -0.0477
 5346TIP3    H140233   6.201   0.101  18.667  1.9365 -1.3298  1.0521
 5346TIP3    H240234   6.339   0.149  18.626  0.6804 -0.1134 -2.0192
 5347TIP3   OH240235   3.665   1.937  18.520  0.1471 -0.0900 -0.4323
 5347TIP3    H140236   3.655   2.024  18.481 -0.3914  0.0499 -0.0113
 5347TIP3    H240237   3.581   1.894  18.503 -0.0302 -0.0883  0.3977
 5348TIP3   OH240238   6.058   5.596  18.933  0.1321  0.1602  0.3481
 5348TIP3    H140239   6.059   5.688  18.959  0.8779  0.6550 -1.2632
 5348TIP3    H240240   6.097   5.549  19.007  0.9720  1.3125  0.6646
 5349TIP3   OH240241   2.079   4.798  19.484 -0.3746  0.1574  0.2851
 5349TIP3    H140242   2.004   4.742  19.464 -0.8261  0.1003  2.0257
 5349TIP3    H240243   2.047   4.887  19.466 -0.7230  0.0991  0.5911
 5350TIP3   OH240244   6.230   5.814  17.753  0.1381  0.0669 -0.2754
 5350TIP3    H140245   6.170   5.826  17.826 -2.0492  1.4076 -2.1702
 5350TIP3    H240246   6.240   5.902  17.715  1.1489 -0.5986 -1.6532
 5351TIP3   OH240247   0.876   6.621  17.312  0.5164  0.1782  0.1832
 5351TIP3    H140248   0.807   6.559  17.339  0.4946 -0.2272 -0.7856
 5351TIP3    H240249   0.951   6.566  17.291  0.0852  0.3233 -1.9915
 5352TIP3   OH240250   1.491   0.455  16.865  0.0706  0.0946  0.2162
 5352TIP3    H140251   1.428   0.476  16.796  0.0468 -0.9699 -0.1028
 5352TIP3    H240252   1.577   0.467  16.823  0.2400  3.7395  1.2666
 5353TIP3   OH240253   3.851   7.521  17.498  0.2384 -0.1471 -0.0699
 5353TIP3    H140254   3.765   7.562  17.492 -0.2786 -0.9365  1.3963
 5353TIP3    H240255   3.832   7.428  17.510  1.2983 -0.3833 -0.1229
 5354TIP3   OH240256   0.256   5.150  17.249  0.2467  0.1105  0.0655
 5354TIP3    H140257   0.216   5.085  17.192  0.8422 -0.7543  0.6089
 5354TIP3    H240258   0.307   5.206  17.190  0.0525 -0.1497 -0.3542
 5355TIP3   OH240259   7.279   1.808  18.188  0.0482 -0.1314  0.1298
 5355TIP3    H140260   7.192   1.815  18.148 -0.1538 -0.1569  0.5649
 5355TIP3    H240261   7.266   1.832  18.279  0.6475  0.6326  0.0250
 5356TIP3   OH240262   2.085   6.862  18.894  0.2775 -0.4672 -0.0840
 5356TIP3    H140263   2.136   6.927  18.847  0.0041 -0.9039 -1.0196
 5356TIP3    H240264   2.061   6.797  18.827 -2.2835  0.1866  0.0974
 5357TIP3   OH240265   3.426   0.988  18.839  0.0510  0.2039 -0.1760
 5357TIP3    H140266   3.392   1.060  18.785 -0.4287  0.5118  0.5221
 5357TIP3    H240267   3.399   1.010  18.928  0.4738 -0.5117  0.1385
 5358TIP3   OH240268   4.515   3.545  18.209 -0.5846 -0.0376  0.4084
 5358TIP3    H140269   4.514   3.491  18.130  0.7445 -0.8521  0.9096
 5358TIP3    H240270   4.444   3.510  18.263  0.3679 -1.4312  0.7955
 5359TIP3   OH240271   4.509   6.480  16.691 -0.0629 -0.1514 -0.0756
 5359TIP3    H140272   4.458   6.400  16.682  0.5182 -1.0941  3.4934
 5359TIP3    H240273   4.448   6.544  16.727  0.7964 -0.9170  2.9983
 5360TIP3   OH240274   4.534   4.946  19.419 -0.1200 -0.2700  0.0992
 5360TIP3    H140275   4.559   4.857  19.442 -0.6210 -0.1421  1.1582
 5360TIP3    H240276   4.442   4.939  19.393  0.2753 -0.3200 -1.4236
 5361TIP3   OH240277   1.292   2.994  18.729  0.3222  0.2179 -0.2603
 5361TIP3    H140278   1.371   2.975  18.679  0.7571  0.1749  0.4320
 5361TIP3    H240279   1.324   3.029  18.812 -0.3954  0.5716 -0.1257
 5362TIP3   OH240280   4.493   7.000  17.200  0.2388 -0.2679 -0.8417
 5362TIP3    H140281   4.477   7.005  17.106 -1.9900  1.1470 -0.4645
 5362TIP3    H240282   4.456   6.916  17.227  0.6817 -0.5742 -1.1751
 5363TIP3   OH240283   1.884   6.875  19.061 -0.0954  0.2773 -0.2275
 5363TIP3    H140284   1.845   6.797  19.023 -2.2442  1.5991 -0.8728
 5363TIP3    H240285   1.959   6.894  19.005 -1.7148  0.7304 -2.3732
 5364TIP3   OH240286   2.936   5.282  17.547  0.2678 -0.5905  0.5209
 5364TIP3    H140287   2.999   5.250  17.613  1.3051  1.1815  0.4422
 5364TIP3    H240288   2.914   5.370  17.576 -0.4230 -0.3481 -0.7073
 5365TIP3   OH240289   6.975   0.530  18.507 -0.0148  1.0387 -0.0488
 5365TIP3    H140290   6.907   0.490  18.561 -0.4702  0.5674 -0.9417
 5365TIP3    H240291   7.013   0.598  18.562  0.8903 -0.7016  1.5800
 5366TIP3   OH240292   1.040   0.173  17.746  0.3106  0.0938  0.2307
 5366TIP3    H140293   1.118   0.137  17.703  2.0389  1.4629  2.0136
 5366TIP3    H240294   1.068   0.260  17.776 -2.0660  0.7935  0.5991
 5367TIP3   OH240295   4.617   2.336  18.549 -0.1143  0.2609  0.1401
 5367TIP3    H140296   4.574   2.302  18.626  0.8270 -2.4847 -0.4393
 5367TIP3    H240297   4.681   2.399  18.583 -1.0083  0.5312  1.3921
 5368TIP3   OH240298   0.720   7.162  18.593  0.5534  0.5901  0.6728
 5368TIP3    H140299   0.752   7.071  18.592 -1.0156  0.0163 -0.0661
 5368TIP3    H240300   0.774   7.206  18.527 -0.3322 -0.4443 -0.8181
 5369TIP3   OH240301   4.034   3.774  18.173  0.2536 -0.4298  0.2069
 5369TIP3    H140302   3.995   3.858  18.146 -1.8118 -0.2732  3.1930
 5369TIP3    H240303   4.127   3.785  18.157  0.1312  2.6788  0.9486
 5370TIP3   OH240304   5.599   3.434  19.072  0.0739  0.7101  0.0260
 5370TIP3    H140305   5.680   3.458  19.027 -0.4409  0.9386 -0.8052
 5370TIP3    H240306   5.579   3.510  19.128  0.6434  0.4820  0.5453
 5371TIP3   OH240307   4.942   1.464  18.543 -0.0812 -0.0405  0.3219
 5371TIP3    H140308   4.884   1.488  18.471 -0.8833 -1.3007  0.4989
 5371TIP3    H240309   4.965   1.372  18.526  0.9350  0.0980  0.8719
 5372TIP3   OH240310   4.619   4.325  19.477  0.2745  0.3854 -0.5993
 5372TIP3    H140311   4.628   4.288  19.389  2.0626  0.0982 -0.3280
 5372TIP3    H240312   4.534   4.370  19.475  0.6370  1.1116 -2.7515
 5373TIP3   OH240313   3.142   0.911  19.574  0.0561  0.2989 -0.0841
 5373TIP3    H140314   3.128   1.002  19.546 -0.5720  0.6102  1.1754
 5373TIP3    H240315   3.178   0.918  19.662 -1.0725 -0.6822  0.4753
 5374TIP3   OH240316   7.555   3.590  17.367 -0.0378 -0.0467 -0.3532
 5374TIP3    H140317   7.642   3.620  17.341  0.7417 -1.2773  0.6793
 5374TIP3    H240318   7.494   3.653  17.328  1.3688  1.4309 -0.2487
 5375TIP3   OH240319   2.827   0.350  18.367 -0.4495 -0.0853 -0.1887
 5375TIP3    H140320   2.765   0.309  18.308  0.0178 -0.1919 -0.6071
 5375TIP3    H240321   2.906   0.365  18.314 -0.3477  0.6469  0.1594
 5376TIP3   OH240322   6.220   2.622  18.628 -0.0655 -0.2050  0.1114
 5376TIP3    H140323   6.284   2.581  18.570  0.3959 -0.2466  0.6458
 5376TIP3    H240324   6.270   2.685  18.679 -0.7861  1.1337 -0.7764
 5377TIP3   OH240325   0.271   3.700  17.965  0.2082 -0.9120 -0.0381
 5377TIP3    H140326   0.261   3.625  18.024  0.9687  0.3110  1.7438
 5377TIP3    H240327   0.185   3.709  17.924 -0.5772 -1.4346  1.4078
 5378TIP3   OH240328   3.224   2.564  18.974 -0.4051  0.3654  0.5389
 5378TIP3    H140329   3.214   2.477  18.934 -0.5554  0.0378  1.2698
 5378TIP3    H240330   3.314   2.566  19.006 -0.3490  0.5444  0.3680
 5379TIP3   OH240331   4.178   1.726  18.469  0.4850 -0.1604 -0.1990
 5379TIP3    H140332   4.085   1.737  18.489  0.7259 -1.3680  1.8406
 5379TIP3    H240333   4.189   1.631  18.462  1.8593 -0.1341  1.2653
 5380TIP3   OH240334   1.914   1.363  18.021  0.0907 -0.2218 -0.0587
 5380TIP3    H140335   1.976   1.436  18.031  0.5756 -0.8088  1.6011
 5380TIP3    H240336   1.871   1.356  18.106 -3.3304  1.0081 -1.5132
 5381TIP3   OH240337   4.252   6.440  17.847  0.1352 -0.7344 -0.7350
 5381TIP3    H140338   4.269   6.457  17.940  1.2293 -0.6735 -0.9358
 5381TIP3    H240339   4.213   6.521  17.815 -1.8259 -1.3094  0.0160
 5382TIP3   OH240340   7.261   4.811  18.040 -0.5291  0.2998  0.0516
 5382TIP3    H140341   7.221   4.868  17.975 -0.7358 -0.3834 -0.4273
 5382TIP3    H240342   7.346   4.852  18.058 -0.6903  0.7806 -0.2550
 5383TIP3   OH240343   3.216   2.270  17.185 -0.1571 -0.3509 -0.0336
 5383TIP3    H140344   3.163   2.199  17.220 -0.5235  0.1295  0.4135
 5383TIP3    H240345   3.161   2.310  17.118  0.7554 -1.6149 -1.6088
 5384TIP3   OH240346   1.964   0.784  19.115  0.0401  0.1142 -0.1263
 5384TIP3    H140347   2.031   0.734  19.161 -0.1487  1.0447  1.2304
 5384TIP3    H240348   1.966   0.871  19.156 -0.2477  0.9586 -1.7876
 5385TIP3   OH240349   3.121   0.064  18.367 -0.0123 -0.0428  0.1091
 5385TIP3    H140350   3.027   0.047  18.354 -0.1259  0.6726 -0.0821
 5385TIP3    H240351   3.123   0.145  18.418  0.5109  0.6126 -0.9218
 5386TIP3   OH240352   1.224   5.092  18.879 -0.4259  0.0773 -0.2150
 5386TIP3    H140353   1.213   5.101  18.785  0.1698  0.1337 -0.2785
 5386TIP3    H240354   1.212   4.998  18.895  0.6828 -0.1197 -0.5080
 5387TIP3   OH240355   5.003   2.692  17.176  0.0197 -0.3160  0.3897
 5387TIP3    H140356   4.989   2.598  17.188 -1.8149 -0.3922 -1.6646
 5387TIP3    H240357   4.916   2.729  17.164  0.8081  1.3101 -0.9057
 5388TIP3   OH240358   6.409   3.887  19.084  0.0576 -0.2115  0.0347
 5388TIP3    H140359   6.483   3.906  19.141 -0.9402 -0.8196  1.6042
 5388TIP3    H240360   6.419   3.947  19.010  1.8766 -0.0169  0.3993
 5389TIP3   OH240361   6.736   4.768  19.509 -0.2594  0.3163  0.0271
 5389TIP3    H140362   6.687   4.706  19.562  0.4732  0.8821  1.4039
 5389TIP3    H240363   6.674   4.795  19.441 -0.9372 -1.0718  0.0584
 5390TIP3   OH240364   3.255   4.050  18.528 -0.0736  0.6023  0.0171
 5390TIP3    H140365   3.328   4.003  18.487 -0.1727  1.0550 -0.6983
 5390TIP3    H240366   3.224   4.110  18.459 -1.1107  0.4237  0.3215
 5391TIP3   OH240367   7.123   0.213  11.174 -0.3206 -0.1110  0.7141
 5391TIP3    H140368   7.146   0.283  11.236 -1.3866  0.6763  0.2375
 5391TIP3    H240369   7.069   0.153  11.225 -0.2928 -0.0389  0.8309
 5392TIP3   OH240370   0.575   7.266  11.273 -0.4396 -0.0163 -0.0780
 5392TIP3    H140371   0.535   7.205  11.335  2.2107  0.3918  2.2251
 5392TIP3    H240372   0.636   7.212  11.222  3.0811  0.6458  3.0053
 5393TIP3   OH240373   3.968   0.014  11.591 -0.3014  0.0257  0.3067
 5393TIP3    H140374   4.008  -0.007  11.676  0.5664  0.5145  0.0371
 5393TIP3    H240375   4.028   0.078  11.552 -0.4819 -0.4912 -0.8496
 5394TIP3   OH240376   0.358   5.726  11.380  0.7145 -0.1487 -0.3509
 5394TIP3    H140377   0.309   5.660  11.330  2.1474 -0.5392 -1.3004
 5394TIP3    H240378   0.295   5.797  11.395 -0.5079 -1.1950 -0.3644
 5395TIP3   OH240379   6.494   5.444  11.272 -0.6862  0.1786  0.7629
 5395TIP3    H140380   6.444   5.371  11.233  1.6572 -0.9681 -0.2741
 5395TIP3    H240381   6.508   5.417  11.362  0.9570 -1.1794  0.1512
 5396TIP3   OH240382   6.054   0.881  11.918  0.0665 -0.0438  0.2403
 5396TIP3    H140383   5.992   0.810  11.933 -0.4457  0.9096  3.4864
 5396TIP3    H240384   6.138   0.846  11.946  0.0470  0.1933  0.6092
 5397TIP3   OH240385   5.198   2.892  12.182  0.2878  0.5616  0.0419
 5397TIP3    H140386   5.245   2.808  12.184 -0.5184  0.0783 -0.4596
 5397TIP3    H240387   5.118   2.873  12.133  0.6389  1.9222 -1.1226
 5398TIP3   OH240388   7.031   4.458  11.832  0.4252 -0.6979  0.1724
 5398TIP3    H140389   7.068   4.438  11.746  3.2068 -0.8110  1.2872
 5398TIP3    H240390   6.960   4.394  11.843 -1.7387  0.8753 -2.9347
 5399TIP3   OH240391   4.197   3.380  13.577 -0.2838 -0.0716 -0.3592
 5399TIP3    H140392   4.282   3.336  13.577 -0.1693  0.1309  0.3136
 5399TIP3    H240393   4.133   3.310  13.569 -0.0546 -0.2284 -0.8442
 5400TIP3   OH240394   6.178   2.498  11.932  0.2538  0.0839  0.0457
 5400TIP3    H140395   6.207   2.545  11.854  0.7345 -0.2506  0.0171
 5400TIP3    H240396   6.118   2.559  11.976  0.8676  0.7261  0.0163
 5401TIP3   OH240397   4.841   2.152  11.819 -0.3954  0.6570  0.2645
 5401TIP3    H140398   4.927   2.192  11.809  1.2052 -2.6712 -0.6860
 5401TIP3    H240399   4.835   2.090  11.747 -2.6649 -0.7858  1.5802
 5402TIP3   OH240400   5.870   1.278  11.811  0.0767  0.1915 -0.0959
 5402TIP3    H140401   5.836   1.191  11.832 -0.6463  0.4366 -0.2073
 5402TIP3    H240402   5.829   1.336  11.876  0.7632  0.4097  0.1443
 5403TIP3   OH240403   1.843   6.614  10.830  0.7425  0.5683 -0.0094
 5403TIP3    H140404   1.771   6.671  10.855  0.5825  0.2167  0.3334
 5403TIP3    H240405   1.805   6.554  10.766  0.0513 -1.2305  1.9594
 5404TIP3   OH240406   1.900   4.985  10.591 -0.4969  0.4957  1.0116
 5404TIP3    H140407   1.875   5.069  10.554 -1.9150  0.6036  2.1340
 5404TIP3    H240408   1.961   5.007  10.662  1.5040  0.3460 -0.5980
 5405TIP3   OH240409   5.503   2.646  11.226  0.3736  0.1643  0.1624
 5405TIP3    H140410   5.552   2.600  11.158 -2.1108 -2.0193 -0.3253
 5405TIP3    H240411   5.566   2.658  11.297  2.2072 -0.2773 -1.2993
 5406TIP3   OH240412   6.217   3.526  12.303  0.0010  0.3333  0.1758
 5406TIP3    H140413   6.301   3.499  12.266 -0.4576  1.1599 -1.6104
 5406TIP3    H240414   6.237   3.602  12.357  0.4757  0.1009  0.3301
 5407TIP3   OH240415   1.554   5.505  12.506 -0.1150 -0.1834 -0.6704
 5407TIP3    H140416   1.473   5.465  12.540  0.1117  0.0753  0.1820
 5407TIP3    H240417   1.538   5.514  12.412 -0.0173 -2.6980 -1.0120
 5408TIP3   OH240418   4.205   6.144  13.239 -0.1768  0.3478 -0.4247
 5408TIP3    H140419   4.153   6.108  13.167  0.1424 -2.3177  0.5451
 5408TIP3    H240420   4.231   6.067  13.290  1.2856  1.9619  1.4214
 5409TIP3   OH240421   5.219   0.389  12.751  0.6053 -0.1670 -0.3839
 5409TIP3    H140422   5.309   0.412  12.725  0.7964 -0.1057  0.2983
 5409TIP3    H240423   5.225   0.377  12.846 -0.0232 -0.5888 -0.3956
 5410TIP3   OH240424   6.402   4.040  11.969  0.3986 -0.6304 -0.1648
 5410TIP3    H140425   6.480   4.014  12.019 -0.4787 -0.9538  1.0920
 5410TIP3    H240426   6.330   3.995  12.013 -0.7154  0.9948 -0.2635
 5411TIP3   OH240427   6.009   6.776  11.323 -0.5505  0.5877 -0.3450
 5411TIP3    H140428   5.995   6.702  11.265  0.0297  1.8533 -2.1787
 5411TIP3    H240429   6.054   6.841  11.269 -0.9210  2.2382  1.2325
 5412TIP3   OH240430   5.972   3.433  12.186  0.0836  0.1738  0.4189
 5412TIP3    H140431   5.993   3.341  12.171 -0.4827  0.1842 -0.5568
 5412TIP3    H240432   6.046   3.467  12.235  0.6919 -0.6098  0.0635
 5413TIP3   OH240433   6.226   2.844  11.907 -0.2620 -0.7958 -0.2276
 5413TIP3    H140434   6.137   2.813  11.926 -0.4515 -0.0732  0.1103
 5413TIP3    H240435   6.277   2.821  11.985  0.0417 -1.8969 -0.7307
 5414TIP3   OH240436   2.800   3.473  13.096  0.1706  0.5675 -0.2066
 5414TIP3    H140437   2.748   3.393  13.083 -1.1619  1.1535  1.2310
 5414TIP3    H240438   2.890   3.445  13.081 -0.4701 -0.5779 -2.4182
 5415TIP3   OH240439   7.137   2.623  12.808 -0.3752 -0.3581  0.3903
 5415TIP3    H140440   7.046   2.594  12.809 -0.3896 -0.3893 -0.5864
 5415TIP3    H240441   7.135   2.706  12.759  0.2983 -1.0418 -0.8389
 5416TIP3   OH240442   5.360   7.011  12.062  0.4401  0.6266  0.2763
 5416TIP3    H140443   5.285   6.997  12.003  1.0893  3.5354 -1.4492
 5416TIP3    H240444   5.423   6.944  12.036 -0.7350 -0.5656  0.3500
 5417TIP3   OH240445   7.578   2.625  10.690  0.1663  0.1580 -0.2272
 5417TIP3    H140446   7.511   2.644  10.625 -1.2021  0.2707  1.1720
 5417TIP3    H240447   7.661   2.632  10.641 -0.7301  1.4062 -1.6625
 5418TIP3   OH240448   0.195   4.198  10.539 -0.4107 -0.3341  0.2024
 5418TIP3    H140449   0.134   4.259  10.497 -1.8227 -0.9517  1.2589
 5418TIP3    H240450   0.231   4.246  10.613 -0.5494 -0.3509  0.2822
 5419TIP3   OH240451   6.545   6.845  10.858  0.4366  0.2223 -0.5092
 5419TIP3    H140452   6.623   6.822  10.908 -0.1913  0.5409  0.6484
 5419TIP3    H240453   6.575   6.912  10.796  0.9394  0.9008  0.4404
 5420TIP3   OH240454   3.493   5.194  12.382 -0.1654  0.1480  0.0018
 5420TIP3    H140455   3.489   5.289  12.373 -0.9325  0.1551  0.3598
 5420TIP3    H240456   3.402   5.165  12.380  0.0121 -0.5053  0.7185
 5421TIP3   OH240457   4.744   2.921  11.217  0.1017 -0.5568 -0.5487
 5421TIP3    H140458   4.688   2.851  11.184 -0.7556  0.3345 -1.0645
 5421TIP3    H240459   4.810   2.877  11.269 -0.8026 -1.6890 -0.3181
 5422TIP3   OH240460   4.213   4.778  11.676  0.3779 -0.2048 -0.0157
 5422TIP3    H140461   4.308   4.771  11.685  0.5884  1.1224 -0.9240
 5422TIP3    H240462   4.197   4.871  11.659 -0.8988 -0.6848 -1.7601
 5423TIP3   OH240463   0.431   6.684  11.107 -0.0397 -0.2156  0.4039
 5423TIP3    H140464   0.484   6.745  11.055 -0.2895 -0.1214  0.2566
 5423TIP3    H240465   0.387   6.739  11.172  0.4900 -0.3707  0.9052
 5424TIP3   OH240466   3.840   6.763  12.533  0.1849 -0.0450  0.3876
 5424TIP3    H140467   3.917   6.788  12.482  0.3672 -1.0382  0.1379
 5424TIP3    H240468   3.766   6.790  12.478  0.3764 -1.7465 -0.8001
 5425TIP3   OH240469   6.631   4.614  11.105 -0.2325 -0.3581  0.4947
 5425TIP3    H140470   6.611   4.555  11.032 -1.3480  0.1168  0.3932
 5425TIP3    H240471   6.561   4.599  11.168 -1.7239  2.2097 -0.3943
 5426TIP3   OH240472   6.253   4.416  11.229 -0.1851  0.2440 -0.0664
 5426TIP3    H140473   6.344   4.388  11.232  0.3306  1.5654 -1.7384
 5426TIP3    H240474   6.217   4.391  11.314  1.0439 -2.4870 -0.2410
 5427TIP3   OH240475   7.085   0.435  11.603 -0.7019  0.2910 -0.7364
 5427TIP3    H140476   7.031   0.365  11.567 -0.4086  0.0054 -0.6281
 5427TIP3    H240477   7.141   0.391  11.668  0.1872  0.4461 -1.3777
 5428TIP3   OH240478   2.387   3.494  11.366 -0.4730 -0.3724  0.5835
 5428TIP3    H140479   2.317   3.508  11.430 -1.7893 -0.9964 -0.6520
 5428TIP3    H240480   2.344   3.503  11.281  0.9349 -0.8769 -0.2188
 5429TIP3   OH240481   0.824   6.365  12.931 -0.6181  0.1117  0.2536
 5429TIP3    H140482   0.896   6.416  12.966  0.0276  0.5559 -1.5982
 5429TIP3    H240483   0.836   6.278  12.969  0.2570  0.4638  0.8130
 5430TIP3   OH240484   0.043   0.890  11.372  0.2844  0.2299  0.2631
 5430TIP3    H140485   0.121   0.848  11.336 -0.2828 -0.4358 -0.2031
 5430TIP3    H240486   0.026   0.963  11.313  0.8657  0.7149  0.6789
 5431TIP3   OH240487   2.903   5.141  13.353 -0.5061 -0.5498  0.0462
 5431TIP3    H140488   2.994   5.113  13.366 -0.5185  0.3087  2.7193
 5431TIP3    H240489   2.905   5.192  13.272  1.1724 -1.4233 -0.5008
 5432TIP3   OH240490   6.586   4.163  12.272 -0.0037  0.3175 -0.3903
 5432TIP3    H140491   6.622   4.084  12.232 -1.1867  0.0804 -1.0248
 5432TIP3    H240492   6.570   4.139  12.363 -0.9067 -0.3763 -0.7207
 5433TIP3   OH240493   2.238   4.774  11.054 -0.1019  0.2119 -0.4894
 5433TIP3    H140494   2.170   4.765  10.987 -0.4736 -1.8997  0.0908
 5433TIP3    H240495   2.308   4.716  11.024 -0.4600 -1.1215  1.1237
 5434TIP3   OH240496   6.683   5.114  12.737 -0.8660 -0.6749  0.1328
 5434TIP3    H140497   6.759   5.172  12.726  0.4941 -2.3134  0.5827
 5434TIP3    H240498   6.626   5.137  12.663 -1.7683  3.1424  1.7460
 5435TIP3   OH240499   6.482   0.650  12.165 -0.2278  0.0355 -0.5382
 5435TIP3    H140500   6.553   0.713  12.176 -0.7591  0.6461 -0.5238
 5435TIP3    H240501   6.500   0.582  12.230  0.2590  0.2565 -0.4313
 5436TIP3   OH240502   1.681   2.351  10.726  0.0573 -0.0796 -0.4876
 5436TIP3    H140503   1.762   2.393  10.753 -0.9318  0.8113  1.3196
 5436TIP3    H240504   1.688   2.261  10.758  0.0710  0.1848  0.2681
 5437TIP3   OH240505   2.505   2.720  12.241  0.9375  0.0809 -0.3327
 5437TIP3    H140506   2.535   2.659  12.309  0.3471  0.1306 -0.0238
 5437TIP3    H240507   2.440   2.774  12.285 -0.1895 -0.5330 -1.1978
 5438TIP3   OH240508   5.262   1.769  10.944  0.5746  0.1809  0.1406
 5438TIP3    H140509   5.302   1.688  10.974  0.4191 -1.5268 -3.6126
 5438TIP3    H240510   5.184   1.779  10.998 -0.0369 -2.9045 -0.0085
 5439TIP3   OH240511   4.760   6.792  13.091 -0.3132 -0.3374 -0.2493
 5439TIP3    H140512   4.794   6.828  13.173 -0.2507  0.5169 -0.6448
 5439TIP3    H240513   4.737   6.868  13.039 -1.4537 -0.8866 -0.5764
 5440TIP3   OH240514   0.896   0.990  12.912  0.3777  0.3767 -0.5560
 5440TIP3    H140515   0.906   1.016  13.004  0.5480  0.1464 -0.5068
 5440TIP3    H240516   0.802   0.979  12.901  0.4277 -0.7347 -0.0797
 5441TIP3   OH240517   0.239   7.572  12.173 -0.1855 -0.1980  0.0779
 5441TIP3    H140518   0.265   7.523  12.094  1.2406 -0.3775  0.6298
 5441TIP3    H240519   0.270   7.661  12.156  1.6600 -0.6110  1.1179
 5442TIP3   OH240520   4.185   2.252  10.740  0.2701  0.5234  0.2528
 5442TIP3    H140521   4.271   2.279  10.707  0.3766  1.2616  1.1208
 5442TIP3    H240522   4.167   2.311  10.813 -0.7012 -0.0303  0.4782
 5443TIP3   OH240523   3.632   4.140  13.348  0.4522  0.2178  0.2209
 5443TIP3    H140524   3.559   4.201  13.339  0.4462  0.3316  0.9911
 5443TIP3    H240525   3.707   4.186  13.311  0.1811  0.1797 -0.3885
 5444TIP3   OH240526   4.888   4.939  11.944  0.0626 -0.0582 -0.0524
 5444TIP3    H140527   4.936   4.950  12.027 -2.1040 -0.5539  1.3334
 5444TIP3    H240528   4.844   4.855  11.952 -0.3424 -0.0313 -1.6625
 5445TIP3   OH240529   5.845   4.356  12.306 -0.2827 -0.6477  0.6535
 5445TIP3    H140530   5.935   4.331  12.286  0.3061  1.6165  0.2042
 5445TIP3    H240531   5.793   4.319  12.233  0.3901 -1.1908  0.4385
 5446TIP3   OH240532   7.408   4.351  10.820 -0.2613  0.2110  0.7939
 5446TIP3    H140533   7.465   4.300  10.877  0.3358  0.1261  0.1252
 5446TIP3    H240534   7.334   4.292  10.802 -0.5473  0.3005  1.6036
 5447TIP3   OH240535   6.172   3.360  11.652 -0.2272  0.3716  0.2947
 5447TIP3    H140536   6.266   3.344  11.663 -0.2897 -0.5336 -0.2812
 5447TIP3    H240537   6.144   3.289  11.593 -0.8816  1.7728 -1.1492
 5448TIP3   OH240538   0.431   4.018  11.296 -0.2896 -0.6545  0.5635
 5448TIP3    H140539   0.446   3.939  11.245  1.9982 -0.1803  0.3668
 5448TIP3    H240540   0.502   4.018  11.361 -0.5913  0.9181  0.9368
 5449TIP3   OH240541   6.677   1.636  11.178  0.1375 -0.5139 -0.4516
 5449TIP3    H140542   6.623   1.651  11.100  1.1150 -1.8769 -1.4494
 5449TIP3    H240543   6.765   1.619  11.143  0.6898 -0.7640  0.9841
 5450TIP3   OH240544   0.455   2.267  12.479 -0.2255 -0.5552  0.0374
 5450TIP3    H140545   0.472   2.178  12.509 -0.5234 -0.7184 -0.2661
 5450TIP3    H240546   0.515   2.280  12.406  0.2761 -0.2708  0.4906
 5451TIP3   OH240547   5.987   6.131  11.624  0.5777  0.1516  0.1179
 5451TIP3    H140548   6.012   6.182  11.547 -2.4536  0.6764 -0.6564
 5451TIP3    H240549   6.066   6.083  11.648  1.8589  0.5338 -2.8812
 5452TIP3   OH240550   0.889   6.564  10.897  0.8700  0.4384 -0.0426
 5452TIP3    H140551   0.801   6.567  10.860 -0.1259  0.1728  2.1981
 5452TIP3    H240552   0.916   6.656  10.899  0.8674  0.4865 -1.1397
 5453TIP3   OH240553   1.110   3.524  13.581 -0.1192  0.1872 -0.1522
 5453TIP3    H140554   1.204   3.508  13.571 -0.3646 -1.0184 -0.7844
 5453TIP3    H240555   1.071   3.436  13.580 -1.1463  0.5875  1.3848
 5454TIP3   OH240556   1.067   2.886  11.611 -0.2823  0.2302  0.4049
 5454TIP3    H140557   1.113   2.918  11.534 -1.2647 -0.0065 -0.3007
 5454TIP3    H240558   1.013   2.814  11.579  0.5136 -0.9470  1.6288
 5455TIP3   OH240559   3.268   6.648  12.513  0.3043 -0.0289 -0.2723
 5455TIP3    H140560   3.316   6.717  12.466  0.1369  1.2005  1.2699
 5455TIP3    H240561   3.273   6.674  12.605 -2.8716 -0.1327  0.0316
 5456TIP3   OH240562   0.615   4.599  11.644  1.1050 -0.6386  0.5392
 5456TIP3    H140563   0.610   4.503  11.642  1.4470 -0.6862 -2.1082
 5456TIP3    H240564   0.618   4.624  11.552 -1.3277  2.0897  1.0706
 5457TIP3   OH240565   2.440   0.669  11.676 -0.0751  0.1591 -0.1142
 5457TIP3    H140566   2.349   0.691  11.695  0.3267  1.8856 -0.0821
 5457TIP3    H240567   2.466   0.728  11.606  0.5672 -1.4182 -1.2711
 5458TIP3   OH240568   7.547   0.700  13.139  0.2332  0.7989  0.2795
 5458TIP3    H140569   7.522   0.729  13.051  1.6289 -0.7565 -0.6931
 5458TIP3    H240570   7.545   0.780  13.192 -4.3776  1.2504 -0.1443
 5459TIP3   OH240571   3.531   2.084  12.099  0.4561 -0.2728  0.0327
 5459TIP3    H140572   3.561   2.009  12.149  2.1811  0.8343  0.7336
 5459TIP3    H240573   3.500   2.146  12.164 -3.5922 -1.3202 -0.6339
 5460TIP3   OH240574   2.693   6.593  12.620  0.1558 -0.1637  0.2008
 5460TIP3    H140575   2.641   6.665  12.656 -0.5557 -0.0954 -0.9217
 5460TIP3    H240576   2.680   6.521  12.682 -1.4608 -0.2115 -0.1548
 5461TIP3   OH240577   5.662   7.339  11.660  0.0366  0.2464 -0.1147
 5461TIP3    H140578   5.637   7.354  11.751 -0.1161 -0.4442 -0.0307
 5461TIP3    H240579   5.726   7.407  11.641  1.4479 -0.6589  1.1013
 5462TIP3   OH240580   7.205   7.100  12.154 -0.5022 -0.0823  0.0030
 5462TIP3    H140581   7.191   7.124  12.062  2.3016  0.2903 -0.4129
 5462TIP3    H240582   7.152   7.164  12.203 -0.5939  0.9040 -1.3140
 5463TIP3   OH240583   4.340   0.425  10.767 -0.2735 -0.3260 -0.2859
 5463TIP3    H140584   4.366   0.469  10.686 -0.0555 -0.0921 -0.0884
 5463TIP3    H240585   4.248   0.448  10.778 -0.4425 -0.7596 -0.7270
 5464TIP3   OH240586   4.819   2.218  12.869  0.0733  0.7046 -0.0504
 5464TIP3    H140587   4.800   2.144  12.926 -0.0289 -1.5972 -2.8585
 5464TIP3    H240588   4.734   2.254  12.847 -0.0407  0.1439 -0.5370
 5465TIP3   OH240589   4.904   0.791  10.787 -0.3352  0.2010  0.0450
 5465TIP3    H140590   4.992   0.791  10.825  0.3497  0.0462 -1.4744
 5465TIP3    H240591   4.875   0.882  10.792  0.3904  0.4638 -0.5036
 5466TIP3   OH240592   6.858   1.460  12.300  0.3443 -0.6941  0.1846
 5466TIP3    H140593   6.901   1.521  12.240  0.4888 -0.7450  0.2353
 5466TIP3    H240594   6.777   1.434  12.255  1.7508 -2.9192 -1.2590
 5467TIP3   OH240595   2.028   4.577  11.128  0.5007 -0.0380 -0.3094
 5467TIP3    H140596   2.110   4.624  11.117  0.5426  0.3834  1.4841
 5467TIP3    H240597   2.053   4.498  11.177  0.0426 -0.6781 -1.0752
 5468TIP3   OH240598   1.457   6.322  12.101  0.3267  0.0919  0.5606
 5468TIP3    H140599   1.539   6.359  12.134 -0.1634  1.3657  0.3954
 5468TIP3    H240600   1.390   6.384  12.128 -0.2746  0.4277 -1.5735
 5469TIP3   OH240601   3.065   1.660  11.439  0.5982  0.1123  0.3778
 5469TIP3    H140602   3.031   1.680  11.352 -0.6063 -1.6468  0.3909
 5469TIP3    H240603   3.029   1.728  11.496 -0.8595 -0.2532 -0.0620
 5470TIP3   OH240604   5.853   6.429  12.203  0.4462  0.2042 -0.3476
 5470TIP3    H140605   5.945   6.456  12.201 -0.5614  4.3293 -0.5628
 5470TIP3    H240606   5.817   6.459  12.119 -1.3895  0.1196  0.3630
 5471TIP3   OH240607   3.539   3.755  11.742  0.3614 -0.0274  0.4142
 5471TIP3    H140608   3.609   3.819  11.740  0.1372  0.2112 -0.5406
 5471TIP3    H240609   3.476   3.789  11.806  0.9859 -0.1183  1.0839
 5472TIP3   OH240610   2.134   6.492  10.870 -0.1501 -0.2120  0.0295
 5472TIP3    H140611   2.185   6.573  10.873 -0.3026  0.1234 -3.2151
 5472TIP3    H240612   2.043   6.520  10.874 -0.1977 -0.4856  1.4848
 5473TIP3   OH240613   0.160   5.886  11.178  0.1927 -0.2395  0.1990
 5473TIP3    H140614   0.191   5.947  11.244 -1.2023  0.4163  0.2840
 5473TIP3    H240615   0.215   5.903  11.101 -1.1733  2.3236 -0.3277
 5474TIP3   OH240616   3.297   6.007  12.295  0.2732  0.0309 -0.0313
 5474TIP3    H140617   3.222   6.039  12.346  0.5207  2.0977 -0.9036
 5474TIP3    H240618   3.361   6.077  12.299  1.0475 -0.5373 -1.6246
 5475TIP3   OH240619   1.065   2.977  11.849 -0.2529 -0.3055 -0.4639
 5475TIP3    H140620   1.034   3.065  11.831 -1.8792 -0.5606  0.8721
 5475TIP3    H240621   1.041   2.927  11.771 -1.4229 -0.0408 -0.2970
 5476TIP3   OH240622   1.620   1.364  10.662 -0.0898 -0.1892 -0.0559
 5476TIP3    H140623   1.611   1.422  10.586  1.5491  1.6386  1.0465
 5476TIP3    H240624   1.530   1.338  10.683 -1.0267  2.6876 -0.1034
 5477TIP3   OH240625   7.563   5.315  11.743 -0.1576 -0.0536  0.3695
 5477TIP3    H140626   7.569   5.404  11.709  1.3685 -0.6547 -1.1082
 5477TIP3    H240627   7.589   5.322  11.835  2.2998  0.7703 -0.2969
 5478TIP3   OH240628   7.036   4.702  12.677 -0.0274 -0.7103  0.0431
 5478TIP3    H140629   7.029   4.758  12.754  0.7767  0.1233 -0.4619
 5478TIP3    H240630   7.057   4.615  12.712  1.6242 -0.0865  0.7464
 5479TIP3   OH240631   6.589   5.395  10.620 -0.5163 -0.1551  0.3247
 5479TIP3    H140632   6.646   5.348  10.681  1.4937  1.9717  0.2509
 5479TIP3    H240633   6.619   5.367  10.533 -0.1733  0.3055  0.2925
 5480TIP3   OH240634   4.381   2.890  12.444 -0.2501 -0.0100  0.4492
 5480TIP3    H140635   4.339   2.805  12.460 -1.5187  0.4480 -0.3594
 5480TIP3    H240636   4.467   2.882  12.486 -1.3110 -0.7989  2.6002
 5481TIP3   OH240637   5.710   7.323  13.199 -0.5119 -0.1523 -0.0124
 5481TIP3    H140638   5.637   7.379  13.228 -0.0528 -0.5300  2.0698
 5481TIP3    H240639   5.785   7.383  13.195 -0.6988  0.0257 -1.1269
 5482TIP3   OH240640   0.160   2.694  10.606 -0.5631  0.4391  0.0009
 5482TIP3    H140641   0.202   2.744  10.675 -0.8382 -0.4092  0.8036
 5482TIP3    H240642   0.160   2.752  10.530  0.4834  1.0777  0.4803
 5483TIP3   OH240643   1.029   7.390  12.205 -0.3052 -0.3101  0.3335
 5483TIP3    H140644   1.043   7.433  12.290  1.3334 -1.1347  0.5122
 5483TIP3    H240645   1.110   7.342  12.189 -0.0634  0.8474 -2.3318
 5484TIP3   OH240646   0.345   4.649  10.722  0.0163  0.2531 -0.3387
 5484TIP3    H140647   0.405   4.711  10.763  0.4968  0.7645 -1.7293
 5484TIP3    H240648   0.309   4.697  10.647 -0.0683 -0.9358 -1.0911
 5485TIP3   OH240649   2.226   5.355  12.100  0.5929  0.2589 -0.1306
 5485TIP3    H140650   2.254   5.281  12.046 -0.0234 -0.2020  0.1663
 5485TIP3    H240651   2.134   5.368  12.077  0.6243  0.7688  0.0136
 5486TIP3   OH240652   4.617   5.091  10.909  0.3606  0.5252 -0.2950
 5486TIP3    H140653   4.603   5.048  10.824 -1.5759 -0.3331  0.3941
 5486TIP3    H240654   4.618   5.019  10.972 -1.5600  1.3151  0.7345
 5487TIP3   OH240655   2.202   3.320  12.525  0.0609  0.3577 -0.6315
 5487TIP3    H140656   2.138   3.390  12.536  1.0550  1.0295  1.4363
 5487TIP3    H240657   2.239   3.335  12.439 -1.5322  0.8078 -1.2775
 5488TIP3   OH240658   4.073   3.166  13.444  0.2211  0.0895  0.6547
 5488TIP3    H140659   4.155   3.120  13.462  0.5003 -0.4452 -1.6095
 5488TIP3    H240660   4.010   3.096  13.426 -0.7788  0.4929  2.3174
 5489TIP3   OH240661   6.106   5.257  13.135 -0.6826  0.3419 -0.1179
 5489TIP3    H140662   6.021   5.252  13.090 -2.3340  0.3753  2.7374
 5489TIP3    H240663   6.108   5.344  13.174  1.4457  0.9376 -1.3893
 5490TIP3   OH240664   4.490   3.886  12.297  0.0810  0.2893 -0.2033
 5490TIP3    H140665   4.404   3.844  12.303 -0.5234  1.5777  0.5232
 5490TIP3    H240666   4.549   3.828  12.346 -0.4429 -0.4023 -0.3773
 5491TIP3   OH240667   3.096   4.762  13.286  0.5843  0.7288 -0.1496
 5491TIP3    H140668   3.000   4.766  13.289  0.3820 -1.4720 -1.3592
 5491TIP3    H240669   3.118   4.682  13.334  1.9540  1.9232  1.2920
 5492TIP3   OH240670   4.278   6.420  13.292  0.0879 -0.7999  0.3708
 5492TIP3    H140671   4.371   6.411  13.270 -0.2598 -2.2992 -0.6166
 5492TIP3    H240672   4.239   6.336  13.266 -1.5784 -0.1217  0.5737
 5493TIP3   OH240673   2.644   0.468  10.593  0.4124  0.5384  0.1724
 5493TIP3    H140674   2.559   0.425  10.583  0.3455  0.6586  0.2247
 5493TIP3    H240675   2.647   0.494  10.685  0.7210  0.0824  0.2999
 5494TIP3   OH240676   6.563   3.583  12.797  0.0413  0.2171  0.0757
 5494TIP3    H140677   6.561   3.536  12.880  0.4969 -0.9987 -0.5785
 5494TIP3    H240678   6.513   3.664  12.814 -3.5789 -1.8673  0.4340
 5495TIP3   OH240679   0.887   1.575  12.980 -0.4335 -0.7495  0.4615
 5495TIP3    H140680   0.950   1.583  13.052 -0.5867  0.3573  0.4886
 5495TIP3    H240681   0.812   1.628  13.008  0.4974  1.8388 -1.5322
 5496TIP3   OH240682   4.541   4.331  12.795  0.2434  0.2441 -0.1884
 5496TIP3    H140683   4.546   4.401  12.731 -0.9424 -0.3427 -0.9482
 5496TIP3    H240684   4.476   4.359  12.858  1.1611  0.6669  0.5965
 5497TIP3   OH240685   5.297   5.977  12.490 -0.2371  0.2141 -0.1231
 5497TIP3    H140686   5.242   5.972  12.569  1.1390 -1.2185  0.8163
 5497TIP3    H240687   5.261   5.910  12.432 -0.5185  0.4403 -0.2089
 5498TIP3   OH240688   1.020   7.333  11.912 -0.3864 -0.0312  0.3900
 5498TIP3    H140689   0.930   7.358  11.894 -0.9151 -1.3669  1.0030
 5498TIP3    H240690   1.013   7.264  11.978  1.1028  0.0518  0.6798
 5499TIP3   OH240691   3.141   4.299  12.520 -0.2671 -0.6046 -0.1509
 5499TIP3    H140692   3.209   4.323  12.584 -0.2657 -0.3967 -0.2294
 5499TIP3    H240693   3.071   4.261  12.573 -0.9679  1.0468  0.1633
 5500TIP3   OH240694   2.211   5.630  13.209 -0.0182  0.3310  0.4794
 5500TIP3    H140695   2.128   5.627  13.161  0.3033 -0.4457 -0.0342
 5500TIP3    H240696   2.196   5.573  13.285  0.3785 -0.6542 -0.1651
 5501TIP3   OH240697   4.660   5.598  11.997  0.1329  0.5385  0.4831
 5501TIP3    H140698   4.700   5.547  12.067 -0.6620  1.1760  1.4287
 5501TIP3    H240699   4.568   5.603  12.021 -0.4339 -0.3417 -1.2976
 5502TIP3   OH240700   3.745   2.308  12.638  0.3655  0.2034  0.0587
 5502TIP3    H140701   3.728   2.354  12.556  2.5218  1.5739  0.3163
 5502TIP3    H240702   3.756   2.377  12.703 -0.1275 -0.8217  1.2912
 5503TIP3   OH240703   7.642   7.442  12.140  0.9052 -0.4945 -0.7092
 5503TIP3    H140704   7.611   7.496  12.068 -0.6894  0.4935  0.6576
 5503TIP3    H240705   7.734   7.466  12.149  0.6015  0.8948 -1.0872
 5504TIP3   OH240706   3.498   6.560  12.088 -0.3612  0.2959  0.2291
 5504TIP3    H140707   3.574   6.600  12.047  1.0732 -1.5160  0.9962
 5504TIP3    H240708   3.440   6.633  12.108  1.0076  1.6862 -0.7151
 5505TIP3   OH240709   2.552   6.480  13.031  0.4830  0.2619 -0.5337
 5505TIP3    H140710   2.514   6.518  12.953  0.0588  2.1887  0.5509
 5505TIP3    H240711   2.583   6.555  13.082  2.6679 -1.0318  0.2108
 5506TIP3   OH240712   2.597   5.361  10.590 -0.6772 -0.5573 -0.9021
 5506TIP3    H140713   2.596   5.457  10.580 -0.6639 -0.4715 -0.1374
 5506TIP3    H240714   2.651   5.346  10.668 -2.4726 -1.0445  0.3069
 5507TIP3   OH240715   1.848   4.401  11.000  0.2160  0.1616  0.3278
 5507TIP3    H140716   1.935   4.362  10.995 -0.0750 -0.6004  0.9929
 5507TIP3    H240717   1.852   4.459  11.076  0.0527 -0.1306  0.5635
 5508TIP3   OH240718   4.816   2.517  10.854  0.1627 -0.0379 -0.0912
 5508TIP3    H140719   4.853   2.570  10.785  0.2857 -1.6051 -1.2891
 5508TIP3    H240720   4.891   2.479  10.900  0.1292 -1.7338 -1.3391
 5509TIP3   OH240721   2.223   2.028  12.322  0.8061  0.2556  0.2675
 5509TIP3    H140722   2.139   2.057  12.286 -0.5236 -1.5070  1.7720
 5509TIP3    H240723   2.212   1.935  12.338  2.8949  0.0741  1.0078
 5510TIP3   OH240724   0.937   2.472  13.478 -0.4551 -0.0935  0.2347
 5510TIP3    H140725   0.906   2.385  13.452  0.7906  0.2073 -2.5850
 5510TIP3    H240726   0.861   2.529  13.466 -0.7089 -0.4686  0.0330
 5511TIP3   OH240727   4.689   7.356  12.309 -0.5928  0.3180 -0.1663
 5511TIP3    H140728   4.599   7.387  12.316 -1.2381 -1.3558 -0.3955
 5511TIP3    H240729   4.724   7.363  12.398 -2.2967 -2.6061  0.9028
 5512TIP3   OH240730   2.427   2.087  10.679 -0.3632 -0.4326  0.1021
 5512TIP3    H140731   2.446   2.158  10.740  1.1929 -0.5583 -0.2089
 5512TIP3    H240732   2.478   2.108  10.601 -1.3285 -0.9421 -0.7012
 5513TIP3   OH240733   5.313   1.126  12.184 -0.6047  0.0980  0.6401
 5513TIP3    H140734   5.292   1.170  12.266  1.1182  0.3884  0.9750
 5513TIP3    H240735   5.339   1.037  12.210 -1.1911 -0.1879  0.2743
 5514TIP3   OH240736   5.631   0.065  10.857 -0.0876  0.2941  0.0500
 5514TIP3    H140737   5.547   0.107  10.875 -0.4599 -0.9967  1.5583
 5514TIP3    H240738   5.630  -0.015  10.909  1.8523 -0.0564 -0.3493
 5515TIP3   OH240739   0.237   6.919  11.585 -0.2238  0.2363  0.3366
 5515TIP3    H140740   0.320   6.952  11.618 -0.5436  2.5583 -0.9357
 5515TIP3    H240741   0.176   6.929  11.658  0.4096 -0.7797  1.0348
 5516TIP3   OH240742   2.061   0.350  12.925  0.5063 -0.3072  0.3145
 5516TIP3    H140743   2.045   0.386  12.838 -0.8709  0.3686  0.8031
 5516TIP3    H240744   2.151   0.374  12.945  0.2641  1.1365 -0.1950
 5517TIP3   OH240745   6.454   0.833  18.819 -0.2816 -0.2984 -0.6334
 5517TIP3    H140746   6.361   0.812  18.813 -0.4241  0.3698 -0.8787
 5517TIP3    H240747   6.470   0.891  18.745  0.4926 -0.9699 -1.0091
 5518TIP3   OH240748   2.485   7.674  12.687 -0.3047  0.4509 -0.0495
 5518TIP3    H140749   2.474   7.656  12.780  1.3267  0.3289  0.1481
 5518TIP3    H240750   2.562   7.730  12.682 -0.4658  0.5926 -1.3183
 5519TIP3   OH240751   1.237   4.180  11.487 -0.1285  0.1798  0.1113
 5519TIP3    H140752   1.253   4.195  11.394  3.7466 -0.5724  0.4960
 5519TIP3    H240753   1.142   4.164  11.492 -0.2279 -2.0254 -4.0210
 5520TIP3   OH240754   4.945   0.652  10.578 -0.1404  0.0410  0.1459
 5520TIP3    H140755   4.917   0.705  10.653 -1.3034 -1.3033  0.7160
 5520TIP3    H240756   4.895   0.685  10.504 -0.2729  0.2529  0.3301
 5521TIP3   OH240757   4.042   3.615  11.872 -0.1939 -0.2832  0.1576
 5521TIP3    H140758   4.135   3.637  11.880 -0.5616  0.7143  2.7077
 5521TIP3    H240759   4.005   3.635  11.958 -2.6733 -1.2438 -0.5855
 5522TIP3   OH240760   2.635   0.777  10.492  0.4243 -0.5596  0.1353
 5522TIP3    H140761   2.540   0.776  10.503  0.6155 -0.6173  1.9380
 5522TIP3    H240762   2.666   0.698  10.536  1.3189 -0.6394 -0.5837
 5523TIP3   OH240763   3.071   5.159  12.761  0.0177 -0.1310 -0.0511
 5523TIP3    H140764   3.129   5.083  12.755 -1.2583 -1.0286 -1.9761
 5523TIP3    H240765   3.100   5.205  12.840  3.3253 -0.5016 -0.9207
 5524TIP3   OH240766   1.138   6.238  12.386 -0.2834  0.4246 -0.2267
 5524TIP3    H140767   1.078   6.265  12.455 -0.2969  1.9486 -0.7981
 5524TIP3    H240768   1.087   6.179  12.330 -1.7004  2.6509 -1.4035
 5525TIP3   OH240769   0.508   3.181  10.930  0.3462  0.4636 -0.7036
 5525TIP3    H140770   0.580   3.158  10.871  0.5131  1.5716 -0.9606
 5525TIP3    H240771   0.431   3.185  10.873 -0.4168 -2.8882 -0.0805
 5526TIP3   OH240772   7.278   2.438  10.629  0.7317 -0.5900 -0.2176
 5526TIP3    H140773   7.348   2.374  10.642  0.7782 -0.9218 -1.8969
 5526TIP3    H240774   7.317   2.504  10.572  0.8271  1.2146  1.8067
 5527TIP3   OH240775   6.417   2.813  11.228 -0.0953 -0.6085  0.6476
 5527TIP3    H140776   6.440   2.751  11.297 -0.7001  0.3232  1.7484
 5527TIP3    H240777   6.494   2.818  11.172 -0.2424 -2.7650  0.1733
 5528TIP3   OH240778   1.024   0.713  11.247 -0.0601 -0.1455  0.0144
 5528TIP3    H140779   0.954   0.754  11.196 -2.4827 -1.2090  2.2593
 5528TIP3    H240780   1.036   0.627  11.206 -1.0163 -0.4592  0.3633
 5529TIP3   OH240781   0.366   5.725  17.469 -0.0323 -0.0587  0.2481
 5529TIP3    H140782   0.386   5.668  17.544  1.5309  0.0040 -0.0857
 5529TIP3    H240783   0.451   5.758  17.441 -0.6108  0.0618 -1.4585
 5530TIP3   OH240784   4.962   5.297  11.695 -0.1818  0.5223  0.2833
 5530TIP3    H140785   4.892   5.233  11.711 -0.2256  0.7173  0.9088
 5530TIP3    H240786   4.928   5.378  11.732  0.6338  0.4733  1.1587
 5531TIP3   OH240787   6.092   4.454  12.067 -0.3555 -0.1274  0.5234
 5531TIP3    H140788   6.138   4.521  12.117  1.1014 -1.0146  0.4295
 5531TIP3    H240789   6.122   4.465  11.977  0.3795 -1.2739  0.6099
 5532TIP3   OH240790   3.861   1.173  12.900  0.2416  0.0781  0.2420
 5532TIP3    H140791   3.938   1.226  12.879  0.4884 -0.7224 -1.0162
 5532TIP3    H240792   3.876   1.090  12.854 -1.9680  0.3638 -1.1733
 5533TIP3   OH240793   6.447   7.468  10.720 -0.1673 -0.3766  0.3717
 5533TIP3    H140794   6.497   7.402  10.671  0.2601 -1.0252  1.6517
 5533TIP3    H240795   6.361   7.469  10.678 -0.1570 -1.6949  0.2848
 5534TIP3   OH240796   3.368   1.552  11.914  0.4852 -0.1633  0.4547
 5534TIP3    H140797   3.356   1.639  11.951 -2.8046 -1.1554  2.0896
 5534TIP3    H240798   3.343   1.561  11.823  3.5233  1.1918 -0.3872
 5535TIP3   OH240799   0.244   2.520  12.877 -0.3485  0.5386 -0.0262
 5535TIP3    H140800   0.301   2.510  12.801  0.1989  1.2821  0.2709
 5535TIP3    H240801   0.219   2.431  12.900  1.8087  0.0391  0.6631
 5536TIP3   OH240802   7.468   6.880  10.635 -0.3311  0.2540  0.2071
 5536TIP3    H140803   7.420   6.804  10.666  0.0334  0.1102  0.4234
 5536TIP3    H240804   7.560   6.853  10.635 -0.2790  0.4099 -0.5427
 5537TIP3   OH240805   2.612   5.648  10.612 -0.3299 -0.3058 -0.2056
 5537TIP3    H140806   2.584   5.715  10.549  0.2136  0.2287  0.1178
 5537TIP3    H240807   2.698   5.676  10.641 -1.4036  0.6440  2.4029
 5538TIP3   OH240808   2.228   4.118  12.571 -0.1615  0.3336 -0.1815
 5538TIP3    H140809   2.162   4.091  12.507  2.5645 -2.3391 -2.1348
 5538TIP3    H240810   2.212   4.063  12.647  0.5015 -1.2101 -1.1245
 5539TIP3   OH240811   3.570   4.332  12.961 -0.0539 -0.2413  0.1225
 5539TIP3    H140812   3.536   4.402  13.018 -1.0362 -0.7648  0.1938
 5539TIP3    H240813   3.655   4.366  12.931 -0.4642  0.9508  0.2240
 5540TIP3   OH240814   5.120   4.232  12.481  0.3231 -0.2389  0.5256
 5540TIP3    H140815   5.146   4.299  12.544 -0.1518  0.1671  0.2964
 5540TIP3    H240816   5.044   4.269  12.437  0.0619 -0.9252  0.3872
 5541TIP3   OH240817   1.318   3.408  10.976  0.1929  0.2720  0.2047
 5541TIP3    H140818   1.374   3.458  10.916  0.0217 -0.1799 -0.3455
 5541TIP3    H240819   1.371   3.332  10.999 -0.0660  0.0032 -0.0680
 5542TIP3   OH240820   1.420   0.107  11.158  0.2105  0.3826  0.3195
 5542TIP3    H140821   1.429   0.150  11.243 -0.5432  1.0227  0.0902
 5542TIP3    H240822   1.474   0.028  11.165 -1.0830 -0.4167  1.9431
 5543TIP3   OH240823   3.642   0.215  12.520  0.1227 -0.2197 -0.6046
 5543TIP3    H140824   3.727   0.259  12.526  0.7431 -1.5759  1.6424
 5543TIP3    H240825   3.616   0.199  12.611 -1.6820 -1.4675 -1.2754
 5544TIP3   OH240826   0.956   7.098  10.787  0.4695 -0.3337  0.0485
 5544TIP3    H140827   1.042   7.093  10.829  1.0172 -0.1142 -0.9975
 5544TIP3    H240828   0.955   7.185  10.746 -0.3393 -0.2554  0.2233
 5545TIP3   OH240829   2.900   5.500  10.957  0.0150  0.2171  0.6787
 5545TIP3    H140830   2.943   5.466  11.036  0.2698  0.4332  0.6338
 5545TIP3    H240831   2.915   5.433  10.891 -0.2800 -0.0087  0.8366
 5546TIP3   OH240832   1.918   0.790  12.082  0.9000  0.1892  0.5799
 5546TIP3    H140833   2.012   0.789  12.070  0.6467 -1.7952 -2.4817
 5546TIP3    H240834   1.901   0.721  12.147  1.4750 -1.1630 -0.6570
 5547TIP3   OH240835   4.729   4.531  12.186  0.3165 -0.0300 -0.2210
 5547TIP3    H140836   4.811   4.577  12.203 -0.7264  1.8484  0.0155
 5547TIP3    H240837   4.688   4.522  12.273 -0.3835  0.3838 -0.4981
 5548TIP3   OH240838   0.222   6.351  13.247 -0.4563 -0.0520 -0.2137
 5548TIP3    H140839   0.285   6.417  13.218  0.6815 -0.7557  0.5669
 5548TIP3    H240840   0.199   6.377  13.336 -1.8499  0.5989 -0.7414
 5549TIP3   OH240841   2.712   0.490  11.235 -0.6982  0.2115 -0.4469
 5549TIP3    H140842   2.709   0.548  11.312 -0.9173 -1.4403  0.8439
 5549TIP3    H240843   2.639   0.429  11.248  1.0266 -1.9411 -0.4338
 5550TIP3   OH240844   3.348   5.572  13.237  0.1651  0.3729 -0.7698
 5550TIP3    H140845   3.347   5.666  13.257  0.3212  0.5321 -1.4927
 5550TIP3    H240846   3.429   5.559  13.187  0.7907 -0.3788  0.4036
 5551TIP3   OH240847   6.175   0.359  11.344  0.1858 -0.6793  0.0167
 5551TIP3    H140848   6.171   0.267  11.317  0.3940 -0.9807  0.9532
 5551TIP3    H240849   6.147   0.358  11.436  0.1459  0.2034  0.0249
 5552TIP3   OH240850   4.296   1.080  12.326 -0.0830  0.1700 -0.5264
 5552TIP3    H140851   4.201   1.075  12.325 -0.2007  1.5478  0.7364
 5552TIP3    H240852   4.316   1.141  12.397  1.8064 -1.3073  0.2871
 5553TIP3   OH240853   1.621   0.343  12.075 -0.4173  0.3398  0.3549
 5553TIP3    H140854   1.629   0.304  12.161  0.5469 -0.0280  0.1148
 5553TIP3    H240855   1.528   0.337  12.054 -0.4475 -0.8965  0.7519
 5554TIP3   OH240856   2.306   0.224  11.084 -0.2003  0.4436  0.0496
 5554TIP3    H140857   2.339   0.293  11.026 -1.5881  0.2750 -0.9773
 5554TIP3    H240858   2.216   0.250  11.103 -0.8075 -1.1685 -0.4901
 5555TIP3   OH240859   5.300   3.492  12.132  0.2550 -0.1065 -0.2025
 5555TIP3    H140860   5.232   3.425  12.139 -0.3904  0.5800  0.0908
 5555TIP3    H240861   5.343   3.490  12.218 -1.9710  2.1819  1.1005
 5556TIP3   OH240862   1.087   6.801  11.886 -0.6656 -0.1827 -0.1323
 5556TIP3    H140863   1.076   6.757  11.970  1.3272 -1.3125 -0.4067
 5556TIP3    H240864   1.151   6.870  11.903 -1.3035  0.5000 -0.4396
 5557TIP3   OH240865   4.275   0.954  10.899  0.1582  0.4803 -0.0861
 5557TIP3    H140866   4.227   0.921  10.974 -0.2242  1.6343  0.2017
 5557TIP3    H240867   4.362   0.915  10.907 -0.5822 -1.3220 -0.3991
 5558TIP3   OH240868   1.149   4.586  12.810  0.0279  0.0223 -0.2627
 5558TIP3    H140869   1.153   4.666  12.757 -2.0587  0.7147  0.5403
 5558TIP3    H240870   1.118   4.519  12.750 -0.1296  0.2794 -0.4723
 5559TIP3   OH240871   2.048   5.949  11.985 -0.5516  0.3583  0.3150
 5559TIP3    H140872   2.079   5.859  11.971  0.8121  0.8206  0.1525
 5559TIP3    H240873   2.014   5.976  11.899 -0.1188  0.2989  0.1211
 5560TIP3   OH240874   5.152   5.902  13.021  0.0924  0.5595 -0.0062
 5560TIP3    H140875   5.142   5.861  13.107  0.9836  2.2233  0.9496
 5560TIP3    H240876   5.141   5.831  12.958  0.2547 -0.8470  1.5106
 5561TIP3   OH240877   6.430   1.204  11.837 -0.3485  0.1134  0.1998
 5561TIP3    H140878   6.448   1.256  11.916  0.7641 -0.9729  0.7057
 5561TIP3    H240879   6.438   1.265  11.765  0.9667  0.6540  0.7765
 5562TIP3   OH240880   4.684   5.855  11.907  0.0504 -0.1650 -0.0892
 5562TIP3    H140881   4.653   5.770  11.941 -0.5072  0.0472 -0.0532
 5562TIP3    H240882   4.692   5.910  11.985 -1.5993  0.4410 -0.3049
 5563TIP3   OH240883   7.378   4.299  10.372 -0.3180 -0.1000  0.2611
 5563TIP3    H140884   7.354   4.343  10.453  0.0023  0.6294 -0.0301
 5563TIP3    H240885   7.326   4.342  10.304 -0.2150 -0.3662  0.0048
 5564TIP3   OH240886   5.763   7.177  10.517  0.2010 -0.0460  0.1239
 5564TIP3    H140887   5.743   7.208  10.429 -0.0116  0.6887  0.4262
 5564TIP3    H240888   5.695   7.214  10.572  0.3713 -0.4420  0.6136
 5565TIP3   OH240889   1.578   2.235  11.846 -0.0915  0.3384  0.2125
 5565TIP3    H140890   1.553   2.271  11.931  3.2185  2.4561  0.4596
 5565TIP3    H240891   1.657   2.184  11.864 -0.7247 -1.2723 -1.2783
 5566TIP3   OH240892   2.425   2.618  11.050  0.0570  0.7791  0.2371
 5566TIP3    H140893   2.388   2.705  11.037 -0.5568  0.4982  0.0579
 5566TIP3    H240894   2.350   2.563  11.072  0.0037 -0.2242 -2.1279
 5567TIP3   OH240895   4.483   2.681  12.054 -0.3814 -0.2901 -0.0150
 5567TIP3    H140896   4.459   2.655  11.965 -3.2964  0.4047  0.4929
 5567TIP3    H240897   4.579   2.686  12.052 -0.3866  0.3974 -3.2810
 5568TIP3   OH240898   1.855   0.669  10.438 -0.1695  0.3741 -0.2493
 5568TIP3    H140899   1.899   0.735  10.492  1.6031 -0.4220 -0.6515
 5568TIP3    H240900   1.887   0.686  10.349  0.6035 -1.2269 -0.3034
 5569TIP3   OH240901   3.642   0.938  11.587  0.1137  0.1370 -0.1221
 5569TIP3    H140902   3.571   0.875  11.598 -0.7580  1.1140  0.0633
 5569TIP3    H240903   3.647   0.983  11.672  1.5115 -0.4572  0.1341
 5570TIP3   OH240904   7.540   4.180  10.979  0.3409  0.6523 -0.4479
 5570TIP3    H140905   7.473   4.111  10.972  1.3408 -0.2395 -1.7364
 5570TIP3    H240906   7.609   4.140  11.031 -0.3288  1.7946  1.4383
 5571TIP3   OH240907   3.069   6.900  11.603 -0.3374  0.1009 -0.4474
 5571TIP3    H140908   3.164   6.885  11.603 -0.3726 -0.3534 -1.9757
 5571TIP3    H240909   3.059   6.989  11.636  0.2541 -1.2253  3.8820
 5572TIP3   OH240910   5.049   6.442  11.726  0.5234  0.3628  0.3258
 5572TIP3    H140911   5.067   6.348  11.736 -0.7233  0.0525 -0.1293
 5572TIP3    H240912   5.049   6.476  11.815  0.5412 -0.1557  0.5324
 5573TIP3   OH240913   0.463   2.863  11.835 -0.4544 -0.0795  0.4153
 5573TIP3    H140914   0.486   2.939  11.781  1.7865  0.5628  2.1384
 5573TIP3    H240915   0.460   2.897  11.924 -1.0018 -1.7129  1.0504
 5574TIP3   OH240916   4.314   4.725  11.001 -0.2305  0.0835 -0.4915
 5574TIP3    H140917   4.310   4.640  10.958  1.1147  0.1265 -0.7380
 5574TIP3    H240918   4.400   4.760  10.978 -0.0561  0.7541  1.0188
 5575TIP3   OH240919   2.291   5.390  12.622 -0.2714  0.5574  0.0544
 5575TIP3    H140920   2.234   5.392  12.699 -1.1721  2.2773 -0.6035
 5575TIP3    H240921   2.231   5.403  12.548  0.8645  1.5683 -0.7276
 5576TIP3   OH240922   2.223   5.653  11.123  0.1956 -0.1137 -0.1752
 5576TIP3    H140923   2.161   5.582  11.139  0.4914 -0.4206 -0.3826
 5576TIP3    H240924   2.196   5.689  11.038  0.7271 -0.6924 -0.5872
 5577TIP3   OH240925   4.492   6.762  11.988  0.2610  0.4917 -0.3055
 5577TIP3    H140926   4.515   6.669  11.984 -2.0538 -0.1439 -0.2225
 5577TIP3    H240927   4.498   6.784  12.081 -1.0184 -0.1369 -0.0433
 5578TIP3   OH240928   3.261   2.672  10.951 -0.1928 -0.6966  0.1656
 5578TIP3    H140929   3.307   2.647  10.871 -0.8546 -0.6092 -0.2406
 5578TIP3    H240930   3.331   2.704  11.009  0.1160  0.7543 -0.9576
 5579TIP3   OH240931   5.022   7.203  11.850  0.1066 -0.0087 -0.3369
 5579TIP3    H140932   4.992   7.244  11.931  0.8737  1.5406 -0.7746
 5579TIP3    H240933   4.997   7.111  11.857 -2.9806  0.7674  0.1048
 5580TIP3   OH240934   0.657   5.772  11.631  0.2044  0.4070  0.3176
 5580TIP3    H140935   0.574   5.743  11.669  1.5913 -0.0897  3.2470
 5580TIP3    H240936   0.678   5.854  11.676  1.9396 -0.2079  0.7258
 5581TIP3   OH240937   3.461   4.334  13.285  0.3609  0.1226  0.4904
 5581TIP3    H140938   3.481   4.411  13.232  1.1954 -1.4830 -1.6695
 5581TIP3    H240939   3.381   4.297  13.245  1.0066 -1.1210  0.2878
 5582TIP3   OH240940   4.348   0.203  12.325 -0.4526 -0.8609 -0.3337
 5582TIP3    H140941   4.296   0.283  12.326 -1.2522 -1.3384 -1.3826
 5582TIP3    H240942   4.437   0.232  12.307 -0.5313 -0.1286  0.3970
 5583TIP3   OH240943   6.435   4.905  11.448 -0.1110  0.8918  0.0881
 5583TIP3    H140944   6.378   4.842  11.403  0.2254 -0.7665  1.8373
 5583TIP3    H240945   6.412   4.990  11.411 -1.3018 -0.1385 -1.6623
 5584TIP3   OH240946   3.548   1.888  10.606  0.1269 -0.0850  0.0220
 5584TIP3    H140947   3.551   1.979  10.578  0.2535 -0.5301 -1.4485
 5584TIP3    H240948   3.525   1.839  10.528 -0.9070 -1.2409  1.0123
 5585TIP3   OH240949   5.225   4.083  12.254 -0.6372 -0.4832 -0.7781
 5585TIP3    H140950   5.183   4.142  12.317 -2.6325 -1.2260 -1.3232
 5585TIP3    H240951   5.211   4.126  12.169  0.5610 -0.3010 -0.8928
 5586TIP3   OH240952   7.083   3.765  11.747  0.4203 -0.2965 -0.2963
 5586TIP3    H140953   7.172   3.730  11.744  1.7338  2.6962 -0.4520
 5586TIP3    H240954   7.073   3.798  11.836 -1.0280 -1.5974  0.0637
 5587TIP3   OH240955   7.073   4.730  12.392 -0.0619  0.0376 -0.7400
 5587TIP3    H140956   7.161   4.696  12.377 -0.4947 -0.7850 -1.5373
 5587TIP3    H240957   7.058   4.718  12.486  0.6158  0.0383 -0.6309
 5588TIP3   OH240958   5.649   1.117  11.954  0.1943 -0.2373  0.0729
 5588TIP3    H140959   5.671   1.077  12.039 -0.2958  0.4159  0.5121
 5588TIP3    H240960   5.564   1.158  11.968  0.4213  0.4538 -0.5446
 5589TIP3   OH240961   4.790   6.867  10.809 -0.2256  0.5271 -0.4650
 5589TIP3    H140962   4.864   6.893  10.755 -0.8637  2.1780 -0.5922
 5589TIP3    H240963   4.828   6.808  10.874  0.7399 -0.6598 -2.0274
 5590TIP3   OH240964   2.855   7.063  10.798  0.3641 -0.3985 -0.1978
 5590TIP3    H140965   2.832   7.106  10.716  1.4349 -0.9738 -0.8194
 5590TIP3    H240966   2.915   6.992  10.772  0.1875 -1.0139  1.0015
 5591TIP3   OH240967   0.482   4.681  11.981  0.1511  0.7302  0.0323
 5591TIP3    H140968   0.391   4.651  11.987  0.0826  0.3148 -2.3616
 5591TIP3    H240969   0.516   4.671  12.070 -1.2300 -2.0848  0.3531
 5592TIP3   OH240970   1.781   2.084  12.713  0.0609  0.3819 -0.3798
 5592TIP3    H140971   1.688   2.064  12.708  0.4474 -1.3619 -1.1620
 5592TIP3    H240972   1.802   2.076  12.806 -0.6243  1.2067 -0.1325
 5593TIP3   OH240973   1.919   7.492  10.532 -0.5478 -0.0403 -0.5041
 5593TIP3    H140974   1.905   7.584  10.508  0.4540  0.8619  2.0468
 5593TIP3    H240975   2.005   7.490  10.573 -0.7802 -2.0308 -0.0023
 5594TIP3   OH240976   3.900   4.030  13.614 -0.1191  0.2748 -0.2865
 5594TIP3    H140977   3.811   4.003  13.594  0.5229 -1.0726 -1.5461
 5594TIP3    H240978   3.952   3.999  13.540  1.7383 -0.9764  1.4151
 5595TIP3   OH240979   5.077   2.428  10.487 -0.0742  0.0233 -0.3626
 5595TIP3    H140980   5.171   2.441  10.494 -0.1463  0.7306 -0.5359
 5595TIP3    H240981   5.065   2.334  10.475  0.5627 -0.1442  0.3232
 5596TIP3   OH240982   7.096   6.850  12.216  0.2569 -0.6358  0.5516
 5596TIP3    H140983   7.125   6.940  12.234 -1.7214 -0.0405  0.9713
 5596TIP3    H240984   7.126   6.800  12.291  0.6114 -0.1522  0.7400
 5597TIP3   OH240985   2.733   4.217  11.652  0.7741 -0.3509 -1.4800
 5597TIP3    H140986   2.669   4.188  11.716  0.7637 -0.1614 -1.4046
 5597TIP3    H240987   2.722   4.157  11.578 -0.4279  0.5169 -2.0331
 5598TIP3   OH240988   4.329   6.326  12.154  0.0463 -0.7555 -0.8057
 5598TIP3    H140989   4.335   6.404  12.098  3.1949  0.3581  0.8886
 5598TIP3    H240990   4.359   6.255  12.097  2.2796  0.2003 -0.9494
 5599TIP3   OH240991   1.096   6.635  11.519  0.5877  0.0729 -0.4772
 5599TIP3    H140992   1.182   6.662  11.551  1.4188 -2.8613  0.0146
 5599TIP3    H240993   1.038   6.646  11.594  0.6706  1.1961 -0.5476
 5600TIP3   OH240994   1.777   5.898  10.427 -0.1432 -0.2234  0.0241
 5600TIP3    H140995   1.810   5.976  10.382 -0.4087 -0.4204 -0.5249
 5600TIP3    H240996   1.758   5.928  10.516 -0.8222  0.4907 -0.3534
 5601TIP3   OH240997   0.000   4.563  12.486  0.1695 -0.2845  0.0842
 5601TIP3    H140998  -0.009   4.523  12.400 -0.1546  1.8717 -0.9315
 5601TIP3    H240999   0.003   4.488  12.546 -2.6957 -1.8221 -1.4648
 5602TIP3   OH241000   3.552   7.554  10.991 -0.4682 -0.1125  0.0983
 5602TIP3    H141001   3.627   7.613  10.989 -1.1140  0.7379 -2.2328
 5602TIP3    H241002   3.554   7.510  10.906 -3.8084  1.5770 -1.0179
 5603TIP3   OH241003   1.418   6.145  13.042  0.0477  0.1162  0.0326
 5603TIP3    H141004   1.451   6.068  12.996 -1.5497  0.9132 -2.6730
 5603TIP3    H241005   1.497   6.195  13.065  0.9824 -0.9762 -0.7052
 5604TIP3   OH241006   2.046   5.138  11.552 -0.3148 -0.4628  0.4890
 5604TIP3    H141007   1.964   5.093  11.570  0.3126 -1.4174  1.0224
 5604TIP3    H241008   2.113   5.070  11.557  0.7275  0.5916  1.8324
 5605TIP3   OH241009   2.606   2.968  10.706  0.4951  0.0495  0.2289
 5605TIP3    H141010   2.560   2.922  10.635 -0.9534  0.5410  0.8136
 5605TIP3    H241011   2.673   2.907  10.735  0.7399 -0.3893 -1.1852
 5606TIP3   OH241012   3.157   4.941  11.679 -0.1718 -0.2957 -0.1268
 5606TIP3    H141013   3.082   4.919  11.623  0.1111  2.2231 -1.6853
 5606TIP3    H241014   3.234   4.917  11.627  0.0916 -0.3589  0.2913
 5607TIP3   OH241015   0.116   4.062  11.110 -0.0913  0.3300 -0.4207
 5607TIP3    H141016   0.169   4.022  11.041  0.4000 -0.4227  0.3827
 5607TIP3    H241017   0.153   4.150  11.121 -0.6316  0.7319 -1.5925
 5608TIP3   OH241018   1.046   5.594  12.416  0.2465  0.6393 -0.7748
 5608TIP3    H141019   1.109   5.603  12.487 -0.8270  0.2494  0.2666
 5608TIP3    H241020   1.066   5.509  12.377 -0.9224 -0.4999  0.9349
 5609TIP3   OH241021   6.091   0.860  10.681  0.1723  0.1533 -0.0679
 5609TIP3    H141022   6.148   0.915  10.627 -1.3780 -0.2800 -2.2509
 5609TIP3    H241023   6.149   0.825  10.748  2.1976  0.7290 -1.4311
 5610TIP3   OH241024   4.538   3.344  11.202 -0.1070  0.3850 -0.7292
 5610TIP3    H141025   4.511   3.257  11.231 -1.5139  1.0289  0.0342
 5610TIP3    H241026   4.624   3.357  11.241 -0.7069  0.0681  0.7751
 5611TIP3   OH241027   3.173   3.675  11.825  0.1602  0.1542 -0.2836
 5611TIP3    H141028   3.162   3.769  11.809 -1.1244 -0.1279 -1.2756
 5611TIP3    H241029   3.092   3.649  11.869  0.3689 -0.5423 -0.3049
 5612TIP3   OH241030   2.539   4.482  12.633 -0.3567 -0.4567  0.3032
 5612TIP3    H141031   2.465   4.485  12.694  0.0843 -0.6352  0.8572
 5612TIP3    H241032   2.507   4.433  12.558 -0.6116 -1.0637  0.8012
 5613TIP3   OH241033   4.845   5.284  11.978 -0.3228 -0.1002  0.0355
 5613TIP3    H141034   4.883   5.196  11.976 -1.2755 -0.5191 -0.3622
 5613TIP3    H241035   4.757   5.272  12.013 -1.1753  0.3822 -1.8043
 5614TIP3   OH241036   1.017   2.429  11.719 -0.1426  0.6724  0.1927
 5614TIP3    H141037   0.969   2.509  11.696 -0.1760  0.2746 -1.1965
 5614TIP3    H241038   1.036   2.388  11.635  1.4608  0.1220  0.8021
 5615TIP3   OH241039   6.633   6.778  11.917  0.0267 -0.2966 -0.2779
 5615TIP3    H141040   6.699   6.821  11.971 -1.1213  1.1950  0.0120
 5615TIP3    H241041   6.634   6.687  11.946 -0.3202  0.3770  2.1223
 5616TIP3   OH241042   4.006   3.636  12.149 -0.2248 -0.1467  0.1984
 5616TIP3    H141043   4.079   3.685  12.185 -0.0704 -1.2401  1.4430
 5616TIP3    H241044   3.963   3.597  12.225 -0.6093 -1.5395 -0.6870
 5617TIP3   OH241045   5.352   4.118  12.979 -0.6089  0.2939 -0.1415
 5617TIP3    H141046   5.307   4.089  12.899 -1.3923  0.3835  0.2675
 5617TIP3    H241047   5.283   4.130  13.043  0.2484 -3.2421  1.6882
 5618TIP3   OH241048   5.727   5.285  10.980  0.1448  0.4633  0.5739
 5618TIP3    H141049   5.648   5.326  11.017 -0.6806 -1.0724  0.5700
 5618TIP3    H241050   5.797   5.347  11.001 -1.0486  1.9019  0.5240
 5619TIP3   OH241051   2.056   5.569  12.542 -0.1296  0.0789 -0.1864
 5619TIP3    H141052   2.047   5.610  12.456 -0.6865 -1.2489 -0.7946
 5619TIP3    H241053   2.008   5.626  12.602 -1.1605  0.1432 -1.0577
 5620TIP3   OH241054   1.003   7.623  10.935 -0.5045 -0.0520  0.1093
 5620TIP3    H141055   0.965   7.597  10.850 -2.5674 -0.1133  0.9771
 5620TIP3    H241056   0.950   7.576  10.999  0.6843  0.4027  1.4675
 5621TIP3   OH241057   0.687   5.843  12.608  0.4317 -0.3202 -0.0479
 5621TIP3    H141058   0.659   5.933  12.594 -0.4392 -0.1823  2.0745
 5621TIP3    H241059   0.631   5.791  12.551 -1.2964  0.2957  0.9965
 5622TIP3   OH241060   4.861   0.432  11.031 -0.5919  0.0333  0.3167
 5622TIP3    H141061   4.776   0.476  11.031 -0.0186  1.1691  0.2479
 5622TIP3    H241062   4.923   0.500  11.004 -0.0150 -1.4417 -2.4955
 5623TIP3   OH241063   1.699   6.843  11.694 -0.0265  0.4945  0.4069
 5623TIP3    H141064   1.622   6.892  11.723 -0.4901  0.7582 -1.1744
 5623TIP3    H241065   1.685   6.754  11.726 -1.1780  0.4577 -0.1542
 5624TIP3   OH241066   1.424   2.454  10.859  0.6170  0.0172 -0.8594
 5624TIP3    H141067   1.514   2.470  10.887 -0.2680  2.9609  0.7118
 5624TIP3    H241068   1.407   2.520  10.793 -0.3523 -0.6278 -1.2787
 5625TIP3   OH241069   4.353   0.194  11.896 -0.0355  0.1012 -0.1896
 5625TIP3    H141070   4.294   0.181  11.822 -1.0517 -0.3432  0.6583
 5625TIP3    H241071   4.435   0.225  11.857 -0.8970  0.9627 -1.3858
 5626TIP3   OH241072   7.019   4.988  13.278 -0.3622 -0.3407 -0.6362
 5626TIP3    H141073   6.977   4.903  13.264 -0.2586 -0.7124  1.1135
 5626TIP3    H241074   7.085   4.971  13.345 -0.1878  1.0890 -0.4183
 5627TIP3   OH241075   5.462   1.508  11.422  0.1501 -0.1720  0.1101
 5627TIP3    H141076   5.486   1.534  11.511  0.5450 -0.2096  0.0128
 5627TIP3    H241077   5.542   1.517  11.371 -0.2533  0.5523 -0.4051
 5628TIP3   OH241078   5.618   6.429  11.895 -0.3029 -0.5347  0.3894
 5628TIP3    H141079   5.701   6.383  11.886  0.0362  0.3254 -1.2694
 5628TIP3    H241080   5.628   6.509  11.843 -2.4790 -0.8359 -0.6288
 5629TIP3   OH241081   3.595   3.167  10.608  0.0328 -0.1960 -0.2328
 5629TIP3    H141082   3.506   3.168  10.645  0.6978 -0.3050  1.5005
 5629TIP3    H241083   3.601   3.246  10.556 -1.0430 -0.1170 -0.2526
 5630TIP3   OH241084   1.589   7.325  11.051 -0.7826  0.0240  0.3634
 5630TIP3    H141085   1.579   7.317  10.956  0.4862  0.2836  0.1834
 5630TIP3    H241086   1.628   7.412  11.063 -1.2588  0.1299  1.1503
 5631TIP3   OH241087   4.782   0.655  11.614  0.5747 -0.2451 -0.2748
 5631TIP3    H141088   4.825   0.620  11.692 -0.7352  1.6174  1.3953
 5631TIP3    H241089   4.743   0.738  11.643 -3.2273 -1.2402 -1.8422
 5632TIP3   OH241090   7.560   1.267  12.239  0.3760 -0.5751  0.2396
 5632TIP3    H141091   7.521   1.201  12.296  1.0599 -0.9578  0.2773
 5632TIP3    H241092   7.504   1.344  12.250  0.3808 -0.6989  1.2775
 5633TIP3   OH241093   1.036   6.010  11.572  0.5192  0.0240 -0.2037
 5633TIP3    H141094   1.075   6.067  11.506  0.0767  0.4134 -0.1328
 5633TIP3    H241095   1.026   5.925  11.527  2.1138 -0.3049  0.0037
 5634TIP3   OH241096   0.247   2.510  10.845  0.3711  0.2078 -0.0143
 5634TIP3    H141097   0.164   2.532  10.887  0.1922 -1.3854  0.5692
 5634TIP3    H241098   0.239   2.416  10.826  1.4134  0.3812 -1.4152
 5635TIP3   OH241099   4.578   4.834  11.044 -0.4948 -0.1759 -0.6352
 5635TIP3    H141100   4.629   4.838  11.124 -2.1390 -0.8013  0.5121
 5635TIP3    H241101   4.620   4.764  10.993  0.3276 -0.0555 -0.1417
 5636TIP3   OH241102   2.867   6.750  12.169  0.4206  0.5526  0.1275
 5636TIP3    H141103   2.895   6.835  12.203  0.7726  0.1484  0.8743
 5636TIP3    H241104   2.771   6.754  12.170  0.4361  0.8692  0.3267
 5637TIP3   OH241105   3.389   3.891  11.939  0.2855  0.2847  0.1456
 5637TIP3    H141106   3.358   3.905  12.029 -0.7661  0.0267 -0.1600
 5637TIP3    H241107   3.381   3.978  11.898  1.2892  0.5292  0.4415
 5638TIP3   OH241108   3.396   4.772  12.695 -0.0880  0.6912  0.3601
 5638TIP3    H141109   3.479   4.736  12.663  0.3936  0.3280  1.9433
 5638TIP3    H241110   3.336   4.766  12.620  0.8002 -0.7241 -0.2616
 5639TIP3   OH241111   1.463   7.277  11.280  0.0695 -0.1324  0.2013
 5639TIP3    H141112   1.524   7.225  11.332 -1.0715 -1.8259 -0.0624
 5639TIP3    H241113   1.505   7.285  11.194  0.4344 -0.2836  0.3655
 5640TIP3   OH241114   6.415   3.804  12.812 -0.2217  0.1192  0.2698
 5640TIP3    H141115   6.405   3.877  12.751  0.2293  1.3950  1.6626
 5640TIP3    H241116   6.332   3.801  12.860  1.0069  2.1858  2.7525
 5641TIP3   OH241117   4.702   0.673  11.331  0.4073 -0.7948 -0.1613
 5641TIP3    H141118   4.728   0.697  11.420 -0.6320  1.7819 -0.4509
 5641TIP3    H241119   4.783   0.645  11.288  1.4903  0.7524  0.7852
 5642TIP3   OH241120   3.410   6.688  13.311 -0.4234  0.2136 -0.2489
 5642TIP3    H141121   3.361   6.659  13.234 -1.4684 -0.9336  0.8111
 5642TIP3    H241122   3.469   6.756  13.278 -1.1991  0.0951 -1.9573
 5643TIP3   OH241123   4.863   2.401  11.398  0.5958 -0.7568  0.1315
 5643TIP3    H141124   4.857   2.477  11.340  2.1627 -0.3799  0.4391
 5643TIP3    H241125   4.772   2.370  11.405 -0.0579  0.9594 -0.1463
 5644TIP3   OH241126   3.034   3.374  12.460 -0.0106  0.6831  0.1137
 5644TIP3    H141127   2.948   3.354  12.497 -0.3712  2.4747  0.3484
 5644TIP3    H241128   3.017   3.444  12.397  1.0427 -0.1729 -1.1732
 5645TIP3   OH241129   0.517   2.691  13.536 -0.1165  0.8633 -0.1827
 5645TIP3    H141130   0.530   2.639  13.456 -0.3648  1.0453 -0.3409
 5645TIP3    H241131   0.603   2.727  13.555  0.2773 -0.3348  0.4395
 5646TIP3   OH241132   5.508   3.790  12.719  0.0373 -0.0987 -0.3590
 5646TIP3    H141133   5.491   3.714  12.774  1.7601 -0.1226  0.2288
 5646TIP3    H241134   5.455   3.860  12.757  1.6685  0.0535  1.8214
 5647TIP3   OH241135   5.184   5.871  11.277  0.5189 -0.4747 -0.1130
 5647TIP3    H141136   5.111   5.886  11.217  0.5946  2.3384  0.3454
 5647TIP3    H241137   5.244   5.815  11.228  0.0083  0.6820 -2.1968
 5648TIP3   OH241138   1.711   1.648  11.666  0.0463 -0.2133  0.7320
 5648TIP3    H141139   1.773   1.635  11.738  0.9201 -0.2331 -0.0003
 5648TIP3    H241140   1.625   1.652  11.708  0.4453 -1.1506  1.6858
 5649TIP3   OH241141   1.729   5.781  11.650 -0.4851 -0.2971 -0.0763
 5649TIP3    H141142   1.819   5.759  11.627  0.6294  1.8267  1.8878
 5649TIP3    H241143   1.696   5.830  11.575 -0.7791 -2.7221 -1.6560
 5650TIP3   OH241144   3.944   1.320  11.182 -0.1135 -0.3381 -0.2418
 5650TIP3    H141145   3.924   1.413  11.177 -0.0384 -0.1421  1.8837
 5650TIP3    H241146   4.033   1.313  11.147  0.3900  0.6269  0.7682
 5651TIP3   OH241147   2.862   2.067  10.766 -0.1803  0.0743  0.2865
 5651TIP3    H141148   2.916   2.013  10.708 -0.3088 -1.5674  1.6313
 5651TIP3    H241149   2.899   2.155  10.758 -1.0593  0.2887 -3.3437
 5652TIP3   OH241150   7.490   4.676  12.675  0.6879  0.1618  0.4857
 5652TIP3    H141151   7.475   4.769  12.693 -1.0623 -0.0559  0.3257
 5652TIP3    H241152   7.551   4.675  12.602 -0.9513  1.2700 -0.9784
 5653TIP3   OH241153   3.006   5.217  12.250  0.6365  0.0481 -0.3114
 5653TIP3    H141154   3.040   5.279  12.314  1.8109  0.6247 -1.4447
 5653TIP3    H241155   2.913   5.237  12.244  1.3174  3.6604 -2.5610
 5654TIP3   OH241156   6.174   0.429  12.022 -0.2972 -0.0352  0.2330
 5654TIP3    H141157   6.153   0.514  12.062 -0.1089 -0.0202  0.3050
 5654TIP3    H241158   6.094   0.377  12.031 -0.0742 -0.2327  1.1604
 5655TIP3   OH241159   3.824   6.084  11.001 -0.7569 -0.2930  0.5006
 5655TIP3    H141160   3.877   6.012  11.035  0.6661  0.2288 -0.4922
 5655TIP3    H241161   3.873   6.163  11.024 -0.9391  0.1904 -0.6817
 5656TIP3   OH241162   0.962   7.220  11.509  0.8779 -0.3534 -0.3402
 5656TIP3    H141163   1.019   7.294  11.489  0.3272 -0.0365 -0.7682
 5656TIP3    H241164   1.022   7.148  11.528  1.4205  0.2508  0.2832
 5657TIP3   OH241165   6.911   1.082  10.930 -0.0644  0.2326  0.1066
 5657TIP3    H141166   6.967   1.159  10.935  2.0419 -1.2271  0.7648
 5657TIP3    H241167   6.916   1.055  10.838  1.4614 -0.6012  0.3885
 5658TIP3   OH241168   4.578   7.225  12.528  1.0304 -0.2289  0.2776
 5658TIP3    H141169   4.524   7.257  12.456 -1.6739 -4.4625  0.0781
 5658TIP3    H241170   4.527   7.242  12.607  1.7410  0.0846  0.6863
 5659TIP3   OH241171   1.794   4.451  12.231  1.0227  0.0372  0.5521
 5659TIP3    H141172   1.793   4.538  12.271 -4.1460  1.2470 -1.3431
 5659TIP3    H241173   1.828   4.464  12.143 -0.0916  0.3424  0.1411
 5660TIP3   OH241174   3.647   7.195  12.985  0.6253  0.2551  0.1569
 5660TIP3    H141175   3.564   7.226  12.949  1.7421 -0.3156 -3.2227
 5660TIP3    H241176   3.640   7.099  12.981  0.8599  0.1572  1.4761
 5661TIP3   OH241177   6.739   3.671  11.875  0.5402  0.1000  0.3909
 5661TIP3    H141178   6.694   3.682  11.792  1.9274  2.0941 -0.1669
 5661TIP3    H241179   6.670   3.649  11.938 -0.3324 -3.5053 -1.5313
 5662TIP3   OH241180   6.785   2.284  12.417 -0.0913 -0.4529 -0.7391
 5662TIP3    H141181   6.732   2.350  12.462  1.5213 -0.0898  0.7406
 5662TIP3    H241182   6.818   2.228  12.487 -0.2429 -1.9764 -1.8348
 5663TIP3   OH241183   2.360   6.694  12.884  0.0643  0.3557  0.1048
 5663TIP3    H141184   2.277   6.682  12.931  0.1792 -0.1184  0.1983
 5663TIP3    H241185   2.339   6.752  12.811 -0.3580  0.2034  0.1050
 5664TIP3   OH241186   0.739   5.530  10.728 -0.0729  0.1602 -0.0588
 5664TIP3    H141187   0.673   5.503  10.664 -0.4362  0.0969  0.3351
 5664TIP3    H241188   0.796   5.590  10.680  0.4436 -0.8894 -0.8008
 5665TIP3   OH241189   5.675   5.885  12.246 -0.0169 -0.8759 -0.1673
 5665TIP3    H141190   5.656   5.934  12.326 -0.0347 -0.5093 -0.3945
 5665TIP3    H241191   5.742   5.822  12.272 -2.7110 -3.4563  1.1324
 5666TIP3   OH241192   0.565   1.282  12.511  0.4870 -0.0719 -0.1368
 5666TIP3    H141193   0.581   1.287  12.605  0.5277  0.8306 -0.1826
 5666TIP3    H241194   0.480   1.325  12.499  0.8606  0.5484 -0.6035
 5667TIP3   OH241195   5.934   3.299  12.488 -0.1641 -0.0315  0.2585
 5667TIP3    H141196   5.897   3.388  12.493 -1.1277 -0.4677  2.6168
 5667TIP3    H241197   5.860   3.242  12.509  0.5908 -1.3614 -0.6027
 5668TIP3   OH241198   0.879   2.063  12.440 -0.0391  0.1078 -0.0349
 5668TIP3    H141199   0.813   2.011  12.487 -0.7264  0.5079 -0.5394
 5668TIP3    H241200   0.950   2.073  12.502 -0.8445  0.4505  0.8501
 5669TIP3   OH241201   3.041   0.176  10.894 -0.2865 -0.1014 -0.4620
 5669TIP3    H141202   2.970   0.238  10.879 -0.5348 -0.1724  0.3276
 5669TIP3    H241203   3.106   0.226  10.943 -1.2372 -0.8677  1.7207
 5670TIP3   OH241204   7.420   3.938  13.175  0.1123 -0.0092 -0.0810
 5670TIP3    H141205   7.440   3.844  13.183 -3.0658 -0.7672  0.5199
 5670TIP3    H241206   7.395   3.964  13.263 -1.6729  0.6679 -0.7548
 5671TIP3   OH241207   4.665   5.968  12.179  0.1850  0.2308 -0.2357
 5671TIP3    H141208   4.760   5.974  12.178  0.2825 -0.6199  1.0795
 5671TIP3    H241209   4.637   6.030  12.247  0.0211 -1.3280  1.1902
 5672TIP3   OH241210   6.511   6.321  12.478  0.5833 -0.1101 -0.2446
 5672TIP3    H141211   6.425   6.362  12.490  0.6105 -0.2674  0.5652
 5672TIP3    H241212   6.565   6.358  12.548  0.8698 -0.8244 -0.0763
 5673TIP3   OH241213   1.183   5.249  13.155  0.4198 -0.3309  0.0559
 5673TIP3    H141214   1.264   5.207  13.125  0.3176 -0.8757  0.5256
 5673TIP3    H241215   1.140   5.182  13.209 -0.2987 -0.0113 -0.1144
 5674TIP3   OH241216   0.962   7.068  10.476  0.3748 -0.4977  0.3138
 5674TIP3    H141217   0.994   7.084  10.565  0.9411 -0.1735  0.0647
 5674TIP3    H241218   0.869   7.089  10.479  0.4302 -0.3095  0.7886
 5675TIP3   OH241219   2.364   1.024  11.885 -0.3743  0.0926  0.6216
 5675TIP3    H141220   2.275   1.008  11.854 -0.5165  1.5094  0.2186
 5675TIP3    H241221   2.417   1.027  11.806  0.1334 -1.2070  0.8899
 5676TIP3   OH241222   4.926   7.509  10.833 -0.0797 -0.0967 -0.0950
 5676TIP3    H141223   4.948   7.507  10.926  3.0734  1.3306 -0.6764
 5676TIP3    H241224   4.895   7.598  10.818  0.9475  0.1822 -0.6527
 5677TIP3   OH241225   3.042   2.428  11.994  0.0672  0.0286  0.3690
 5677TIP3    H141226   3.087   2.354  11.952  0.2491  1.2164 -1.6940
 5677TIP3    H241227   2.950   2.401  11.999  0.4351 -1.1012  1.5300
 5678TIP3   OH241228   5.900   0.884  11.305 -0.2756  0.2977  0.5825
 5678TIP3    H141229   5.871   0.973  11.288 -2.1539 -0.1524  1.1049
 5678TIP3    H241230   5.912   0.845  11.219 -2.5188  0.1864  0.2511
 5679TIP3   OH241231   1.423   7.191  13.117 -0.7505  0.3142 -0.1516
 5679TIP3    H141232   1.423   7.165  13.209  1.2814 -0.9263 -0.4388
 5679TIP3    H241233   1.339   7.161  13.084 -2.2682  2.2593  1.6098
 5680TIP3   OH241234   6.260   1.205  12.900 -0.0428  0.0674 -0.3933
 5680TIP3    H141235   6.336   1.260  12.882 -0.7248  1.7095  1.4053
 5680TIP3    H241236   6.288   1.148  12.972 -0.4939  0.7314  0.3286
 5681TIP3   OH241237   7.261   2.099  12.440  0.1824 -0.1841 -0.0274
 5681TIP3    H141238   7.326   2.143  12.385  2.1928 -0.3750  2.0647
 5681TIP3    H241239   7.308   2.024  12.476 -0.8499  0.2507  2.3785
 5682TIP3   OH241240   2.642   6.844  10.999  0.4758 -0.2499 -0.6534
 5682TIP3    H141241   2.661   6.844  10.905  0.5260  1.5159 -0.6733
 5682TIP3    H241242   2.709   6.901  11.036 -0.4188  0.2250  0.2549
 5683TIP3   OH241243   0.800   3.350  11.723 -0.1542  0.1588  0.0681
 5683TIP3    H141244   0.783   3.276  11.666  4.1039 -0.6744 -0.4370
 5683TIP3    H241245   0.755   3.424  11.681 -0.6090 -1.2457 -2.0392
 5684TIP3   OH241246   3.358   2.378  12.244  0.6245  0.1632  0.1720
 5684TIP3    H141247   3.337   2.458  12.292 -0.6805  0.4211 -0.7662
 5684TIP3    H241248   3.453   2.381  12.231  0.7651  0.9006  1.2511
 5685TIP3   OH241249   2.013   5.343  11.767  0.1484  0.3529  0.3779
 5685TIP3    H141250   2.015   5.287  11.690  0.2400 -0.2368  0.8008
 5685TIP3    H241251   2.092   5.397  11.760  0.3602  0.0263  0.2684
 5686TIP3   OH241252   5.174   0.476  13.709  0.2370  0.3604 -0.2031
 5686TIP3    H141253   5.222   0.556  13.727 -2.1963  1.7124  0.6207
 5686TIP3    H241254   5.101   0.503  13.654 -0.0808 -1.4755 -0.7550
 5687TIP3   OH241255   2.154   6.310  12.476  0.5151 -0.1879 -0.2956
 5687TIP3    H141256   2.218   6.262  12.528 -0.1037 -0.5842  0.1102
 5687TIP3    H241257   2.120   6.377  12.536 -0.5616 -0.9634 -0.0186
 5688TIP3   OH241258   3.262   2.000  10.678  0.4404  0.2212  0.0958
 5688TIP3    H141259   3.276   2.051  10.758  1.9303  0.2150 -0.1206
 5688TIP3    H241260   3.348   1.961  10.660 -0.1342 -0.6141 -0.9382
 5689TIP3   OH241261   6.785   1.844  11.342  0.0815 -0.2823  0.6682
 5689TIP3    H141262   6.748   1.759  11.317  0.2721  0.1208 -1.1216
 5689TIP3    H241263   6.708   1.900  11.354 -0.0110 -0.2941  0.1837
 5690TIP3   OH241264   1.823   7.206  11.698  0.5339  0.5338  0.2674
 5690TIP3    H141265   1.758   7.150  11.741  0.0482 -0.2010 -1.3676
 5690TIP3    H241266   1.786   7.294  11.703 -0.3313  0.2033 -0.1408
 5691TIP3   OH241267   6.722   5.535  13.385  1.1687  0.1639 -0.8088
 5691TIP3    H141268   6.638   5.491  13.387  1.5775 -0.6028 -0.2177
 5691TIP3    H241269   6.787   5.465  13.380  1.8346  0.6724  0.2117
 5692TIP3   OH241270   5.501   2.259  11.619  0.5777  0.2106 -0.6232
 5692TIP3    H141271   5.424   2.315  11.602 -1.2925 -1.8383  0.5198
 5692TIP3    H241272   5.516   2.214  11.536 -0.1469 -0.1253 -0.5852
 5693TIP3   OH241273   4.958   1.823  11.655 -0.3946  0.3258  0.4510
 5693TIP3    H141274   5.025   1.759  11.630 -1.4747 -0.7537  0.1985
 5693TIP3    H241275   4.930   1.795  11.742  0.1776  1.3829  0.9938
 5694TIP3   OH241276   1.600   0.351  12.508  0.0843  0.2731 -0.0424
 5694TIP3    H141277   1.686   0.374  12.542  1.8510 -1.9016 -2.6920
 5694TIP3    H241278   1.568   0.284  12.569 -0.3345  1.8677  1.5835
 5695TIP3   OH241279   1.878   2.322  11.523  0.0650  0.2258  0.1229
 5695TIP3    H141280   1.896   2.416  11.515 -0.3076  0.2015 -1.4350
 5695TIP3    H241281   1.783   2.318  11.537 -0.0734  0.0558 -0.8331
 5696TIP3   OH241282   1.800   0.131  11.969  0.4503 -0.4923  0.0854
 5696TIP3    H141283   1.749   0.209  11.989  0.4346 -0.1321 -1.2702
 5696TIP3    H241284   1.754   0.060  12.013  1.0127  0.3721  2.1692
 5697TIP3   OH241285   1.063   4.439  12.574 -0.5738 -0.3008 -0.6333
 5697TIP3    H141286   0.977   4.447  12.533 -1.4465  2.1929  1.4305
 5697TIP3    H241287   1.121   4.488  12.516 -1.0216 -0.0012 -0.8360
 5698TIP3   OH241288   2.540   3.291  12.433  0.1701 -0.2317  0.2645
 5698TIP3    H141289   2.602   3.299  12.505 -0.2999 -0.1161  0.6578
 5698TIP3    H241290   2.531   3.196  12.420 -0.5891 -0.2882  1.1022
 5699TIP3   OH241291   4.914   6.518  10.698 -0.2405  0.1192  0.0072
 5699TIP3    H141292   4.988   6.578  10.707  1.9937 -2.5044  0.5169
 5699TIP3    H241293   4.933   6.467  10.619 -1.8797 -0.1719 -0.2452
 5700TIP3   OH241294   0.375   6.048  12.764  0.2337 -0.2274  0.2494
 5700TIP3    H141295   0.368   5.958  12.733 -2.0961  0.5870 -1.9351
 5700TIP3    H241296   0.420   6.095  12.694  0.2866  0.5542  0.7852
 5701TIP3   OH241297   1.424   3.651  12.234  0.4542 -0.1749 -0.4330
 5701TIP3    H141298   1.389   3.676  12.319  0.3101  0.2665 -0.6187
 5701TIP3    H241299   1.372   3.701  12.171  1.2135  0.2573 -0.7320
 5702TIP3   OH241300   3.519   4.240  12.313 -0.1987 -0.4967 -0.1997
 5702TIP3    H141301   3.461   4.227  12.238  1.2931 -1.1284 -1.3027
 5702TIP3    H241302   3.510   4.333  12.333  0.7675  0.1612 -2.4401
 5703TIP3   OH241303   3.882   5.774  12.430 -1.0489 -0.0424 -0.3407
 5703TIP3    H141304   3.888   5.747  12.522 -1.3645 -1.0087 -0.5910
 5703TIP3    H241305   3.801   5.825  12.425 -0.6290  0.6827  0.0675
 5704TIP3   OH241306   2.670   6.716  10.704  0.5086 -0.1643 -0.1354
 5704TIP3    H141307   2.614   6.655  10.752 -1.4857  2.0936  0.5326
 5704TIP3    H241308   2.759   6.696  10.735 -0.4228 -0.6281  2.4166
 5705TIP3   OH241309   6.427   6.072  12.205  0.2410 -0.7592 -0.6154
 5705TIP3    H141310   6.393   5.987  12.176 -1.0216 -0.5228  0.1009
 5705TIP3    H241311   6.369   6.098  12.276  1.3488  0.1543 -0.0181
 5706TIP3   OH241312   1.886   4.942  11.246 -0.1836 -0.1304  0.5182
 5706TIP3    H141313   1.963   4.907  11.291  1.0605  0.1206 -1.3092
 5706TIP3    H241314   1.839   4.865  11.214  0.1682 -0.2563  0.3012
 5707TIP3   OH241315   6.165   1.089  11.249 -0.9105 -0.0753  0.4912
 5707TIP3    H141316   6.231   1.154  11.275 -2.1307  1.2061  0.5389
 5707TIP3    H241317   6.211   1.005  11.252  0.5354  0.7018  1.1441
 5708TIP3   OH241318   1.140   2.650  12.761  0.1436  0.5775 -1.6888
 5708TIP3    H141319   1.074   2.641  12.692 -1.6618  0.4888 -0.0141
 5708TIP3    H241320   1.174   2.738  12.750 -0.4491  0.7309 -2.4054
 5709TIP3   OH241321   0.737   3.114  12.077  0.2457 -0.0429  0.4555
 5709TIP3    H141322   0.675   3.101  12.148  1.0247 -0.3964  1.0936
 5709TIP3    H241323   0.691   3.169  12.014 -1.4453 -1.9033 -0.0329
 5710TIP3   OH241324   2.768   0.681  12.749 -0.2284 -0.1064  0.1972
 5710TIP3    H141325   2.864   0.688  12.742 -0.2120 -1.4641 -1.6428
 5710TIP3    H241326   2.748   0.594  12.717 -2.0701 -0.0740  1.1493
 5711TIP3   OH241327   5.973   3.113  13.208  0.2104  0.2486 -0.7168
 5711TIP3    H141328   5.992   3.031  13.162  1.8897 -0.5066  1.1340
 5711TIP3    H241329   5.879   3.110  13.225  0.2413 -1.3217 -0.6857
 5712TIP3   OH241330   6.892   6.049  13.136 -0.2956  0.0686 -0.1021
 5712TIP3    H141331   6.981   6.028  13.166 -0.4186  1.5091  1.4163
 5712TIP3    H241332   6.867   6.126  13.187 -3.1630 -1.4120  0.9824
 5713TIP3   OH241333   0.253   3.174  11.884 -0.2724 -0.3722 -0.4664
 5713TIP3    H141334   0.345   3.189  11.905 -0.0534 -0.3692 -1.3950
 5713TIP3    H241335   0.207   3.248  11.923 -0.0052 -0.8660  0.8279
 5714TIP3   OH241336   6.939   3.786  11.010 -0.1450 -0.2976 -0.0682
 5714TIP3    H141337   6.973   3.730  11.079 -2.1717 -0.7006  0.6918
 5714TIP3    H241338   6.918   3.725  10.939 -1.0886 -0.3498  0.2404
 5715TIP3   OH241339   6.160   2.042  11.552  0.3724  0.6764  0.2664
 5715TIP3    H141340   6.189   2.063  11.641 -0.7513 -0.5153  0.9419
 5715TIP3    H241341   6.124   1.953  11.559  0.9093  0.2721 -1.5360
 5716TIP3   OH241342   5.197   0.311  11.119  0.1020  0.6806 -0.6709
 5716TIP3    H141343   5.211   0.386  11.178 -0.2162  0.8736 -0.8425
 5716TIP3    H241344   5.109   0.280  11.140  0.9123 -0.8119  0.7206
 5717TIP3   OH241345   4.724   1.921  10.731  0.3491  0.7781 -0.5405
 5717TIP3    H141346   4.738   1.855  10.798 -3.2816  2.1908  1.9311
 5717TIP3    H241347   4.807   1.969  10.726  1.5128 -0.9467  1.0734
 5718TIP3   OH241348   1.811   3.443  14.040  0.1820  0.6118  0.0137
 5718TIP3    H141349   1.842   3.475  13.955  1.0186  1.0329  0.4718
 5718TIP3    H241350   1.844   3.353  14.045 -1.9090 -0.3217 -1.1370
 5719TIP3   OH241351   0.538   6.756  11.640  0.1620 -0.0983  0.7494
 5719TIP3    H141352   0.592   6.721  11.569  0.5900  0.0903  0.9767
 5719TIP3    H241353   0.517   6.845  11.613  0.9637  0.2365  1.2019
 5720TIP3   OH241354   3.325   4.224  12.142 -0.3612 -0.2380 -0.5347
 5720TIP3    H141355   3.260   4.169  12.098  0.2306  0.4371 -2.3205
 5720TIP3    H241356   3.274   4.276  12.204 -0.8802 -3.1965  1.7892
 5721TIP3   OH241357   5.718   2.010  12.298  0.2862  0.6144  0.3603
 5721TIP3    H141358   5.796   1.962  12.326 -0.3778 -0.5159  0.3476
 5721TIP3    H241359   5.719   2.091  12.348  1.6711  0.7890  0.0718
 5722TIP3   OH241360   7.083   7.094  11.349  0.4251 -0.0033 -0.1990
 5722TIP3    H141361   7.054   7.067  11.436  1.2867  0.3623  0.2131
 5722TIP3    H241362   7.096   7.012  11.301 -0.2821 -0.1973 -0.0719
 5723TIP3   OH241363   5.538   4.928  12.334 -0.4521 -0.2927 -0.3575
 5723TIP3    H141364   5.568   4.878  12.258 -0.4138  2.0595 -2.0211
 5723TIP3    H241365   5.616   4.937  12.389 -0.4457 -1.9285 -0.0753
 5724TIP3   OH241366   4.562   0.209  11.061  0.1514  0.4027  0.0321
 5724TIP3    H141367   4.512   0.260  10.997  0.4565 -1.0971 -1.5012
 5724TIP3    H241368   4.499   0.146  11.095  0.7328 -0.9955 -1.3437
 5725TIP3   OH241369   2.911   6.190  12.019 -0.5125 -0.1699  0.6292
 5725TIP3    H141370   2.870   6.276  12.008 -0.8198 -0.3505  0.3533
 5725TIP3    H241371   3.000   6.202  11.987 -0.0158  0.5015  2.1919
 5726TIP3   OH241372   0.048   4.718  11.607 -0.5916  0.0878 -0.3677
 5726TIP3    H141373  -0.045   4.727  11.631 -0.6094  0.4196 -0.5497
 5726TIP3    H241374   0.078   4.642  11.657 -0.4155  1.2212  1.3142
 5727TIP3   OH241375   6.088   2.824  12.282  0.9054 -0.0741  0.0332
 5727TIP3    H141376   6.126   2.911  12.297  0.2893  0.0661  0.8661
 5727TIP3    H241377   6.133   2.767  12.343  0.7384 -0.1800  0.0583
 5728TIP3   OH241378   4.173   1.768  11.581  0.2812 -0.6401  0.4530
 5728TIP3    H141379   4.084   1.795  11.559  0.1560 -0.6377  0.9353
 5728TIP3    H241380   4.221   1.851  11.593  0.3806 -0.6419  0.0716
 5729TIP3   OH241381   5.635   5.325  12.866  0.1049  0.1804 -0.0249
 5729TIP3    H141382   5.663   5.378  12.791 -0.3181  1.4663  0.6992
 5729TIP3    H241383   5.548   5.359  12.889 -1.5352 -2.7016 -1.2858
 5730TIP3   OH241384   3.854   2.061  12.788 -0.4468  0.0661 -0.5448
 5730TIP3    H141385   3.837   2.058  12.882  0.2329 -0.6677 -0.4378
 5730TIP3    H241386   3.789   2.123  12.754 -1.6771 -0.7910  0.1798
 5731TIP3   OH241387   7.593   3.909  11.454 -0.2827 -0.1062  0.4474
 5731TIP3    H141388   7.557   3.948  11.374 -2.7214  4.1442  3.2104
 5731TIP3    H241389   7.521   3.857  11.490  0.0517 -0.2465  0.9276
 5732TIP3   OH241390   6.107   0.070  11.818  0.0475  0.5700  0.2923
 5732TIP3    H141391   6.103   0.101  11.908 -0.4823 -0.3369  0.5944
 5732TIP3    H241392   6.051  -0.008  11.817 -0.5689  0.9936 -0.9947
 5733TIP3   OH241393   3.505   3.340  12.579 -0.0965  0.2970  0.4479
 5733TIP3    H141394   3.509   3.299  12.493 -1.1001 -0.1562  0.5963
 5733TIP3    H241395   3.414   3.326  12.608  0.5068 -0.5458  2.0578
 5734TIP3   OH241396   0.526   3.357  12.788  0.0596 -0.3420  0.4602
 5734TIP3    H141397   0.456   3.300  12.819  0.4661 -0.1598  1.8170
 5734TIP3    H241398   0.600   3.338  12.847  0.3559  1.2034  0.6316
 5735TIP3   OH241399   1.461   0.157  11.417  0.1471  0.0265 -0.1742
 5735TIP3    H141400   1.417   0.225  11.468 -1.0798  0.6302 -1.9471
 5735TIP3    H241401   1.553   0.163  11.444  0.1034  2.4822 -0.3694
 5736TIP3   OH241402   3.563   7.445  12.260 -0.8794  0.1829 -0.2794
 5736TIP3    H141403   3.543   7.525  12.213  1.7737 -0.6522 -3.1823
 5736TIP3    H241404   3.645   7.464  12.306 -0.7241 -0.5903 -0.2131
 5737TIP3   OH241405   2.958   2.960  10.867 -0.3282 -0.2255 -0.6384
 5737TIP3    H141406   3.041   2.919  10.889 -0.2399 -0.4242 -1.3139
 5737TIP3    H241407   2.892   2.893  10.885 -0.4723  0.3272  1.0314
 5738TIP3   OH241408   5.068   6.987  11.234  0.6840  0.1744  0.3402
 5738TIP3    H141409   5.117   6.908  11.259  0.4556 -1.3724 -3.3540
 5738TIP3    H241410   5.121   7.059  11.268  2.8215 -1.5118  0.8689
 5739TIP3   OH241411   5.920   1.498  12.696 -0.4495 -0.0093  0.5551
 5739TIP3    H141412   6.009   1.523  12.672 -0.8766 -0.4806 -1.6958
 5739TIP3    H241413   5.931   1.426  12.758  0.7941 -1.5650 -1.3647
 5740TIP3   OH241414   7.330   2.836  10.865 -0.4330  0.2283 -0.1762
 5740TIP3    H141415   7.338   2.826  10.960 -0.3208 -0.6471 -0.2679
 5740TIP3    H241416   7.286   2.756  10.836 -1.5084  0.9962 -0.7307
 5741TIP3   OH241417   3.086   6.515  11.628  0.2452  0.3668 -0.7917
 5741TIP3    H141418   3.163   6.459  11.639 -0.9400 -1.8863 -2.8467
 5741TIP3    H241419   3.107   6.595  11.675  1.9325 -1.9270  2.7861
 5742TIP3   OH241420   6.279   4.334  12.259  0.2198  0.1209  0.0451
 5742TIP3    H141421   6.286   4.366  12.169 -1.0999  0.9998  0.2250
 5742TIP3    H241422   6.217   4.262  12.254 -0.6036  0.7894  0.3758
 5743TIP3   OH241423   3.914   1.924  19.173  0.1577  0.0604  0.1206
 5743TIP3    H141424   3.997   1.944  19.216 -0.0692 -0.7899  0.9799
 5743TIP3    H241425   3.923   1.834  19.142  0.1111  0.4680 -1.1521
 5744TIP3   OH241426   6.616   3.321  12.657 -0.0411  0.0345  0.6481
 5744TIP3    H141427   6.605   3.389  12.723  0.1020  0.9514 -0.2424
 5744TIP3    H241428   6.706   3.332  12.626 -0.4351  0.3423 -0.4485
 5745TIP3   OH241429   2.994   0.826  12.415 -0.5088  0.1880  0.1844
 5745TIP3    H141430   2.966   0.901  12.363  1.6646  1.6621  1.0083
 5745TIP3    H241431   3.077   0.853  12.454  0.0815 -2.4577  0.9762
 5746TIP3   OH241432   3.794   1.430  12.396  0.2135  0.3712 -0.1245
 5746TIP3    H141433   3.710   1.447  12.352 -0.9272  2.8642  2.7172
 5746TIP3    H241434   3.786   1.340  12.427 -0.6368 -0.0215 -1.3790
 5747TIP3   OH241435   0.764   5.494  11.156  0.0249 -0.1112  0.2665
 5747TIP3    H141436   0.724   5.410  11.179 -0.6750 -0.2053 -1.2030
 5747TIP3    H241437   0.763   5.544  11.238 -1.0870 -0.9256  0.7793
 5748TIP3   OH241438   6.058   3.103  12.307 -0.2715 -0.4866 -0.0828
 5748TIP3    H141439   6.004   3.145  12.374  0.7043 -1.8247  1.6054
 5748TIP3    H241440   6.003   3.104  12.228 -1.3286  1.3995  0.6165
 5749TIP3   OH241441   4.934   3.265  11.659  0.0456 -0.4787  0.4434
 5749TIP3    H141442   5.007   3.270  11.598 -0.0893  0.4683  0.3356
 5749TIP3    H241443   4.864   3.221  11.610  0.2576 -0.6026  0.2525
 5750TIP3   OH241444   4.643   0.823  12.111  0.1044  0.2972  0.0588
 5750TIP3    H141445   4.611   0.793  12.026  0.1583  0.9774 -0.2058
 5750TIP3    H241446   4.738   0.806  12.108 -0.2422 -2.3767  1.1127
 5751TIP3   OH241447   6.184   1.171  11.969  0.0899 -0.2075 -0.2963
 5751TIP3    H141448   6.262   1.168  11.914  0.8877  1.4349  0.6548
 5751TIP3    H241449   6.128   1.101  11.936  1.8968 -1.3428 -1.0922
 5752TIP3   OH241450   6.877   5.729  12.252 -0.2524  0.4804  0.2189
 5752TIP3    H141451   6.937   5.799  12.228  0.9480 -0.1927  1.1790
 5752TIP3    H241452   6.883   5.724  12.348 -0.2870 -0.9465  0.1676
 5753TIP3   OH241453   4.653   0.241  11.316 -0.2067 -0.0533 -0.0814
 5753TIP3    H141454   4.601   0.321  11.321  1.3633  0.9604  1.1858
 5753TIP3    H241455   4.655   0.219  11.223  0.6090  2.3107 -0.6779
 5754TIP3   OH241456   6.568   5.048  11.936 -0.1441  0.0547 -0.0074
 5754TIP3    H141457   6.622   4.979  11.974 -1.1670 -2.1879 -2.3507
 5754TIP3    H241458   6.631   5.114  11.906  1.1296 -1.3524 -0.5505
 5755TIP3   OH241459   4.767   3.417  11.328 -0.1349  0.3124 -0.8549
 5755TIP3    H141460   4.853   3.436  11.364 -0.6186  1.7336 -0.3818
 5755TIP3    H241461   4.706   3.463  11.385 -1.3462 -1.8334 -0.3375
 5756TIP3   OH241462   1.896   5.478  10.926  0.3453  0.1068 -0.0552
 5756TIP3    H141463   1.901   5.443  10.837 -0.9295 -0.2778  0.0077
 5756TIP3    H241464   1.860   5.566  10.914  1.9952  0.8324 -0.0622
 5757TIP3   OH241465   0.028   4.217  12.547  0.5806 -0.1581  0.5315
 5757TIP3    H141466   0.116   4.225  12.509  0.4816  1.3230  0.5798
 5757TIP3    H241467   0.043   4.211  12.641  0.6692 -0.7901  0.4805
 5758TIP3   OH241468   5.414   5.344  11.552 -0.0067  0.4550 -0.0555
 5758TIP3    H141469   5.413   5.416  11.615 -2.3628  0.7961 -0.4067
 5758TIP3    H241470   5.464   5.378  11.478 -0.6968  1.5934 -0.0302
 5759TIP3   OH241471   6.985   6.242  11.192 -0.8129  0.4231  0.3919
 5759TIP3    H141472   6.965   6.317  11.248  1.0048  0.1378  1.5098
 5759TIP3    H241473   6.955   6.167  11.242  2.2863  0.0201  1.9231
 5760TIP3   OH241474   3.871   7.087  11.700  0.4530 -0.0016  0.1436
 5760TIP3    H141475   3.829   7.133  11.627  1.7972 -0.0069 -0.6735
 5760TIP3    H241476   3.823   7.004  11.706  0.0974  0.1471 -0.5113
 5761TIP3   OH241477   1.436   5.073  11.545 -0.0925 -0.1970  0.4444
 5761TIP3    H141478   1.483   5.062  11.462  0.6142  1.3627  0.6151
 5761TIP3    H241479   1.481   5.145  11.589 -2.8130  1.6204  0.4754
 5762TIP3   OH241480   2.706   2.542  12.698  0.0760  0.4081 -0.4086
 5762TIP3    H141481   2.764   2.504  12.765 -0.0240 -1.5005 -1.3131
 5762TIP3    H241482   2.621   2.549  12.741  0.1900 -0.0762 -0.0835
 5763TIP3   OH241483   1.314   5.951  12.810 -0.8997  0.3176 -0.4088
 5763TIP3    H141484   1.358   5.866  12.808 -1.6301 -0.0903 -2.7622
 5763TIP3    H241485   1.259   5.949  12.888  0.8300 -0.4180  0.8221
 5764TIP3   OH241486   6.818   0.307  10.687 -0.5994 -0.1858  0.4158
 5764TIP3    H141487   6.885   0.312  10.754 -1.3660 -1.5012  1.3444
 5764TIP3    H241488   6.795   0.214  10.683 -0.6618 -0.1401 -1.5985
 5765TIP3   OH241489   2.613   0.920  12.822  0.5342  0.2528 -1.1571
 5765TIP3    H141490   2.602   0.966  12.739 -2.1225  0.6892 -0.6518
 5765TIP3    H241491   2.631   0.830  12.797  1.3387  0.6808 -2.1822
 5766TIP3   OH241492   2.818   7.078  10.531  0.2618  0.3535  0.4206
 5766TIP3    H141493   2.906   7.042  10.534  0.2936  0.5259  1.9143
 5766TIP3    H241494   2.790   7.064  10.440  1.3062 -0.9151  0.2658
 5767TIP3   OH241495   4.631   7.111  10.964  0.5050 -0.3398 -0.3068
 5767TIP3    H141496   4.612   7.072  10.879 -0.4384  2.3363 -1.4211
 5767TIP3    H241497   4.723   7.089  10.980  0.3771 -1.8620 -1.4299
 5768TIP3   OH241498   5.845   5.403  12.272 -0.0196  0.3469 -0.0021
 5768TIP3    H141499   5.920   5.368  12.321  0.1038  1.8708  0.9893
 5768TIP3    H241500   5.874   5.404  12.181  0.8459  0.1167  0.2618
 5769TIP3   OH241501   3.501   4.069  12.517  0.4776 -0.6581  0.3262
 5769TIP3    H141502   3.522   4.137  12.452 -0.5563  0.6419  1.3035
 5769TIP3    H241503   3.407   4.055  12.506  0.0846  0.2819  2.1544
 5770TIP3   OH241504   6.868   4.895  11.446 -0.2966  0.5242  0.1344
 5770TIP3    H141505   6.865   4.809  11.404 -0.4341  0.8713 -0.5840
 5770TIP3    H241506   6.961   4.915  11.454 -0.2511  1.3179 -1.8511
 5771TIP3   OH241507   4.237   2.840  12.132  0.2168 -0.2628 -1.0254
 5771TIP3    H141508   4.298   2.914  12.138  0.2477 -0.2356 -1.5752
 5771TIP3    H241509   4.293   2.763  12.127  0.1729 -0.4421  0.7750
 5772TIP3   OH241510   3.108   2.262  12.254  0.5872  0.5554 -0.3065
 5772TIP3    H141511   3.174   2.323  12.221  0.3163  2.0789  1.7570
 5772TIP3    H241512   3.062   2.232  12.176  0.6631  3.1043 -1.4325
 5773TIP3   OH241513   1.277   2.622  11.280 -0.5629 -0.3687 -0.0043
 5773TIP3    H141514   1.334   2.561  11.234  0.2188  0.9238 -0.8260
 5773TIP3    H241515   1.208   2.643  11.218 -0.4729  0.0525  0.0333
 5774TIP3   OH241516   6.823   5.334  11.157  0.0426 -0.0973  0.3139
 5774TIP3    H141517   6.834   5.389  11.234  0.3091  0.0619  0.1654
 5774TIP3    H241518   6.796   5.249  11.191 -0.3965  0.1308  0.5451
 5775TIP3   OH241519   6.032   0.081  10.844 -0.2789 -0.0594 -0.2680
 5775TIP3    H141520   6.097   0.123  10.900  0.9826 -1.0126 -0.9641
 5775TIP3    H241521   5.999   0.151  10.789  0.6437  0.3361 -0.3393
 5776TIP3   OH241522   6.821   0.354  12.457 -0.0883  0.2496 -0.3385
 5776TIP3    H141523   6.854   0.339  12.545 -0.6953 -1.4248 -0.3539
 5776TIP3    H241524   6.891   0.400  12.412  0.7854 -0.0978  0.6316
 5777TIP3   OH241525   1.582   3.345  10.614 -0.1441  0.2995  0.5581
 5777TIP3    H141526   1.641   3.417  10.639  0.9648  0.3650 -1.8952
 5777TIP3    H241527   1.630   3.266  10.636  0.4973  0.3562 -0.5490
 5778TIP3   OH241528   5.152   7.097  12.284 -0.3890 -0.1910 -0.7159
 5778TIP3    H141529   5.227   7.059  12.237  0.0369 -1.1744  0.7003
 5778TIP3    H241530   5.079   7.041  12.259 -0.3944 -0.0084 -1.1106
 5779TIP3   OH241531   5.145   2.741  11.521 -0.3688  0.3366  0.6086
 5779TIP3    H141532   5.177   2.732  11.432 -0.8841 -1.0562  0.5358
 5779TIP3    H241533   5.050   2.751  11.512 -0.5235 -0.6135  1.0049
 5780TIP3   OH241534   7.588   6.348  11.040  0.3454 -0.6791  0.0369
 5780TIP3    H141535   7.498   6.366  11.068  0.4166  0.7038 -0.5461
 5780TIP3    H241536   7.622   6.432  11.011  1.3484 -1.4556 -1.1487
 5781TIP3   OH241537   5.321   0.378  12.395  0.1272  0.0796  0.1246
 5781TIP3    H141538   5.229   0.405  12.392  0.0092 -0.2889  0.2345
 5781TIP3    H241539   5.351   0.404  12.482 -0.6776 -2.2335  1.1832
 5782TIP3   OH241540   1.616   2.689  11.655 -0.0254  0.1326  0.4807
 5782TIP3    H141541   1.541   2.747  11.641 -0.2546 -0.0918  0.7653
 5782TIP3    H241542   1.624   2.682  11.750  0.5493  0.3995  0.4559
 5783TIP3   OH241543   7.345   6.629  11.274 -0.5861 -0.3093  0.2565
 5783TIP3    H141544   7.364   6.684  11.198 -0.6315  1.4845  1.4908
 5783TIP3    H241545   7.430   6.592  11.297 -0.8511 -2.3390 -1.6833
 5784TIP3   OH241546   0.023   4.069  12.935 -0.1917  0.0819 -0.3056
 5784TIP3    H141547  -0.034   4.132  12.891  0.0205  0.3202 -0.2356
 5784TIP3    H241548  -0.009   4.067  13.025  1.7357  2.4213  0.5371
 5785TIP3   OH241549   0.914   5.314  13.132 -0.5734 -0.7685  0.4752
 5785TIP3    H141550   0.865   5.256  13.190  0.6909 -1.0384  1.3144
 5785TIP3    H241551   1.006   5.294  13.150 -0.1457 -0.1211 -0.8913
 5786TIP3   OH241552   2.658   0.578  10.857  0.3331 -0.6868  0.1873
 5786TIP3    H141553   2.610   0.605  10.936 -0.1648 -1.7633  0.2708
 5786TIP3    H241554   2.717   0.651  10.838 -0.9656  0.4517  0.3927
 5787TIP3   OH241555   3.394   1.904  11.706 -0.0991 -0.7194 -0.0434
 5787TIP3    H141556   3.451   1.867  11.774  0.3066 -0.5653 -0.2983
 5787TIP3    H241557   3.404   1.844  11.632 -0.1023 -0.5700 -0.1642
 5788TIP3   OH241558   6.105   1.032  11.510 -0.2332  0.1105  0.6985
 5788TIP3    H141559   6.046   0.964  11.542 -1.9103  2.1283  2.2166
 5788TIP3    H241560   6.080   1.046  11.419 -0.3632 -0.7949  0.5929
 5789TIP3   OH241561   5.453   0.761  12.002 -0.0425  0.1479 -0.3170
 5789TIP3    H141562   5.503   0.817  11.943 -0.0382  0.1545 -0.3076
 5789TIP3    H241563   5.514   0.691  12.026  0.7156  1.3128  1.4130
 5790TIP3   OH241564   3.382   3.017  13.335 -0.2417 -0.5763 -0.2964
 5790TIP3    H141565   3.478   3.018  13.339 -0.2802 -0.0179  0.9363
 5790TIP3    H241566   3.362   2.971  13.253  1.0693 -1.0616 -0.3694
 5791TIP3   OH241567   0.006   3.807  11.135 -0.6519  0.0672 -0.7733
 5791TIP3    H141568   0.045   3.895  11.137  1.1820 -0.6738  1.4231
 5791TIP3    H241569   0.080   3.749  11.151 -1.9848 -1.8141 -1.1782
 5792TIP3   OH241570   0.080   3.960  11.952 -0.0123  0.0224  0.2938
 5792TIP3    H141571   0.070   3.978  11.859  0.3834  1.4548  0.4994
 5792TIP3    H241572   0.128   4.035  11.986 -0.6103 -0.2136  1.7520
 5793TIP3   OH241573   0.120   5.371  12.778  0.6020  0.2827 -0.1994
 5793TIP3    H141574   0.125   5.276  12.770 -0.0895  0.3460 -1.7625
 5793TIP3    H241575   0.095   5.387  12.869  1.4931 -0.9825  0.2931
 5794TIP3   OH241576   6.360   1.838  11.777  0.5301  0.2409  0.4216
 5794TIP3    H141577   6.423   1.871  11.713  0.5787  0.8899  0.7942
 5794TIP3    H241578   6.372   1.743  11.776  0.2125  0.1891 -0.8536
 5795TIP3   OH241579   5.309   7.059  11.456  0.0736 -0.0899  0.5577
 5795TIP3    H141580   5.404   7.053  11.464  0.2898 -0.0865 -1.4681
 5795TIP3    H241581   5.280   7.089  11.542  1.9940  0.9499  0.9177
 5796TIP3   OH241582   2.999   6.195  11.570  0.0172  0.1033 -0.5995
 5796TIP3    H141583   2.922   6.231  11.613  0.3889  1.0728 -0.7200
 5796TIP3    H241584   2.967   6.117  11.524 -0.8567  0.4209 -0.5425
 5797TIP3   OH241585   6.608   3.916  12.106 -0.1053 -0.1656 -0.0391
 5797TIP3    H141586   6.688   3.881  12.066 -0.2476  0.2389 -0.6910
 5797TIP3    H241587   6.541   3.852  12.085 -0.0208 -0.3404  0.2223
 5798TIP3   OH241588   5.909   3.069  10.771 -0.4139 -0.2921  0.3798
 5798TIP3    H141589   5.823   3.069  10.812 -1.9327  1.1951 -2.5020
 5798TIP3    H241590   5.925   2.977  10.748 -0.9807 -0.6502  1.3822
 5799TIP3   OH241591   3.731   5.133  12.255  0.3278 -0.0818  0.1555
 5799TIP3    H141592   3.657   5.147  12.313  0.5958 -0.1894  0.5243
 5799TIP3    H241593   3.692   5.118  12.169 -0.0606  0.3038  0.2636
 5800TIP3   OH241594   6.982   2.237  11.433 -0.0624  0.3820  0.0916
 5800TIP3    H141595   7.007   2.162  11.379 -0.1446  0.0726  0.4803
 5800TIP3    H241596   6.973   2.310  11.371  0.3103  0.1399 -0.2451
 5801TIP3   OH241597   3.106   3.507  13.648 -0.0772 -0.0192 -0.4472
 5801TIP3    H141598   3.184   3.454  13.630 -0.1416 -0.3731  0.3092
 5801TIP3    H241599   3.038   3.443  13.669 -0.4355  0.3154 -0.5890
 5802TIP3   OH241600   7.408   2.480  11.397 -0.4607 -0.7485 -1.5153
 5802TIP3    H141601   7.493   2.525  11.392 -1.1108  0.6538 -0.5638
 5802TIP3    H241602   7.412   2.432  11.480 -0.9479  0.1047 -0.9874
 5803TIP3   OH241603   6.628   3.252  12.231  0.4430 -0.3723  0.5102
 5803TIP3    H141604   6.667   3.337  12.250 -0.1580 -0.0405  0.2613
 5803TIP3    H241605   6.573   3.233  12.307  0.3399 -0.4037  0.4267
 5804TIP3   OH241606   5.988   1.563  11.214 -0.6378  0.3857  0.1521
 5804TIP3    H141607   6.014   1.553  11.306 -2.6241  2.2336  0.9955
 5804TIP3    H241608   6.038   1.638  11.183  1.0435 -1.0343 -0.7715
 5805TIP3   OH241609   5.279   3.948  12.780  0.1613  0.3677 -0.4486
 5805TIP3    H141610   5.231   3.906  12.709  0.6040  0.4831 -0.8211
 5805TIP3    H241611   5.273   3.886  12.853 -0.3592  0.2824 -0.5559
 5806TIP3   OH241612   2.440   6.966  12.102 -0.4051 -0.4996  0.0737
 5806TIP3    H141613   2.428   6.965  12.007  0.3716  1.8555 -0.1196
 5806TIP3    H241614   2.380   7.034  12.133  0.8117  0.2050  0.9745
 5807TIP3   OH241615   3.818   7.205  12.655  0.5474 -0.2757  0.3988
 5807TIP3    H141616   3.882   7.218  12.585 -0.1896  0.5870 -0.1464
 5807TIP3    H241617   3.870   7.187  12.733  1.4049 -0.8621 -0.2856
 5808TIP3   OH241618   4.686   7.153  13.116 -0.2996  0.0504 -0.2150
 5808TIP3    H141619   4.632   7.093  13.167 -0.3091 -0.5917 -0.9704
 5808TIP3    H241620   4.721   7.100  13.044 -0.9225  1.1012 -1.3403
 5809TIP3   OH241621   2.489   5.389  12.173  0.2542  0.2439  0.0243
 5809TIP3    H141622   2.466   5.422  12.260  1.6922  0.6573  0.2757
 5809TIP3    H241623   2.405   5.370  12.131 -0.4898 -2.6236  2.4596
 5810TIP3   OH241624   4.872   3.847  12.724  0.2618 -0.7850 -0.2802
 5810TIP3    H141625   4.935   3.864  12.654 -0.3676  2.3293 -0.2275
 5810TIP3    H241626   4.917   3.877  12.803 -0.9112  0.6599 -0.1251
 5811TIP3   OH241627   2.203   7.426  10.734 -0.0773 -0.0784 -0.0864
 5811TIP3    H141628   2.205   7.350  10.676 -1.2422 -0.5563  0.4570
 5811TIP3    H241629   2.242   7.395  10.815  1.6520  0.6222 -0.6078
 5812TIP3   OH241630   5.771   0.462  12.607 -0.2718  0.3445 -0.2653
 5812TIP3    H141631   5.770   0.535  12.670  0.6588  1.1943 -1.1979
 5812TIP3    H241632   5.817   0.392  12.652 -1.9123  0.0043  0.9663
 5813TIP3   OH241633   0.886   2.785  13.130 -0.0292  0.0603 -0.1067
 5813TIP3    H141634   0.845   2.703  13.104  1.2952 -1.2256  1.6649
 5813TIP3    H241635   0.812   2.845  13.144 -1.0505 -0.9577 -0.8937
 5814TIP3   OH241636   6.750   5.173  11.733  0.7509  0.0940  0.1299
 5814TIP3    H141637   6.696   5.231  11.679 -0.8030 -0.2466  1.2566
 5814TIP3    H241638   6.729   5.085  11.701  1.0780 -0.0168  0.2155
 5815TIP3   OH241639   0.256   0.963  12.721 -0.2742 -0.1309  0.6015
 5815TIP3    H141640   0.235   0.910  12.797 -0.2966 -2.0123 -0.6491
 5815TIP3    H241641   0.343   0.933  12.693  1.2035  2.7607  1.6786
 5816TIP3   OH241642   4.123   7.669  11.794 -0.2869 -0.2670  0.2389
 5816TIP3    H141643   4.208   7.684  11.754 -0.4536 -0.5387 -0.2265
 5816TIP3    H241644   4.122   7.576  11.816 -0.7702 -0.4598 -0.5207
 5817TIP3   OH241645   5.771   1.106  12.515 -0.7214 -0.0248  0.4141
 5817TIP3    H141646   5.841   1.168  12.535 -1.3718  0.5317  1.0444
 5817TIP3    H241647   5.791   1.029  12.568 -0.5238  0.0894  0.5061
 5818TIP3   OH241648   5.573   5.110  11.506 -0.1053  0.7343 -0.2663
 5818TIP3    H141649   5.480   5.127  11.522 -0.4417 -2.1162  1.5089
 5818TIP3    H241650   5.619   5.159  11.575 -0.2449  2.0219 -1.0512
 5819TIP3   OH241651   2.118   5.932  10.272  0.1437  0.3035  0.2497
 5819TIP3    H141652   2.211   5.954  10.278  0.2531 -0.0011 -0.2143
 5819TIP3    H241653   2.072   6.016  10.276  0.5142  0.5877 -0.8773
 5820TIP3   OH241654   1.699   6.692  11.424  0.2808  0.0124 -0.3614
 5820TIP3    H141655   1.753   6.622  11.386  0.1355  0.7456 -2.0329
 5820TIP3    H241656   1.736   6.707  11.511  2.1032 -0.2401 -1.0507
 5821TIP3   OH241657   4.491   4.525  12.601  0.3622 -0.1335 -0.2454
 5821TIP3    H141658   4.555   4.479  12.549  1.1682 -0.3916  0.9294
 5821TIP3    H241659   4.512   4.618  12.589  0.9962 -0.2173  0.1585
 5822TIP3   OH241660   3.570   0.431  10.630 -0.7002 -0.1717  0.0200
 5822TIP3    H141661   3.535   0.352  10.673 -0.3651 -0.7271 -0.7120
 5822TIP3    H241662   3.558   0.415  10.537 -0.2975  0.5000 -0.1526
 5823TIP3   OH241663   1.615   1.319  11.730 -0.0939 -0.1868 -0.1964
 5823TIP3    H141664   1.519   1.320  11.733 -0.1104  0.8887 -0.6282
 5823TIP3    H241665   1.642   1.362  11.811 -0.0763  2.8075 -1.6554
 5824TIP3   OH241666   2.487   0.409  11.530 -0.3048 -0.2218 -0.2772
 5824TIP3    H141667   2.581   0.393  11.539  0.1292  1.7611 -0.8978
 5824TIP3    H241668   2.472   0.493  11.573 -1.3883  0.5093 -1.9519
 5825TIP3   OH241669   1.120   5.279  11.215  0.1354  0.1957 -0.0003
 5825TIP3    H141670   1.147   5.193  11.183 -1.9932 -0.3818 -0.4056
 5825TIP3    H241671   1.201   5.321  11.244  1.4624 -1.2133 -1.5033
 5826TIP3   OH241672   1.191   7.090  13.371 -0.3858 -0.7078 -0.3117
 5826TIP3    H141673   1.198   7.073  13.277  0.5503  0.7158 -0.5334
 5826TIP3    H241674   1.221   7.010  13.413 -0.0793 -1.0852 -1.2393
 5827TIP3   OH241675   1.022   2.352  11.415 -0.1329  0.0196 -0.4132
 5827TIP3    H141676   1.015   2.257  11.406  0.2881  0.1859 -6.5801
 5827TIP3    H241677   1.099   2.376  11.363  0.8526  3.7366  2.3501
 5828TIP3   OH241678   3.724   5.056  11.595  0.2351 -0.5140  0.1049
 5828TIP3    H141679   3.731   5.019  11.507 -0.8090 -0.3218 -0.0718
 5828TIP3    H241680   3.700   4.982  11.650 -2.1056 -0.1117 -0.2902
 5829TIP3   OH241681   4.914   7.138  11.057 -0.5077  0.3444 -0.7060
 5829TIP3    H141682   4.983   7.199  11.081 -1.1847  1.2696 -1.0718
 5829TIP3    H241683   4.947   7.052  11.084 -0.3519  1.0682  1.5832
 5830TIP3   OH241684   4.266   3.705  12.525 -0.0980  0.2663  0.0982
 5830TIP3    H141685   4.229   3.630  12.572  0.5214 -0.2807 -0.2846
 5830TIP3    H241686   4.241   3.781  12.579 -2.9591  0.1057 -0.8058
 5831TIP3   OH241687   1.653   0.693  12.468 -0.1850 -0.0236 -0.1891
 5831TIP3    H141688   1.647   0.642  12.549  1.3998 -0.7642 -0.4945
 5831TIP3    H241689   1.643   0.784  12.497  1.9820 -0.1155  1.1463
 5832TIP3   OH241690   3.579   6.943  11.479 -0.4399 -0.3901 -0.4107
 5832TIP3    H141691   3.514   6.873  11.472 -0.8305 -0.1914  0.8501
 5832TIP3    H241692   3.659   6.900  11.507 -0.4318 -0.4473 -0.5216
 5833TIP3   OH241693   4.480   2.546  11.785 -0.6297 -0.5828  0.2784
 5833TIP3    H141694   4.563   2.505  11.809  0.7951  1.7072 -0.3759
 5833TIP3    H241695   4.425   2.474  11.754  1.7094 -1.9967 -0.8391
 5834TIP3   OH241696   6.011   3.087  12.806 -0.1724  0.4467  0.2785
 5834TIP3    H141697   6.028   3.030  12.881  2.8291  1.3110  0.3890
 5834TIP3    H241698   5.991   3.027  12.734 -1.3567 -0.4678  1.3119
 5835TIP3   OH241699   3.829   3.706  12.620 -0.3692  0.0825 -0.0960
 5835TIP3    H141700   3.910   3.722  12.668 -0.9875  0.8197  0.7316
 5835TIP3    H241701   3.830   3.612  12.602  0.7288  0.1055 -0.2201
 5836TIP3   OH241702   1.141   6.377  10.878 -0.5918 -0.2441  0.7555
 5836TIP3    H141703   1.095   6.332  10.807  0.2026 -1.3685  0.9268
 5836TIP3    H241704   1.072   6.417  10.931 -1.3543 -1.6437  0.8433
 5837TIP3   OH241705   6.409   1.465  12.926 -0.5827  0.0604  1.3922
 5837TIP3    H141706   6.429   1.559  12.924 -3.6045  0.8361 -1.5341
 5837TIP3    H241707   6.477   1.425  12.872 -0.6187  0.9746  0.6363
 5838TIP3   OH241708   0.442   3.476  12.543 -0.1364  0.0520 -0.3370
 5838TIP3    H141709   0.476   3.432  12.621 -2.4230  0.1273  0.7920
 5838TIP3    H241710   0.451   3.569  12.563 -1.6889  0.0936  0.3936
 5839TIP3   OH241711   6.773   1.955  12.399 -0.4236 -0.5483 -0.0050
 5839TIP3    H141712   6.719   2.009  12.456 -0.4820  0.8908 -1.3372
 5839TIP3    H241713   6.731   1.961  12.313  0.3413 -1.6212 -0.4777
 5840TIP3   OH241714   1.129   5.085  12.837  0.3306 -0.4811  0.8989
 5840TIP3    H141715   1.079   5.111  12.759 -0.4370 -2.1657  0.7918
 5840TIP3    H241716   1.192   5.156  12.849 -2.2768  1.9598  1.2591
 5841TIP3   OH241717   4.130   7.463  11.529 -0.1309  0.2463  0.0935
 5841TIP3    H141718   4.121   7.558  11.516  0.6211  0.2431 -0.5153
 5841TIP3    H241719   4.184   7.455  11.607  0.8830  0.3570 -0.5646
 5842TIP3   OH241720   3.238   5.371  11.542  0.1116 -0.1459  0.2498
 5842TIP3    H141721   3.225   5.299  11.603 -0.3339 -0.7620 -0.5417
 5842TIP3    H241722   3.158   5.423  11.549  0.0576 -0.2205  0.1976
 5843TIP3   OH241723   4.513   0.569  11.640  0.1537  0.1401 -0.0643
 5843TIP3    H141724   4.501   0.664  11.632 -2.3523 -0.0602  0.3845
 5843TIP3    H241725   4.606   0.555  11.625  1.0549  2.9006  2.0906
 5844TIP3   OH241726   4.904   6.437  13.361  0.4056 -0.7761 -0.4660
 5844TIP3    H141727   4.877   6.527  13.381 -2.6670 -1.5272 -0.7538
 5844TIP3    H241728   4.893   6.429  13.266  0.3532 -1.5329 -0.4009
 5845TIP3   OH241729   6.954   6.464  12.115 -0.4055  0.4330 -0.1297
 5845TIP3    H141730   6.995   6.382  12.141  0.3183  0.3132 -1.5498
 5845TIP3    H241731   6.952   6.517  12.195  1.1357 -0.1415  0.3107
 5846TIP3   OH241732   6.912   4.019  12.556 -0.4727 -0.0479 -0.2303
 5846TIP3    H141733   6.988   3.979  12.514 -0.0596 -0.2449  0.6850
 5846TIP3    H241734   6.949   4.085  12.614 -1.0816  0.7799 -0.7616
 5847TIP3   OH241735   1.516   1.168  12.857  0.5015  0.2467  0.0573
 5847TIP3    H141736   1.556   1.255  12.861  1.7453 -0.2813 -0.1769
 5847TIP3    H241737   1.517   1.146  12.764 -0.7612  0.3946  0.0013
 5848TIP3   OH241738   1.512   2.062  12.772  0.2200  0.2176  0.5108
 5848TIP3    H141739   1.489   2.145  12.812 -1.9315 -0.7723  1.4672
 5848TIP3    H241740   1.430   2.029  12.735  1.0584 -1.4116 -0.0046
 5849TIP3   OH241741   3.262   3.884  11.631 -0.2985  0.0937 -0.1163
 5849TIP3    H141742   3.300   3.964  11.668  1.4779 -0.9101  0.3472
 5849TIP3    H241743   3.215   3.914  11.553 -0.1855  1.6493  0.3651
 5850TIP3   OH241744   3.581   2.601  11.874 -0.3586 -0.0981  0.0522
 5850TIP3    H141745   3.525   2.529  11.845 -0.8066  0.2243  0.1103
 5850TIP3    H241746   3.543   2.679  11.835 -0.8282  0.3163  1.2784
 5851TIP3   OH241747   4.290   0.121  12.997  0.5968  0.0313  0.7143
 5851TIP3    H141748   4.256   0.209  12.979  0.4757 -0.2292 -0.3538
 5851TIP3    H241749   4.213   0.065  12.997  1.0149 -0.8528 -3.3776
 5852TIP3   OH241750   1.830   5.261  13.289  0.3758 -0.1847 -0.0539
 5852TIP3    H141751   1.746   5.216  13.284  0.3297 -0.0602 -0.4312
 5852TIP3    H241752   1.895   5.193  13.271  0.4832 -0.6875  2.0425
 5853TIP3   OH241753   2.555   3.884  12.994 -0.9227  0.1001 -0.2380
 5853TIP3    H141754   2.639   3.929  12.999 -0.5523 -0.1337 -2.8819
 5853TIP3    H241755   2.567   3.805  13.046  0.9123 -0.4410 -1.3922
 5854TIP3   OH241756   1.391   0.523  11.276  0.2559 -0.5501 -0.3948
 5854TIP3    H141757   1.480   0.489  11.272  0.4754 -0.2701  1.3045
 5854TIP3    H241758   1.399   0.606  11.324 -0.9241 -0.5424 -0.1665
 5855TIP3   OH241759   3.360   0.122  11.140 -0.0802  0.1698  0.0487
 5855TIP3    H141760   3.400   0.183  11.201 -0.6100 -0.5412  1.1514
 5855TIP3    H241761   3.290   0.172  11.098  1.6406  1.3165 -1.6461
 5856TIP3   OH241762   2.609   1.587  12.622 -0.7124 -0.5354  0.7089
 5856TIP3    H141763   2.673   1.600  12.692  1.1279 -0.4179 -0.9168
 5856TIP3    H241764   2.621   1.496  12.595 -2.7691 -1.1982  1.7504
 5857TIP3   OH241765   0.013   3.354  11.847  0.4210  0.7762  0.0317
 5857TIP3    H141766  -0.065   3.393  11.808 -0.0925  0.5268  0.7962
 5857TIP3    H241767   0.084   3.377  11.787 -0.0654  1.8887 -0.1403
 5858TIP3   OH241768   3.523   6.948  10.532  0.3133  0.0014  0.8641
 5858TIP3    H141769   3.483   7.026  10.569  1.1320  0.9412 -0.1491
 5858TIP3    H241770   3.617   6.962  10.544  0.6278  0.4429 -1.6681
 5859TIP3   OH241771   1.931   5.349  10.671  0.3200 -0.3256 -0.2443
 5859TIP3    H141772   2.021   5.328  10.647  0.3025  0.5927 -1.1803
 5859TIP3    H241773   1.893   5.388  10.592 -1.4632 -2.3049 -0.4558
 5860TIP3   OH241774   4.607   2.349  13.109  0.0732 -0.1065  0.1348
 5860TIP3    H141775   4.530   2.376  13.160  0.4610 -1.6320  1.6377
 5860TIP3    H241776   4.681   2.375  13.163  0.5756  0.0357 -0.6145
 5861TIP3   OH241777   0.601   2.646  11.625  0.0330 -0.3267  0.1402
 5861TIP3    H141778   0.581   2.555  11.645 -2.3829 -0.0054 -0.5878
 5861TIP3    H241779   0.557   2.697  11.693 -0.1256  0.3516 -0.4491
 5862TIP3   OH241780   3.507   2.620  11.537 -0.0256  0.1267 -0.5700
 5862TIP3    H141781   3.420   2.595  11.506 -1.5178  2.2387  1.6216
 5862TIP3    H241782   3.536   2.545  11.590 -0.6709 -0.4231 -0.9753
 5863TIP3   OH241783   4.991   5.923  11.744  0.6799  0.0999  0.3019
 5863TIP3    H141784   5.011   5.836  11.710  1.3226 -0.1853  1.3421
 5863TIP3    H241785   4.983   5.978  11.667  1.5749 -0.6181 -0.3312
 5864TIP3   OH241786   2.656   7.561  11.236  0.0360  0.4299 -0.1534
 5864TIP3    H141787   2.725   7.616  11.198  0.4813  0.3795  0.5665
 5864TIP3    H241788   2.585   7.621  11.256  0.2351  0.6313 -0.0468
 5865TIP3   OH241789   0.526   2.149  12.075 -0.0305  0.0067 -0.0318
 5865TIP3    H141790   0.595   2.096  12.115 -0.6528 -1.0635 -0.3417
 5865TIP3    H241791   0.564   2.180  11.993  0.1981 -0.3079 -0.0458
 5866TIP3   OH241792   2.846   6.563  12.866 -0.3050 -0.5223 -0.2254
 5866TIP3    H141793   2.838   6.474  12.832 -0.5401  0.1331 -1.9590
 5866TIP3    H241794   2.931   6.593  12.834  0.5953 -0.7040  1.8477
 5867TIP3   OH241795   3.673   6.208  12.031  0.1290  0.0895 -0.1963
 5867TIP3    H141796   3.603   6.249  11.980  0.0014  0.4253  0.2401
 5867TIP3    H241797   3.690   6.125  11.987  0.3385  0.5728 -1.0594
 5868TIP3   OH241798   2.416   2.241  13.313 -0.0046 -0.4507 -0.1559
 5868TIP3    H141799   2.495   2.241  13.367 -0.4048  2.4835  0.5983
 5868TIP3    H241800   2.346   2.263  13.374 -1.3132 -2.0897 -0.9961
 5869TIP3   OH241801   0.919   4.142  12.819  0.0148  0.0163  0.0897
 5869TIP3    H141802   0.963   4.137  12.734  0.6333  1.6857  0.2755
 5869TIP3    H241803   0.945   4.061  12.864  0.9077 -0.1724 -0.7320
 5870TIP3   OH241804   1.877   1.886  11.576 -0.6810 -0.3635  0.0013
 5870TIP3    H141805   1.797   1.843  11.605 -0.3593  0.2119  1.9382
 5870TIP3    H241806   1.946   1.823  11.597 -0.2916  0.6452  2.0883
 5871TIP3   OH241807   5.435   7.148  12.672 -0.0934 -0.1530  0.4900
 5871TIP3    H141808   5.455   7.177  12.584 -0.3996  0.4841  0.6230
 5871TIP3    H241809   5.382   7.069  12.660  1.6155 -1.2781  0.1382
 5872TIP3   OH241810   1.499   3.183  10.974 -0.1776  0.1802 -0.4839
 5872TIP3    H141811   1.581   3.148  10.938 -0.2255  0.0133 -0.4304
 5872TIP3    H241812   1.433   3.159  10.910 -0.8070 -2.7847  1.0558
 5873TIP3   OH241813   0.753   3.763  11.532  0.4413 -0.1615  0.4216
 5873TIP3    H141814   0.824   3.721  11.484 -0.4534 -0.0209 -1.0912
 5873TIP3    H241815   0.728   3.838  11.478 -0.0452  0.5163  1.5352
 5874TIP3   OH241816   2.615   3.539  12.579  0.4711  0.5586 -0.1304
 5874TIP3    H141817   2.630   3.473  12.511 -1.5175  0.2728 -0.3468
 5874TIP3    H241818   2.574   3.491  12.651  1.1395  1.1500  0.6691
 5875TIP3   OH241819   2.545   4.352  13.286 -0.2336 -0.0802  0.8796
 5875TIP3    H141820   2.471   4.373  13.343 -2.7099 -0.6836 -1.8870
 5875TIP3    H241821   2.597   4.290  13.337  0.1635  2.6051  4.0979
 5876TIP3   OH241822   1.310   6.778  11.593 -0.1653 -0.5835 -0.4044
 5876TIP3    H141823   1.339   6.821  11.673 -2.0696  0.0493 -0.0025
 5876TIP3    H241824   1.378   6.798  11.528  1.4049 -1.0878  0.9967
 5877TIP3   OH241825   7.038   6.858  10.913  0.8072  0.3646 -0.0529
 5877TIP3    H141826   7.074   6.943  10.890  1.6902  0.2739  0.9733
 5877TIP3    H241827   6.949   6.877  10.944  0.8427  0.8543 -0.2482
 5878TIP3   OH241828   0.363   1.644  13.127  0.1339  0.1200  0.2665
 5878TIP3    H141829   0.437   1.618  13.182  0.3672  0.9649  0.3687
 5878TIP3    H241830   0.285   1.617  13.177  0.3237  1.3391  1.2928
 5879TIP3   OH241831   1.478   3.316  10.350 -0.5726 -0.0988  0.9581
 5879TIP3    H141832   1.517   3.394  10.311  0.0220 -1.3952 -1.1524
 5879TIP3    H241833   1.535   3.295  10.424  1.6607 -0.7592 -0.8264
 5880TIP3   OH241834   5.683   6.919  11.258  0.1346 -0.1360 -0.2082
 5880TIP3    H141835   5.682   6.823  11.261  2.2768 -0.2286  3.8788
 5880TIP3    H241836   5.764   6.940  11.211  1.2261 -0.4896  1.4239
 5881TIP3   OH241837   4.001   1.600  12.343 -0.2301  0.0567  0.0077
 5881TIP3    H141838   4.047   1.536  12.289 -1.1271 -1.3765  0.8814
 5881TIP3    H241839   3.934   1.550  12.388  0.5636  1.1190  2.5945
 5882TIP3   OH241840   3.248   5.770  12.413 -0.7194  0.2111  0.1665
 5882TIP3    H141841   3.266   5.857  12.378 -1.8334 -0.9007 -3.7385
 5882TIP3    H241842   3.162   5.778  12.454 -0.3066  1.1638  0.8664
 5883TIP3   OH241843   1.894   7.451  10.963  0.3586 -0.0934  0.0454
 5883TIP3    H141844   1.958   7.424  11.029  0.0072  2.0478  1.3632
 5883TIP3    H241845   1.821   7.486  11.014 -0.8804 -0.4043 -1.4681
 5884TIP3   OH241846   5.841   1.368  11.081  0.5595 -0.2492 -0.5094
 5884TIP3    H141847   5.881   1.365  10.995  0.5918 -0.2627 -0.4939
 5884TIP3    H241848   5.906   1.411  11.136  1.0498 -1.3120 -0.2240
 5885TIP3   OH241849   0.809   6.065  11.738 -0.3210  0.0775  0.4936
 5885TIP3    H141850   0.815   6.144  11.685 -3.6113  0.1916  0.1125
 5885TIP3    H241851   0.882   6.010  11.708  0.6500  2.0111 -0.8469
 5886TIP3   OH241852   7.368   0.252  12.412  0.4719  0.4781  0.2517
 5886TIP3    H141853   7.429   0.178  12.415  2.1502  1.7955 -0.3570
 5886TIP3    H241854   7.313   0.234  12.336  1.6967  0.4518 -0.6540
 5887TIP3   OH241855   2.893   7.279  10.970  0.5251  0.2042  0.0758
 5887TIP3    H141856   2.866   7.205  10.916  0.3907  1.3344 -1.4755
 5887TIP3    H241857   2.827   7.284  11.039 -1.0046  0.4747 -1.3373
 5888TIP3   OH241858   4.226   1.660  11.196  0.8227 -0.4303  0.1396
 5888TIP3    H141859   4.181   1.626  11.119 -0.6618  1.7579 -0.0205
 5888TIP3    H241860   4.193   1.607  11.269 -3.3166  1.9434  0.2641
 5889TIP3   OH241861   7.375   2.767  12.921  0.0604  0.1313 -0.3898
 5889TIP3    H141862   7.340   2.693  12.871  1.2175 -0.2768 -0.6389
 5889TIP3    H241863   7.301   2.798  12.972 -0.3762 -1.4247 -0.0091
 5890TIP3   OH241864   3.885   4.738  10.712  0.1783 -0.4537  0.0008
 5890TIP3    H141865   3.821   4.673  10.684  0.0727 -0.4219  0.1675
 5890TIP3    H241866   3.970   4.695  10.699  0.1434 -0.3571 -0.5838
 5891TIP3   OH241867   1.496   2.252  12.132 -0.4472  0.0540  0.0049
 5891TIP3    H141868   1.415   2.247  12.182 -1.1054 -0.3919 -1.0572
 5891TIP3    H241869   1.566   2.232  12.195 -1.2132 -0.1981  0.7817
 5892TIP3   OH241870   0.876   6.004  12.005 -0.5842 -0.1194  0.0326
 5892TIP3    H141871   0.884   5.915  11.971  1.0928 -0.4478  1.2100
 5892TIP3    H241872   0.869   6.059  11.926  1.1844 -1.0405 -0.8293
 5893TIP3   OH241873   0.589   5.529  10.948 -0.4618 -0.3471 -0.1874
 5893TIP3    H141874   0.646   5.525  10.871  0.1538 -0.3210  0.2593
 5893TIP3    H241875   0.646   5.504  11.021 -0.8704  0.2857  0.3502
 5894TIP3   OH241876   0.405   1.391  12.153  0.0962 -0.5260  0.0942
 5894TIP3    H141877   0.462   1.444  12.209  0.2946 -1.6466  0.9989
 5894TIP3    H241878   0.370   1.324  12.212  0.7422 -2.0964 -1.2450
 5895TIP3   OH241879   7.328   2.292  11.186 -0.5171 -0.0132  0.5491
 5895TIP3    H141880   7.325   2.354  11.258 -1.6273  0.4229  0.1446
 5895TIP3    H241881   7.335   2.206  11.229  0.2793  0.3216  1.1236
 5896TIP3   OH241882   2.886   7.318  11.943 -0.0403 -0.2421 -0.7153
 5896TIP3    H141883   2.960   7.370  11.911  0.8034 -1.8912 -1.6087
 5896TIP3    H241884   2.810   7.352  11.895  0.5814 -0.1831 -1.6808
 5897TIP3   OH241885   2.559   1.626  13.072  0.1482  0.4861 -0.3360
 5897TIP3    H141886   2.580   1.682  13.146 -0.8111 -0.4177  0.6544
 5897TIP3    H241887   2.498   1.678  13.019 -2.1975 -0.1805  1.5136
 5898TIP3   OH241888   2.291   3.773  13.659 -0.2357  0.3965  0.2648
 5898TIP3    H141889   2.377   3.770  13.702 -0.0372  1.6085 -0.0138
 5898TIP3    H241890   2.229   3.764  13.731  0.1185  0.6028  0.6021
 5899TIP3   OH241891   1.308   1.478  11.777  0.1398 -0.0456  0.1846
 5899TIP3    H141892   1.248   1.450  11.708  0.7879 -1.6179  0.2338
 5899TIP3    H241893   1.251   1.520  11.842 -0.6011  0.5413 -0.8066
 5900TIP3   OH241894   5.830   4.287  11.285 -0.2123  0.3096 -0.2408
 5900TIP3    H141895   5.776   4.345  11.231 -0.3548 -1.4132 -2.0945
 5900TIP3    H241896   5.913   4.334  11.295 -0.5627  1.1409 -1.0926
 5901TIP3   OH241897   3.574   2.555  10.388 -0.2420 -0.1499 -0.1080
 5901TIP3    H141898   3.665   2.553  10.417 -0.1815  0.6481 -0.2303
 5901TIP3    H241899   3.532   2.620  10.444 -0.1649  1.2726 -1.6378
 5902TIP3   OH241900   6.859   2.781  11.957 -0.2174  0.0522  0.4270
 5902TIP3    H141901   6.802   2.709  11.933  0.8103 -0.6441  0.0169
 5902TIP3    H241902   6.928   2.781  11.890 -1.0810  2.4668 -0.5752
 5903TIP3   OH241903   4.302   6.239  12.416 -0.4671  0.1963 -0.0484
 5903TIP3    H141904   4.336   6.149  12.421  0.8264  0.7040  0.6486
 5903TIP3    H241905   4.343   6.276  12.338 -0.2532  0.4874  0.2038
 5904TIP3   OH241906   1.030   2.902  11.106 -0.6126  0.3114  0.1420
 5904TIP3    H141907   0.951   2.953  11.125 -1.4893 -1.4879  1.5952
 5904TIP3    H241908   0.999   2.812  11.101  1.2064 -0.3111 -0.3812
 5905TIP3   OH241909   0.175   3.328  13.015  0.0487 -0.1666  0.2321
 5905TIP3    H141910   0.234   3.274  12.963  2.1811  1.1002  1.1767
 5905TIP3    H241911   0.207   3.319  13.105  1.4629  3.5867  0.2937
 5906TIP3   OH241912   1.367   6.362  10.565 -0.0685 -0.2535 -0.2191
 5906TIP3    H141913   1.434   6.297  10.583  0.1987  0.3665  1.1899
 5906TIP3    H241914   1.289   6.311  10.542  0.5880 -1.0045 -0.8148
 5907TIP3   OH241915   6.480   3.635  10.916  0.1982 -0.1140  0.4190
 5907TIP3    H141916   6.424   3.676  10.981 -4.0356 -1.4841 -2.0080
 5907TIP3    H241917   6.458   3.542  10.920  1.3173 -0.5281 -1.5503
 5908TIP3   OH241918   2.134   2.161  11.341 -0.0642 -0.1883  0.0641
 5908TIP3    H141919   2.157   2.071  11.316 -0.7250 -0.3992  0.2056
 5908TIP3    H241920   2.048   2.153  11.383 -1.5251  0.8546 -2.5002
 5909TIP3   OH241921   4.222   4.178  12.127 -0.5205  0.7327  0.7047
 5909TIP3    H141922   4.301   4.229  12.145  0.4651 -0.8856  1.2544
 5909TIP3    H241923   4.202   4.134  12.210 -0.0148 -1.4286 -0.2337
 5910TIP3   OH241924   4.670   4.521  11.773  0.3439 -0.1292  0.1704
 5910TIP3    H141925   4.730   4.451  11.749 -0.0882 -0.8672  1.2026
 5910TIP3    H241926   4.583   4.484  11.761  0.0840  0.7115 -0.6602
 5911TIP3   OH241927   7.321   5.816  12.981 -0.2495 -0.1028  0.0774
 5911TIP3    H141928   7.236   5.778  12.956  0.1569 -0.4204 -0.8557
 5911TIP3    H241929   7.359   5.750  13.039 -1.1790  0.6171  1.5624
 5912TIP3   OH241930   6.392   1.371  12.054  0.5531 -0.3866 -0.0755
 5912TIP3    H141931   6.450   1.408  12.121 -0.7101  1.6653 -0.0278
 5912TIP3    H241932   6.309   1.359  12.100 -0.4041  1.2841 -1.2990
 5913TIP3   OH241933   4.343   1.459  10.967 -0.3295 -0.8269 -0.9581
 5913TIP3    H141934   4.419   1.420  11.009 -1.4487 -2.6397 -0.5111
 5913TIP3    H241935   4.292   1.385  10.935 -2.3933  0.2540 -0.3997
 5914TIP3   OH241936   3.955   6.437  11.970 -0.3020  0.9208  0.0609
 5914TIP3    H141937   3.988   6.365  12.024 -0.2632  1.0108  0.1570
 5914TIP3    H241938   3.983   6.414  11.881 -0.3976  0.7540  0.0713
 5915TIP3   OH241939   1.972   5.690  12.975 -0.3452  0.2493 -0.9573
 5915TIP3    H141940   1.885   5.727  12.957 -1.2363 -0.8713  0.7623
 5915TIP3    H241941   1.954   5.601  13.007  1.3957  0.2013  0.0008
 5916TIP3   OH241942   2.754   3.356  12.261  0.3163 -0.1400 -0.0346
 5916TIP3    H141943   2.664   3.346  12.293  0.4004 -1.1256 -0.0577
 5916TIP3    H241944   2.778   3.268  12.230  1.4675 -0.0208  0.4517
 5917TIP3   OH241945   2.069   0.514  11.691 -0.1988 -0.0860  0.0250
 5917TIP3    H141946   2.112   0.581  11.637 -0.9397  1.1090  0.8459
 5917TIP3    H241947   2.140   0.466  11.733  0.3680 -0.4811 -1.3432
 5918TIP3   OH241948   5.934   3.289  10.596  0.2767 -0.2057 -0.1546
 5918TIP3    H141949   6.029   3.293  10.582  0.1040  0.0809 -1.3271
 5918TIP3    H241950   5.920   3.207  10.644  1.1145 -0.2409  0.0406
 5919TIP3   OH241951   5.367   0.374  12.145 -0.0714  0.0099  0.0330
 5919TIP3    H141952   5.294   0.398  12.088  0.3130 -1.3457 -1.0807
 5919TIP3    H241953   5.330   0.374  12.233 -1.6944 -1.5132 -0.5834
 5920TIP3   OH241954   0.005   6.703  10.671  0.3909  0.5160 -0.2152
 5920TIP3    H141955  -0.042   6.680  10.751 -1.3100  0.8267 -1.0661
 5920TIP3    H241956   0.022   6.620  10.627 -0.6765  0.4776 -0.5788
 5921TIP3   OH241957   3.184   2.878  11.648 -0.7576 -0.0164  0.3814
 5921TIP3    H141958   3.198   2.854  11.740 -0.9480  1.1571  0.7441
 5921TIP3    H241959   3.128   2.810  11.613  1.3920 -1.9260  0.3896
 5922TIP3   OH241960   6.793   6.312  10.909 -0.5559 -0.3344 -0.0427
 5922TIP3    H141961   6.699   6.312  10.927 -0.4930  0.0564  0.3004
 5922TIP3    H241962   6.813   6.222  10.883 -0.9482 -0.5181  0.2892
 5923TIP3   OH241963   6.096   5.749  12.469  0.1392 -0.4265  0.2144
 5923TIP3    H141964   6.165   5.686  12.453  0.2564 -0.3515  0.4320
 5923TIP3    H241965   6.111   5.781  12.557  0.9351  0.9525 -0.3911
 5924TIP3   OH241966   4.787   6.211  12.726 -0.5130 -0.4046 -0.0160
 5924TIP3    H141967   4.847   6.284  12.738 -0.2492 -0.4097 -1.1434
 5924TIP3    H241968   4.735   6.209  12.806 -0.6292  1.1046 -0.0245
 5925TIP3   OH241969   3.842   6.764  10.986 -0.3131 -0.3925  0.4632
 5925TIP3    H141970   3.879   6.682  11.019  0.5809 -0.1783  0.0140
 5925TIP3    H241971   3.917   6.813  10.952 -0.9969  0.0832 -0.4099
 5926TIP3   OH241972   1.514   7.081  11.996  0.0172 -0.1932  0.2594
 5926TIP3    H141973   1.514   7.087  12.092 -1.4773 -0.5403  0.3052
 5926TIP3    H241974   1.601   7.049  11.974  0.4893  0.1814  1.4794
 5927TIP3   OH241975   6.443   0.416  11.405  0.5708 -0.6790 -0.1053
 5927TIP3    H141976   6.358   0.431  11.363  0.3921 -0.5705  0.2948
 5927TIP3    H241977   6.485   0.349  11.351 -0.0870 -1.2938  0.1283
 5928TIP3   OH241978   4.980   0.073  13.032 -0.2852 -0.6136 -0.8604
 5928TIP3    H141979   5.074   0.064  13.017 -0.1285  0.7611 -0.7571
 5928TIP3    H241980   4.952  -0.016  13.056  0.7603 -1.2829 -2.0013
 5929TIP3   OH241981   0.415   0.573  11.206 -0.1497 -0.3316 -0.0410
 5929TIP3    H141982   0.339   0.515  11.206 -0.8094  0.5098 -1.0205
 5929TIP3    H241983   0.441   0.577  11.298 -2.5228  0.9293  0.6556
 5930TIP3   OH241984   5.281   2.810  12.609 -0.3219  0.1789  0.0947
 5930TIP3    H141985   5.218   2.881  12.604 -0.3904  0.2463  1.3852
 5930TIP3    H241986   5.334   2.830  12.687  0.7478 -0.3101 -0.4766
 5931TIP3   OH241987   5.929   2.022  10.919  0.3402 -0.8498 -0.1241
 5931TIP3    H141988   5.911   2.029  11.013 -0.2033 -0.1880 -0.2697
 5931TIP3    H241989   5.853   1.978  10.882 -0.0290  0.0160 -0.4275
 5932TIP3   OH241990   4.096   5.011  11.623  0.0779  0.3112 -0.2743
 5932TIP3    H141991   4.079   5.018  11.529 -0.6519  2.3344 -0.0488
 5932TIP3    H241992   4.154   5.085  11.642 -1.0415  0.8672  1.1086
 5933TIP3   OH241993   1.866   5.223  10.391  0.1473 -0.2055 -0.0160
 5933TIP3    H141994   1.932   5.231  10.322  0.0055  0.0638 -0.1216
 5933TIP3    H241995   1.814   5.303  10.384  0.2077 -0.1184  0.4858
 5934TIP3   OH241996   5.004   6.122  13.091 -0.1684  0.1011  0.4596
 5934TIP3    H141997   4.997   6.186  13.020  0.0334  1.0634  1.2786
 5934TIP3    H241998   5.061   6.053  13.055  0.0840  0.6578 -0.2484
 5935TIP3   OH241999   0.548   4.124  11.070  0.5549  0.4922 -0.0335
 5935TIP3    H142000   0.536   4.062  10.998  2.3323  0.2037 -0.1318
 5935TIP3    H242001   0.508   4.082  11.146  1.2111 -0.5248 -0.2378
 5936TIP3   OH242002   0.889   3.333  11.145 -0.1786 -0.3561  0.3136
 5936TIP3    H142003   0.965   3.323  11.203  1.5135  0.1285 -1.7144
 5936TIP3    H242004   0.920   3.306  11.059 -2.3387 -0.1662 -0.5920
 5937TIP3   OH242005   2.255   6.981  10.594  0.8232  0.4054  0.5590
 5937TIP3    H142006   2.249   7.060  10.648  1.7484  0.5340  0.4972
 5937TIP3    H242007   2.187   6.924  10.628 -1.0555  1.8820 -0.5398
 5938TIP3   OH242008   2.468   1.176  11.595 -0.1312  0.2201  0.1248
 5938TIP3    H142009   2.562   1.171  11.613 -0.0047  1.4294 -0.1209
 5938TIP3    H242010   2.460   1.148  11.504 -0.0391 -0.0881  0.2096
 5939TIP3   OH242011   2.707   4.268  12.846  0.1170  0.4614 -0.0919
 5939TIP3    H142012   2.642   4.208  12.810 -0.6118  0.3479  1.3249
 5939TIP3    H242013   2.768   4.213  12.894  0.0009  0.7458  0.3982
 5940TIP3   OH242014   1.250   7.000  11.961  0.9341  0.2430 -0.0092
 5940TIP3    H142015   1.231   7.079  12.012  0.5837  1.9027 -2.5288
 5940TIP3    H242016   1.321   6.957  12.010 -0.8928  0.4230  3.0384
 5941TIP3   OH242017   1.031   2.661  12.513 -0.4343 -0.0157  0.0411
 5941TIP3    H142018   1.104   2.615  12.473  1.9705  2.3129  1.4524
 5941TIP3    H242019   0.975   2.685  12.439  1.1882 -0.2857 -1.3315
 5942TIP3   OH242020   5.283   3.674  11.934  0.4720  0.3597  0.2987
 5942TIP3    H142021   5.283   3.626  12.017  0.2766 -0.1127  0.0301
 5942TIP3    H242022   5.225   3.749  11.950  1.6565  1.1368  1.0676
 5943TIP3   OH242023   7.387   5.359  12.241 -0.6361  0.0779  0.4872
 5943TIP3    H142024   7.293   5.375  12.236 -0.4661  1.0388  0.2111
 5943TIP3    H242025   7.425   5.413  12.171 -0.0085 -1.4931 -0.4520
 5944TIP3   OH242026   6.926   6.402  11.392 -0.0459  0.1961  0.6535
 5944TIP3    H142027   7.013   6.425  11.423 -0.5287  0.9965  1.4556
 5944TIP3    H242028   6.866   6.443  11.455 -1.0466  1.3032 -0.9348
 5945TIP3   OH242029   5.467   4.418  11.568  0.0587  0.6074  0.1255
 5945TIP3    H142030   5.448   4.512  11.570  2.1418  1.0752  2.4479
 5945TIP3    H242031   5.557   4.411  11.600 -0.3557 -2.2418  0.8903
 5946TIP3   OH242032   6.835   0.033  10.719 -0.5452 -0.0004 -0.4804
 5946TIP3    H142033   6.882   0.051  10.801  0.1752 -0.4964 -0.7804
 5946TIP3    H242034   6.896  -0.019  10.667 -1.6271 -1.1385 -0.6584
 5947TIP3   OH242035   3.410   2.412  11.748 -0.1488  0.3048  0.7578
 5947TIP3    H142036   3.350   2.405  11.673  2.4986  1.2541 -1.6342
 5947TIP3    H242037   3.391   2.334  11.801 -0.4586 -1.8674 -2.2732
 5948TIP3   OH242038   5.997   4.700  11.262 -0.0411 -0.3678  0.0416
 5948TIP3    H142039   5.960   4.662  11.183 -0.7661 -0.2350  0.3135
 5948TIP3    H242040   6.084   4.660  11.271  0.3634  0.1805 -1.2389
 5949TIP3   OH242041   2.444   3.850  12.064 -0.3106  0.0212  0.4669
 5949TIP3    H142042   2.443   3.934  12.109  0.7816  0.5004 -0.3622
 5949TIP3    H242043   2.400   3.867  11.981 -1.9686 -0.7681  1.1212
 5950TIP3   OH242044   0.982   5.645  11.045  0.4229  0.1811 -0.0387
 5950TIP3    H142045   0.991   5.711  11.113  1.1741  0.7237 -0.6454
 5950TIP3    H242046   0.898   5.603  11.063  0.2145  0.8946  0.7101
 5951TIP3   OH242047   6.186   0.264  12.439  0.1449  0.0999  0.3211
 5951TIP3    H142048   6.241   0.278  12.361  0.6214  0.0322  0.6414
 5951TIP3    H242049   6.216   0.180  12.473 -0.7275 -0.3340  0.0322
 5952TIP3   OH242050   0.332   0.126  12.086 -0.3124 -0.6615 -0.1740
 5952TIP3    H142051   0.338   0.191  12.017 -1.3697  0.9229  1.1502
 5952TIP3    H242052   0.409   0.142  12.141 -0.8274 -0.1871  0.4212
 5953TIP3   OH242053   0.522   5.791  12.086 -0.3089 -0.0647 -0.5955
 5953TIP3    H142054   0.517   5.849  12.010 -0.0039 -1.7379 -1.9858
 5953TIP3    H242055   0.480   5.710  12.056  1.3636 -1.3709  0.4252
 5954TIP3   OH242056   0.293   0.828  11.318 -0.2318  0.1079 -0.4959
 5954TIP3    H142057   0.290   0.920  11.289 -1.2365 -0.1683 -1.3194
 5954TIP3    H242058   0.330   0.781  11.244 -1.2622 -0.3765 -0.7143
 5955TIP3   OH242059   4.958   2.545  11.647 -0.3797  0.0381 -0.3729
 5955TIP3    H142060   4.871   2.585  11.652 -0.4976 -0.0106 -1.7444
 5955TIP3    H242061   4.975   2.535  11.554  0.7307 -0.7888 -0.1061
 5956TIP3   OH242062   6.501   4.199  17.774 -0.0009  0.5275  0.1889
 5956TIP3    H142063   6.567   4.207  17.705 -0.6442 -1.3811 -0.7167
 5956TIP3    H242064   6.470   4.109  17.767 -0.3084  0.3542  2.8105
 5957TIP3   OH242065   3.208   0.825  10.788  0.1602 -0.5342  0.0584
 5957TIP3    H142066   3.251   0.744  10.816 -1.8260 -1.0528  1.8742
 5957TIP3    H242067   3.140   0.840  10.853  0.3991  2.5995 -0.2760
 5958TIP3   OH242068   5.512   2.562  11.971 -0.5306  0.4473 -0.3855
 5958TIP3    H142069   5.582   2.497  11.978  0.4204  1.5787  1.3481
 5958TIP3    H242070   5.463   2.537  11.893  1.2889 -0.8911 -1.1542
 5959TIP3   OH242071   4.544   2.070  13.174  0.4739 -0.2440  0.6123
 5959TIP3    H142072   4.554   2.161  13.143 -1.4545 -0.1036  0.2956
 5959TIP3    H242073   4.622   2.025  13.140  1.0189  1.0812  0.0083
 5960TIP3   OH242074   0.360   1.447  12.467  0.3675 -0.3473  0.4365
 5960TIP3    H142075   0.404   1.529  12.442 -1.2438  0.2369 -0.6700
 5960TIP3    H242076   0.312   1.469  12.546 -2.8974  0.9196 -1.7149
 5961TIP3   OH242077   1.856   1.365  11.490 -0.6083 -0.0317 -0.0676
 5961TIP3    H142078   1.856   1.340  11.583  2.1728  0.1797  0.0900
 5961TIP3    H242079   1.880   1.285  11.444 -0.0463  0.3164 -0.3948
 5962TIP3   OH242080   4.349   5.697  11.522  0.0624 -0.2798 -0.1510
 5962TIP3    H142081   4.360   5.730  11.432  0.7775 -1.8299 -0.6607
 5962TIP3    H242082   4.388   5.766  11.577 -1.1101  1.0688 -0.9396
 5963TIP3   OH242083   6.088   6.735  11.583  0.1956  0.2430 -0.2530
 5963TIP3    H142084   6.081   6.738  11.487  0.1967 -0.6535 -0.2947
 5963TIP3    H242085   6.165   6.788  11.603 -0.1132  0.8757 -0.7034
 5964TIP3   OH242086   0.940   6.236  12.582 -0.5588  0.1136  0.1122
 5964TIP3    H142087   0.966   6.144  12.589 -1.3845 -0.0439  1.6566
 5964TIP3    H242088   0.845   6.235  12.591 -0.4580  1.2126  1.7246
 5965TIP3   OH242089   6.598   0.565  11.592  0.0360  0.1961  0.1344
 5965TIP3    H142090   6.571   0.550  11.683 -1.1142  0.2758 -0.1740
 5965TIP3    H242091   6.553   0.496  11.542  0.7853  0.0576 -0.3558
 5966TIP3   OH242092   0.199   0.868  11.838  0.6058  0.5091 -0.2437
 5966TIP3    H142093   0.232   0.925  11.908 -1.1348 -0.7975  1.7467
 5966TIP3    H242094   0.155   0.928  11.778  1.7607  1.6192 -0.0372
 5967TIP3   OH242095   3.165   6.406  12.698  0.1398  0.3285 -0.1658
 5967TIP3    H142096   3.180   6.357  12.779  0.4352  2.5610  1.2235
 5967TIP3    H242097   3.071   6.397  12.682 -0.4139  1.6766  1.7991
 5968TIP3   OH242098   5.513   5.689  12.148  0.3969  0.0455  0.1563
 5968TIP3    H142099   5.472   5.736  12.076 -0.7472 -1.2030 -0.0412
 5968TIP3    H242100   5.573   5.753  12.187  1.0925  0.7331 -1.9113
 5969TIP3   OH242101   2.718   0.888  11.996  0.1822  0.8281 -0.2331
 5969TIP3    H142102   2.739   0.880  11.903 -0.4850 -0.9495 -0.2476
 5969TIP3    H242103   2.773   0.823  12.039 -1.5973 -0.3970  0.2810
 5970TIP3   OH242104   6.109   5.368  12.402 -0.2816  0.2108 -0.0261
 5970TIP3    H142105   6.174   5.437  12.391  0.5857 -0.4898  0.5067
 5970TIP3    H242106   6.152   5.290  12.367 -1.2415 -0.0630 -0.6148
 5971TIP3   OH242107   5.188   3.826  12.283 -0.0241  0.1939 -0.2047
 5971TIP3    H142108   5.276   3.800  12.255 -0.6746  0.1926 -2.4359
 5971TIP3    H242109   5.186   3.921  12.268 -0.2693  0.2746  0.3130
 5972TIP3   OH242110   3.487   3.989  10.755 -0.0975 -0.1395  1.4405
 5972TIP3    H142111   3.558   4.018  10.813  0.0216  0.2339  1.1164
 5972TIP3    H242112   3.531   3.967  10.673  0.1515 -3.5190  2.3360
 5973TIP3   OH242113   7.474   4.302  11.285 -0.5119  0.4179  0.2723
 5973TIP3    H142114   7.447   4.394  11.285  0.4533  0.7075  0.2149
 5973TIP3    H242115   7.569   4.305  11.296 -0.3694 -0.5451 -0.5856
 5974TIP3   OH242116   6.192   1.225  12.264 -0.0135 -0.5145  0.0028
 5974TIP3    H142117   6.242   1.147  12.288  1.5746 -0.2069 -2.0195
 5974TIP3    H242118   6.127   1.194  12.201  0.1557 -0.3242 -0.2690
 5975TIP3   OH242119   4.369   0.970  12.065  0.1271  0.1466  0.1117
 5975TIP3    H142120   4.436   0.901  12.064 -0.2852 -0.3023  1.3507
 5975TIP3    H242121   4.335   0.969  12.154  0.9079  2.7496  0.5204
 5976TIP3   OH242122   3.887   3.530  12.929  0.2885 -0.1395 -0.3865
 5976TIP3    H142123   3.937   3.545  12.849  3.2519 -1.7775  0.9741
 5976TIP3    H242124   3.940   3.568  12.999 -1.4840 -0.0390  0.9922
 5977TIP3   OH242125   3.758   5.694  12.148 -0.4182 -0.1527  0.1252
 5977TIP3    H142126   3.709   5.680  12.228  1.5838  1.4293  1.7422
 5977TIP3    H242127   3.706   5.758  12.098 -0.2846  1.1296  1.5710
 5978TIP3   OH242128   7.530   6.061  12.099  0.2373  0.1641  0.1091
 5978TIP3    H142129   7.447   6.074  12.053  0.3819  0.4335 -0.0811
 5978TIP3    H242130   7.505   6.028  12.185 -0.0005 -1.1578 -0.4479
 5979TIP3   OH242131   3.525   1.893  10.920 -0.3005  0.1954 -0.0277
 5979TIP3    H142132   3.494   1.897  10.830 -0.8844 -0.6755  0.1183
 5979TIP3    H242133   3.469   1.826  10.962 -0.0164  0.5515  0.9604
 5980TIP3   OH242134   7.173   7.229  11.641  0.1209  0.0451  0.3116
 5980TIP3    H142135   7.234   7.301  11.625  0.9935 -0.7137  0.1688
 5980TIP3    H242136   7.086   7.270  11.637  0.6197  1.1966  0.8215
 5981TIP3   OH242137   1.486   5.510  11.423 -0.1443  0.2014 -0.4279
 5981TIP3    H142138   1.550   5.493  11.492 -0.8178  2.3677  0.8037
 5981TIP3    H242139   1.460   5.422  11.393  0.4837 -0.8075  1.7755
 5982TIP3   OH242140   4.357   1.358  11.367  0.2623  0.7435  0.8761
 5982TIP3    H142141   4.351   1.287  11.303 -0.2871  1.1307  0.4910
 5982TIP3    H242142   4.266   1.386  11.380  0.3322  0.4833  2.0432
 5983TIP3   OH242143   5.900   3.227  11.688 -0.5433  0.0902  0.3435
 5983TIP3    H142144   5.869   3.297  11.745 -1.7503 -0.4778  0.4167
 5983TIP3    H242145   5.970   3.185  11.738  0.0816  1.1215  0.3673
 5984TIP3   OH242146   2.713   1.371  12.440 -0.1464  0.5525  0.5847
 5984TIP3    H142147   2.671   1.381  12.355  1.0700 -0.5298 -0.1853
 5984TIP3    H242148   2.791   1.426  12.435 -1.2834  2.4154  1.9376
 5985TIP3   OH242149   2.753   1.877  12.169 -0.1813  0.2688  0.2866
 5985TIP3    H142150   2.753   1.966  12.134 -2.3251  0.0603 -0.3600
 5985TIP3    H242151   2.683   1.876  12.234  0.8003 -0.5694  1.3725
 5986TIP3   OH242152   0.215   6.394  12.745 -0.1191 -0.0140 -0.3847
 5986TIP3    H142153   0.130   6.354  12.764 -0.1307  1.0544  2.2215
 5986TIP3    H242154   0.274   6.355  12.810  0.1852  2.9702  1.2882
 5987TIP3   OH242155   6.358   5.464  11.745  0.2412  0.0831  0.5007
 5987TIP3    H142156   6.396   5.552  11.753 -0.6984  0.6123 -0.5726
 5987TIP3    H242157   6.405   5.425  11.671 -0.2596  0.1818  0.1281
 5988TIP3   OH242158   2.955   0.030  11.372 -0.0073  0.3291 -0.0667
 5988TIP3    H142159   2.998  -0.015  11.444  0.5074 -0.1153 -0.6361
 5988TIP3    H242160   2.869   0.056  11.407  0.2269  0.1107  0.6876
 5989TIP3   OH242161   5.371   2.783  12.869  0.3135  0.4149  0.4926
 5989TIP3    H142162   5.280   2.757  12.886  0.3204  1.0036  1.4971
 5989TIP3    H242163   5.423   2.708  12.900  0.1917  0.2047  0.1980
 5990TIP3   OH242164   3.227   3.567  12.283 -0.4869 -0.6908  0.2469
 5990TIP3    H142165   3.267   3.614  12.210  0.6191 -1.3599  0.4082
 5990TIP3    H242166   3.173   3.633  12.327  0.0604  0.1069 -0.2595
 5991TIP3   OH242167   1.279   1.619  10.338  0.3438  0.1985 -0.3448
 5991TIP3    H142168   1.324   1.653  10.261  0.2142  1.7966  0.2511
 5991TIP3    H242169   1.195   1.664  10.338  0.1345 -0.1839  0.4366
 5992TIP3   OH242170   6.944   5.273  10.442  0.4576  0.5726 -0.0015
 5992TIP3    H142171   6.867   5.249  10.390 -0.9302  1.6447  1.4690
 5992TIP3    H242172   7.010   5.208  10.418 -1.8929 -2.4353  1.0215
 5993TIP3   OH242173   6.461   5.826  12.583  0.3862  0.0977  0.1062
 5993TIP3    H142174   6.399   5.796  12.649  0.8398 -0.0206  0.4864
 5993TIP3    H242175   6.453   5.763  12.512 -0.3226  0.3973 -0.0788
 5994TIP3   OH242176   3.215   3.250  13.838  0.3793  0.4875  0.0955
 5994TIP3    H142177   3.256   3.317  13.892  0.1052  0.3576  0.4723
 5994TIP3    H242178   3.269   3.246  13.759  0.0940  1.5067 -0.1528
 5995TIP3   OH242179   5.106   3.880  11.964  0.0935  0.0865 -0.3264
 5995TIP3    H142180   5.043   3.897  12.033  0.0646 -1.7773  0.1667
 5995TIP3    H242181   5.054   3.875  11.884 -0.2891 -0.5941 -0.0446
 5996TIP3   OH242182   7.195   4.365  12.050  0.1599 -0.0987  0.3420
 5996TIP3    H142183   7.108   4.377  12.012  0.3813 -0.8445 -0.4095
 5996TIP3    H242184   7.253   4.354  11.975  1.1270  1.6639  0.7765
 5997TIP3   OH242185   5.356   0.970  12.520 -0.0832 -0.0916 -0.2209
 5997TIP3    H142186   5.378   0.952  12.428  1.0758  0.0348  0.0127
 5997TIP3    H242187   5.358   0.884  12.562  3.1265  0.1753  0.4148
 5998TIP3   OH242188   5.284   7.116  11.759 -0.1381  0.9590 -0.0008
 5998TIP3    H142189   5.257   7.207  11.750 -0.2839  0.8663 -0.5949
 5998TIP3    H242190   5.206   7.070  11.789 -0.8515  0.6128 -2.1516
 5999TIP3   OH242191   7.490   6.049  11.264  0.1405  0.8070  0.4078
 5999TIP3    H142192   7.580   6.062  11.233 -0.3870  3.1815 -0.3678
 5999TIP3    H242193   7.480   6.112  11.335 -0.4425 -0.6102  1.6348
 6000TIP3   OH242194   1.866   7.327  11.299  0.2351 -0.5115  0.3902
 6000TIP3    H142195   1.930   7.332  11.229 -1.1433 -2.5153 -1.1100
 6000TIP3    H242196   1.911   7.283  11.371  0.8492 -0.9291 -0.2448
 6001TIP3   OH242197   0.198   6.597  10.926  0.4228  0.2116 -0.1967
 6001TIP3    H142198   0.267   6.601  10.993 -0.5923  0.0597  0.8948
 6001TIP3    H242199   0.213   6.515  10.880  0.3235 -0.3506  0.7605
 6002TIP3   OH242200   3.636   4.850  11.756  0.3072  0.4347  0.3422
 6002TIP3    H142201   3.625   4.755  11.762  3.3964 -0.0827 -0.4147
 6002TIP3    H242202   3.590   4.884  11.832 -1.1336 -1.6103  0.4766
 6003TIP3   OH242203   5.921   5.025  11.622 -0.1689 -0.7467 -0.2363
 6003TIP3    H142204   5.851   4.968  11.656  0.5608 -0.5611  1.6667
 6003TIP3    H242205   5.957   4.976  11.548 -2.2989 -0.8323 -1.3174
 6004TIP3   OH242206   0.708   1.083  13.199  0.2692  0.1040  0.3264
 6004TIP3    H142207   0.688   1.013  13.137  1.4774 -0.1377  0.1769
 6004TIP3    H242208   0.624   1.126  13.215 -0.0591  0.2581 -1.5698
 6005TIP3   OH242209   6.327   3.780  12.420 -0.2567 -0.4243 -0.0694
 6005TIP3    H142210   6.412   3.748  12.450  0.3449 -0.5562 -1.7828
 6005TIP3    H242211   6.316   3.864  12.465  1.0107 -0.1848 -0.1586
 6006TIP3   OH242212   7.530   6.752  12.224 -0.4821  0.3892  0.4603
 6006TIP3    H142213   7.587   6.707  12.162  1.2891  1.2706  1.3686
 6006TIP3    H242214   7.536   6.700  12.305 -0.4992  0.8074  0.7337
 6007TIP3   OH242215   0.655   5.426  12.516  0.2211 -0.8959  0.3371
 6007TIP3    H142216   0.670   5.371  12.439  1.1853 -1.8148  1.1527
 6007TIP3    H242217   0.639   5.513  12.481 -0.2293 -1.4708 -0.9415
 6008TIP3   OH242218   2.843   3.892  13.145  0.0764  0.0865  0.1490
 6008TIP3    H142219   2.866   3.841  13.067  0.7836 -2.3695  1.8451
 6008TIP3    H242220   2.913   3.957  13.152 -0.0630  0.4259 -1.2995
 6009TIP3   OH242221   1.002   1.151  13.158  0.0514  0.0809 -0.0598
 6009TIP3    H142222   1.018   1.233  13.203  0.5456  0.4498 -0.8752
 6009TIP3    H242223   0.955   1.097  13.221 -1.0434  1.2913  0.1924
 6010TIP3   OH242224   5.249   7.637  10.854  0.2745 -0.0057 -0.3881
 6010TIP3    H142225   5.295   7.633  10.938  0.3969  1.5238 -0.3591
 6010TIP3    H242226   5.188   7.709  10.863 -0.4832 -0.5198 -1.2584
 6011TIP3   OH242227   2.395   4.333  13.034  0.6454 -0.2931  0.3618
 6011TIP3    H142228   2.457   4.317  13.105  0.8295 -0.1784  0.2261
 6011TIP3    H242229   2.399   4.254  12.981  0.9066 -0.1596  0.1803
 6012TIP3   OH242230   1.011   6.552  13.021 -0.2522  0.2197  0.0833
 6012TIP3    H142231   1.102   6.564  12.995 -0.1703  0.0442  0.2794
 6012TIP3    H242232   1.016   6.499  13.101 -0.5838 -1.0629 -0.7078
 6013TIP3   OH242233   2.137   2.439  12.403 -0.0018  0.0224 -0.7752
 6013TIP3    H142234   2.075   2.431  12.331 -1.1464 -0.8532  0.2778
 6013TIP3    H242235   2.106   2.377  12.469 -0.3117  2.3541  1.4334
 6014TIP3   OH242236   5.004   3.913  12.964  0.5555 -0.6101 -0.4717
 6014TIP3    H142237   5.052   3.978  13.015  0.2919 -0.4191 -0.4713
 6014TIP3    H242238   4.913   3.939  12.970  0.4745 -0.8448 -0.6674
 6015TIP3   OH242239   3.005   2.907  11.196 -0.0975  0.0926 -0.0073
 6015TIP3    H142240   3.093   2.943  11.191  0.3637 -0.8491  0.8119
 6015TIP3    H242241   2.952   2.977  11.234  0.4910  0.3741  0.3111
 6016TIP3   OH242242   1.252   2.019  12.640  0.6946 -0.4335 -0.2444
 6016TIP3    H142243   1.217   2.093  12.591  0.6364 -1.7417 -2.2712
 6016TIP3    H242244   1.224   1.942  12.591 -0.6402 -1.9575  2.6585
 6017TIP3   OH242245   2.650   7.347  11.396 -0.4447  0.8127  0.0130
 6017TIP3    H142246   2.568   7.328  11.441  0.6419  1.1657  2.2767
 6017TIP3    H242247   2.634   7.429  11.349 -1.3830  0.8533  0.4051
 6018TIP3   OH242248   3.770   6.088  11.611 -0.0498 -0.4358 -0.4972
 6018TIP3    H142249   3.831   6.031  11.658  1.2385  0.8381 -0.5522
 6018TIP3    H242250   3.733   6.032  11.543  2.9519 -0.7501 -2.0911
 6019TIP3   OH242251   7.433   6.983  12.377 -0.5438 -0.1495 -0.1990
 6019TIP3    H142252   7.489   7.048  12.334  0.8230 -0.5673  0.8752
 6019TIP3    H242253   7.452   6.901  12.332  1.6440 -0.7926  1.7187
 6020TIP3   OH242254   3.992   7.129  11.034 -0.1464  0.0403 -0.1243
 6020TIP3    H142255   4.018   7.219  11.011 -0.9187  0.7420  1.5782
 6020TIP3    H242256   3.947   7.138  11.118  0.5256 -2.0689  0.5131
 6021TIP3   OH242257   6.976   0.463  11.100  0.2654  0.5003  0.2161
 6021TIP3    H142258   7.014   0.514  11.029 -0.9783  0.4685 -0.4872
 6021TIP3    H242259   6.999   0.372  11.080  0.2705  0.5313  0.0848
 6022TIP3   OH242260   3.647   1.102  11.825 -0.2392 -0.3984  0.2388
 6022TIP3    H142261   3.575   1.117  11.886 -0.9987 -0.9900 -0.4886
 6022TIP3    H242262   3.714   1.059  11.878 -0.0550  0.9240  1.1228
 6023TIP3   OH242263   0.599   0.485  11.897 -0.2544 -0.4656  0.3623
 6023TIP3    H142264   0.603   0.568  11.944  0.0833 -0.7991  0.9518
 6023TIP3    H242265   0.675   0.436  11.929 -0.2141 -0.8403 -0.2850
 6024TIP3   OH242266   3.085   4.679  12.985  0.3134  0.4904 -0.1205
 6024TIP3    H142267   3.052   4.727  13.061  0.5525  0.8276 -0.2258
 6024TIP3    H242268   3.098   4.589  13.017  2.2012  1.0148  0.7898
 6025TIP3   OH242269   1.199   3.328  10.647  0.0439  0.6793 -0.2532
 6025TIP3    H142270   1.189   3.281  10.564  0.3188  1.2355 -0.6027
 6025TIP3    H242271   1.163   3.415  10.630 -1.2219  0.3621  0.6277
 6026TIP3   OH242272   3.659   2.149  10.880  0.0450  0.2808 -0.0601
 6026TIP3    H142273   3.603   2.219  10.915  0.3446  0.4262  0.1338
 6026TIP3    H242274   3.616   2.069  10.908  0.6185  0.3905  1.2363
 6027TIP3   OH242275   1.941   5.135  12.973  0.3238  0.2871  0.1704
 6027TIP3    H142276   1.848   5.135  12.998 -0.1159 -1.2327 -1.2440
 6027TIP3    H242277   1.987   5.104  13.051 -0.4385  0.3402  0.6578
 6028TIP3   OH242278   6.173   7.149  12.327  0.1305  0.4490 -0.6314
 6028TIP3    H142279   6.104   7.215  12.336 -0.6546 -0.5655  1.4058
 6028TIP3    H242280   6.255   7.198  12.337 -0.3701  1.3596 -0.9186
 6029TIP3   OH242281   5.717   3.170  12.592  0.1176  0.5006  0.1353
 6029TIP3    H142282   5.625   3.193  12.585 -0.1173 -0.1647  0.8705
 6029TIP3    H242283   5.740   3.193  12.682  0.4892  0.0186  0.1634
 6030TIP3   OH242284   2.597   7.645  11.960  0.0024 -0.2435  0.1537
 6030TIP3    H142285   2.633   7.729  11.932  1.7270 -1.2862 -0.9908
 6030TIP3    H242286   2.583   7.655  12.054  0.4396  1.2389  0.0857
 6031TIP3   OH242287   5.849   3.369  11.906 -0.6692  0.9804 -0.1153
 6031TIP3    H142288   5.872   3.452  11.865 -0.5178  1.3375  0.6643
 6031TIP3    H242289   5.929   3.344  11.954 -0.4982  0.0628 -0.8530
 6032TIP3   OH242290   3.228   7.127  11.375 -0.3094 -0.5329  0.5738
 6032TIP3    H142291   3.159   7.061  11.379 -1.7990  0.9083 -0.2318
 6032TIP3    H242292   3.188   7.207  11.409  0.6574  0.5655 -0.7225
 6033TIP3   OH242293   7.022   2.289  10.651 -0.3473  0.2163 -0.2458
 6033TIP3    H142294   7.108   2.331  10.653 -0.7315  0.9911  0.3398
 6033TIP3    H242295   7.001   2.284  10.557 -0.8548  2.5665 -0.3305
 6034TIP3   OH242296   2.016   1.137  11.329  0.4122  0.4133 -0.0076
 6034TIP3    H142297   2.014   1.067  11.394  0.0838  0.8031  0.4047
 6034TIP3    H242298   2.108   1.166  11.327  0.9998 -1.3381 -1.6083
 6035TIP3   OH242299   0.445   5.416  11.529  0.1652 -0.0899  0.0142
 6035TIP3    H142300   0.421   5.508  11.541  0.2115  0.2681 -2.2147
 6035TIP3    H242301   0.539   5.418  11.510  0.5365 -0.7956  1.6374
 6036TIP3   OH242302   7.067   7.554  10.730  0.1705 -0.4174  0.1788
 6036TIP3    H142303   7.093   7.462  10.738  1.0452 -0.1119  0.9460
 6036TIP3    H242304   7.149   7.602  10.723 -0.2917  0.2779 -0.7877
 6037TIP3   OH242305   2.753   1.441  11.100 -0.1618  0.0193 -0.0050
 6037TIP3    H142306   2.758   1.403  11.188  0.5304  1.9508  0.8548
 6037TIP3    H242307   2.670   1.489  11.099 -0.6057 -0.7334 -0.7589
 6038TIP3   OH242308   5.056   5.039  10.966 -0.4296  0.5883 -0.6987
 6038TIP3    H142309   5.114   5.021  11.040 -1.0549 -0.3791 -0.4323
 6038TIP3    H242310   4.986   5.093  11.003  0.8009  2.6774 -1.2401
 6039TIP3   OH242311   3.238   7.299  12.405 -0.2957  0.6816  0.2245
 6039TIP3    H142312   3.269   7.224  12.354  0.1638  0.9948  0.0268
 6039TIP3    H242313   3.211   7.262  12.489 -0.1523  0.2825  0.0977
 6040TIP3   OH242314   2.330   4.463  13.423  0.2790  0.8423 -0.0189
 6040TIP3    H142315   2.366   4.520  13.492  0.4993 -0.6251  1.1386
 6040TIP3    H242316   2.253   4.510  13.391  0.9658  2.1991  0.2613
 6041TIP3   OH242317   5.073   5.600  12.931  0.3507 -0.0205 -0.1829
 6041TIP3    H142318   5.161   5.605  12.894 -0.3007  0.7644 -1.6902
 6041TIP3    H242319   5.038   5.518  12.896 -0.6519  1.2386 -2.2943
 6042TIP3   OH242320   6.570   7.130  12.309  1.1621 -0.1333  0.0192
 6042TIP3    H142321   6.492   7.186  12.310 -0.7286 -2.5815 -1.3222
 6042TIP3    H242322   6.615   7.154  12.228  1.1891  0.4717  0.2052
 6043TIP3   OH242323   0.361   7.438  12.402  0.4274 -0.3393 -0.2265
 6043TIP3    H142324   0.360   7.516  12.458  1.1897  0.2979 -1.0812
 6043TIP3    H242325   0.313   7.464  12.324  0.4151 -0.8383 -0.3901
 6044TIP3   OH242326   6.305   0.403  11.765 -0.5613  0.0882  0.1716
 6044TIP3    H142327   6.237   0.423  11.829  0.0452  1.2149  0.4863
 6044TIP3    H242328   6.387   0.418  11.811 -0.0973 -0.4339 -0.4610
 6045TIP3   OH242329   1.246   3.452  12.952 -0.4208 -0.6381  0.1281
 6045TIP3    H142330   1.266   3.414  13.037 -0.5243 -1.8497 -0.3679
 6045TIP3    H242331   1.153   3.437  12.939 -0.5381  0.1055  0.0717
 6046TIP3   OH242332   2.618   4.521  11.833  0.0940  0.4254  0.3780
 6046TIP3    H142333   2.541   4.578  11.838  1.0405  1.7577  0.2032
 6046TIP3    H242334   2.601   4.453  11.898 -0.7757  1.2747  1.0728
 6047TIP3   OH242335   5.161   2.704  10.916  0.2503 -0.4437  0.3184
 6047TIP3    H142336   5.222   2.632  10.932  0.5629  0.2532  2.5057
 6047TIP3    H242337   5.123   2.685  10.830  3.5111 -0.9082 -1.1359
 6048TIP3   OH242338   2.488   4.873  11.830  1.0748  0.2224 -0.1845
 6048TIP3    H142339   2.451   4.921  11.904  2.7095  0.9848  0.1948
 6048TIP3    H242340   2.421   4.879  11.762  0.0483  0.5658  0.8217
 6049TIP3   OH242341   4.427   6.808  11.500  0.3110  0.1961 -0.2641
 6049TIP3    H142342   4.479   6.863  11.558 -0.7400  2.1361 -1.0483
 6049TIP3    H242343   4.388   6.870  11.438 -2.9064 -1.0802  0.2674
 6050TIP3   OH242344   4.568   4.925  12.052  0.0113  0.5396  0.2898
 6050TIP3    H142345   4.631   4.947  12.120 -0.2435 -0.5836  0.9099
 6050TIP3    H242346   4.600   4.844  12.014 -1.2543 -0.2829  0.9060
 6051TIP3   OH242347   4.713   5.287  10.723 -0.0559 -0.0773  0.3514
 6051TIP3    H142348   4.682   5.250  10.805  0.8064 -1.0849  0.2424
 6051TIP3    H242349   4.633   5.303  10.672 -0.5723  0.2220  1.2342
 6052TIP3   OH242350   5.812   6.238  11.817  0.4443  0.3613  0.2555
 6052TIP3    H142351   5.880   6.201  11.761 -1.7968 -0.3872 -2.1913
 6052TIP3    H242352   5.783   6.164  11.871 -0.5071 -0.1751 -0.9475
 6053TIP3   OH242353   6.099   1.442  12.020 -0.2019 -0.0791  0.7423
 6053TIP3    H142354   6.124   1.355  11.990  0.8178 -0.5221  2.7313
 6053TIP3    H242355   6.029   1.427  12.083  0.1648  0.5069  1.3011
 6054TIP3   OH242356   5.103   1.486  11.384  0.4366 -0.0171  0.4206
 6054TIP3    H142357   5.067   1.488  11.296 -0.0003 -0.5527  0.5865
 6054TIP3    H242358   5.121   1.394  11.401  1.1525  0.1535  0.6397
 6055TIP3   OH242359   7.545   5.410  10.943 -0.3038  0.1714 -0.3608
 6055TIP3    H142360   7.509   5.448  11.023 -0.7325 -0.9390 -0.0245
 6055TIP3    H242361   7.488   5.337  10.922  1.2624 -1.1249 -0.2625
 6056TIP3   OH242362   2.444   6.183  12.531  0.0674 -0.1833 -0.5567
 6056TIP3    H142363   2.461   6.093  12.558  0.5514 -0.2323 -1.0115
 6056TIP3    H242364   2.434   6.179  12.436  0.6891  0.3181 -0.6554
 6057TIP3   OH242365   0.304   3.432  11.181 -0.1165  0.0036 -0.0876
 6057TIP3    H142366   0.366   3.444  11.253  0.3010 -0.7432 -0.3220
 6057TIP3    H242367   0.224   3.402  11.224 -0.5545  1.5711  0.2892
 6058TIP3   OH242368   0.214   4.894  11.750  0.2692 -0.1958  0.2175
 6058TIP3    H142369   0.149   4.824  11.761  0.4757 -0.4357 -0.0533
 6058TIP3    H242370   0.172   4.956  11.691 -0.3717  0.5003  1.3691
 6059TIP3   OH242371   3.938   1.379  10.777  0.3186 -0.7085 -0.2331
 6059TIP3    H142372   3.995   1.450  10.747 -1.5708  0.4671 -1.2307
 6059TIP3    H242373   3.854   1.395  10.734 -0.8737 -2.2241  1.3504
 6060TIP3   OH242374   6.038   7.174  10.850  0.0025 -0.2552 -0.2343
 6060TIP3    H142375   5.977   7.124  10.796  0.4999 -1.8368  0.6186
 6060TIP3    H242376   6.124   7.146  10.820  0.2942  0.2902  0.0889
 6061TIP3   OH242377   6.270   1.844  12.511  0.0034  0.3307  0.7060
 6061TIP3    H142378   6.338   1.818  12.449 -0.5775 -1.9678  0.9556
 6061TIP3    H242379   6.245   1.933  12.484  0.2251 -0.3357 -1.8949
 6062TIP3   OH242380   3.150   4.520  13.415 -0.0054  0.4217 -0.5982
 6062TIP3    H142381   3.060   4.490  13.425 -0.1298  0.5847 -1.1497
 6062TIP3    H242382   3.204   4.445  13.440 -0.2891  0.3795 -0.1003
 6063TIP3   OH242383   0.248   0.467  12.125 -0.3919  0.0190 -0.5781
 6063TIP3    H142384   0.312   0.533  12.100  1.3616 -1.0119  0.8996
 6063TIP3    H242385   0.248   0.404  12.053 -0.8838  0.7762 -1.2574
 6064TIP3   OH242386   6.325   4.080  12.923 -0.0902  0.4269  0.1116
 6064TIP3    H142387   6.250   4.040  12.967 -0.8118 -1.5783 -2.6501
 6064TIP3    H242388   6.288   4.153  12.875  0.0212  0.4012 -0.0127
 6065TIP3   OH242389   5.523   0.399  12.925 -0.3262  0.7256 -0.1968
 6065TIP3    H142390   5.462   0.342  12.972  1.2954 -0.0364  1.0847
 6065TIP3    H242391   5.552   0.346  12.850  0.0248  0.4142  0.1500
 6066TIP3   OH242392   2.621   2.600  11.208 -0.7909  0.1707 -0.6177
 6066TIP3    H142393   2.565   2.594  11.131 -1.7146 -1.2034  0.1084
 6066TIP3    H242394   2.559   2.596  11.282  0.2539 -1.8780  0.2207
 6067TIP3   OH242395   3.797   1.586  12.622 -0.0237 -0.4537  0.3798
 6067TIP3    H142396   3.798   1.534  12.541 -1.2379  0.7869 -0.4821
 6067TIP3    H242397   3.705   1.610  12.634 -0.0868 -1.5604  2.8066
 6068TIP3   OH242398   3.999   1.486  12.790 -0.1988 -0.1951 -0.2877
 6068TIP3    H142399   4.027   1.567  12.833  0.6863 -0.2231 -0.7872
 6068TIP3    H242400   3.924   1.511  12.737  1.2443  0.7752 -2.0027
 6069TIP3   OH242401   1.882   1.694  10.866  0.9817 -0.0845  0.4388
 6069TIP3    H142402   1.811   1.723  10.809 -0.0137 -2.5640  0.3281
 6069TIP3    H242403   1.849   1.708  10.955  0.4499 -1.0099  0.3876
 6070TIP3   OH242404   6.826   6.455  11.878  0.4138  0.3927 -0.0859
 6070TIP3    H142405   6.858   6.479  11.965 -0.7118  1.1131  0.1441
 6070TIP3    H242406   6.863   6.368  11.862 -0.0629 -0.1292  1.4765
 6071TIP3   OH242407   2.138   2.663  11.636 -0.1411 -0.2571  0.3883
 6071TIP3    H142408   2.150   2.624  11.723  0.3812 -0.7197  0.1169
 6071TIP3    H242409   2.043   2.662  11.623 -0.1213 -1.9557  0.1748
 6072TIP3   OH242410   7.234   0.881  12.617 -0.0348 -0.7408 -0.1192
 6072TIP3    H142411   7.325   0.892  12.591  0.2538  0.0925  1.1567
 6072TIP3    H242412   7.189   0.859  12.536  0.9675  0.8128 -1.1691
 6073TIP3   OH242413   2.454   0.874  12.418 -0.3480  0.4636  0.1509
 6073TIP3    H142414   2.463   0.876  12.323 -1.1621  0.9617  0.0771
 6073TIP3    H242415   2.544   0.872  12.450 -0.0583  0.6474 -0.6223
 6074TIP3   OH242416   0.257   4.337  12.414  0.0634 -0.2097  0.3331
 6074TIP3    H142417   0.312   4.385  12.475  0.7303  0.8179 -1.0237
 6074TIP3    H242418   0.316   4.277  12.369 -0.2536 -0.3370  0.0758
 6075TIP3   OH242419   3.104   2.496  11.362  0.0330  0.1943 -0.1734
 6075TIP3    H142420   3.062   2.580  11.380  1.5276  0.5309  2.3291
 6075TIP3    H242421   3.042   2.449  11.307 -1.1505  2.6506 -1.1251
 6076TIP3   OH242422   3.457   3.347  10.906 -0.2327  0.3547 -0.4535
 6076TIP3    H142423   3.430   3.306  10.824  0.9718 -0.4859 -0.4482
 6076TIP3    H242424   3.377   3.352  10.958 -0.5442 -1.3188 -0.7418
 6077TIP3   OH242425   2.397   2.123  11.249  0.8277 -0.1900 -0.5802
 6077TIP3    H142426   2.327   2.162  11.302  0.9854 -0.8996  0.1710
 6077TIP3    H242427   2.370   2.033  11.235  0.6912  0.0465 -1.9062
 6078TIP3   OH242428   3.996   2.540  12.639 -0.0169 -0.7051 -0.0356
 6078TIP3    H142429   4.041   2.456  12.640  0.2642 -0.5579  1.3307
 6078TIP3    H242430   4.017   2.580  12.723 -1.7022 -0.0981  0.1372
 6079TIP3   OH242431   5.366   1.207  11.927 -0.1091 -0.0602  0.4752
 6079TIP3    H142432   5.329   1.131  11.884 -0.0936  0.1718  0.0457
 6079TIP3    H242433   5.361   1.187  12.021 -0.9936 -0.1695  0.4049
 6080TIP3   OH242434   1.183   0.550  12.506  0.1156  0.6075 -0.3385
 6080TIP3    H142435   1.237   0.521  12.580 -0.7466  1.0072  0.4586
 6080TIP3    H242436   1.204   0.642  12.495  0.1613  0.5758 -0.5355
 6081TIP3   OH242437   6.504   5.607  11.943  0.4272 -0.1694 -0.2320
 6081TIP3    H142438   6.519   5.537  12.006  2.0059 -0.0924 -0.4869
 6081TIP3    H242439   6.533   5.686  11.988 -1.5388  0.4054  0.1365
 6082TIP3   OH242440   5.949   2.205  11.424  0.0513 -0.9048 -0.2039
 6082TIP3    H142441   6.040   2.185  11.445  0.4317 -0.8646 -1.6990
 6082TIP3    H242442   5.906   2.119  11.420 -0.1828 -0.8784  1.2879
 6083TIP3   OH242443   5.436   3.367  11.510  0.0394 -0.1743  0.5602
 6083TIP3    H142444   5.464   3.277  11.531 -0.0057 -0.4909 -0.6768
 6083TIP3    H242445   5.346   3.371  11.540 -1.2460 -1.7829 -2.6163
 6084TIP3   OH242446   5.474   5.893  11.112 -0.6080 -0.3572  0.8756
 6084TIP3    H142447   5.492   5.872  11.020 -1.6437 -1.4087  0.8762
 6084TIP3    H242448   5.503   5.983  11.122 -0.1472 -0.3335 -0.3922
 6085TIP3   OH242449   4.639   6.497  12.808  0.1674 -0.7990 -0.2913
 6085TIP3    H142450   4.704   6.567  12.806 -0.7400  0.0775 -1.0097
 6085TIP3    H242451   4.600   6.503  12.895 -1.2861  0.9971 -0.9738
 6086TIP3   OH242452   0.025   3.396  12.118  0.0138  0.4363 -0.0385
 6086TIP3    H142453   0.053   3.319  12.168 -2.5599 -0.5636  0.0119
 6086TIP3    H242454   0.042   3.373  12.027  1.3770  0.8002  0.0975
 6087TIP3   OH242455   5.426   6.458  12.396  0.2439 -0.0476 -0.0042
 6087TIP3    H142456   5.487   6.411  12.452  1.1613  1.1904  0.0685
 6087TIP3    H242457   5.360   6.392  12.372  1.6030 -1.4234 -0.1018
 6088TIP3   OH242458   3.893   1.572  11.182  0.0056 -0.2718 -0.3617
 6088TIP3    H142459   3.804   1.594  11.209 -0.3870 -0.6071 -1.3493
 6088TIP3    H242460   3.947   1.640  11.222 -0.8177  0.6024 -0.6837
 6089TIP3   OH242461   2.699   6.675  13.126 -0.4610  0.2466 -0.1454
 6089TIP3    H142462   2.743   6.645  13.046 -0.6424  2.2507 -1.0427
 6089TIP3    H242463   2.738   6.761  13.145 -0.2501 -0.2602  2.0839
 6090TIP3   OH242464   2.283   2.762  13.020  0.2337  0.6447  0.1783
 6090TIP3    H142465   2.369   2.735  13.051  0.2713 -0.9695 -1.1965
 6090TIP3    H242466   2.251   2.688  12.969 -2.6712  0.5247  1.9014
 6091TIP3   OH242467   5.557   0.199  12.325  0.0538 -0.1126 -0.5156
 6091TIP3    H142468   5.558   0.127  12.388 -1.2069 -0.1705 -0.5228
 6091TIP3    H242469   5.473   0.242  12.341  0.8511  1.4557 -0.4138
 6092TIP3   OH242470   5.605   7.657  12.470 -0.4397  0.3975  0.3155
 6092TIP3    H142471   5.565   7.572  12.451 -0.5142  1.1331 -3.6922
 6092TIP3    H242472   5.699   7.639  12.475 -0.5163 -0.0203  0.2626
 6093TIP3   OH242473   2.243   0.959  11.508  0.0419 -0.7447 -0.6890
 6093TIP3    H142474   2.266   1.032  11.450  0.5129  0.8841  1.3826
 6093TIP3    H242475   2.203   1.001  11.584  1.9602 -2.4379  1.4032
 6094TIP3   OH242476   3.221   7.369  10.384  0.1389 -0.7853 -0.4055
 6094TIP3    H142477   3.313   7.346  10.392  0.0997 -0.5823  0.7989
 6094TIP3    H242478   3.193   7.390  10.473 -1.3012 -1.6778 -0.6113
 6095TIP3   OH242479   3.515   3.803  11.024  0.2325  0.2368 -0.3285
 6095TIP3    H142480   3.578   3.749  10.976  1.8985  2.3568 -0.6531
 6095TIP3    H242481   3.567   3.874  11.062 -1.6801  0.9596  1.1154
 6096TIP3   OH242482   5.050   7.499  11.936  0.5717 -0.3125  0.1857
 6096TIP3    H142483   5.014   7.532  11.854  2.1122 -1.4630 -1.0137
 6096TIP3    H242484   4.975   7.494  11.995 -0.1483  2.9062 -0.3119
 6097TIP3   OH242485   0.899   6.950  11.712 -0.3990 -0.1008 -0.3940
 6097TIP3    H142486   0.967   7.016  11.722 -2.0098  1.3354  2.0386
 6097TIP3    H242487   0.932   6.875  11.762 -0.5428  0.5700  0.7415
 6098TIP3   OH242488   6.420   5.822  11.394  0.0609  0.0862  0.0655
 6098TIP3    H142489   6.439   5.771  11.316 -0.2229 -0.9294  0.6301
 6098TIP3    H242490   6.498   5.811  11.449 -0.4335 -0.6606  0.6432
 6099TIP3   OH242491   7.383   4.485  11.570  0.8472  0.3750  0.1090
 6099TIP3    H142492   7.447   4.418  11.548  0.6119  0.4876 -0.9720
 6099TIP3    H242493   7.435   4.565  11.583  0.8401  0.8218 -2.2603
 6100TIP3   OH242494   4.751   2.054  12.069  0.4710 -0.4734 -0.5709
 6100TIP3    H142495   4.775   2.105  11.991  0.9161  0.1234 -0.0597
 6100TIP3    H242496   4.834   2.019  12.102  0.4592  0.2321  0.2717
 6101TIP3   OH242497   4.885   1.975  11.049  0.0399  0.9351 -0.4177
 6101TIP3    H142498   4.796   1.945  11.031  0.8836 -2.4837  0.3750
 6101TIP3    H242499   4.893   2.056  11.000 -2.7679  0.1976 -2.3496
 6102TIP3   OH242500   3.288   2.152  11.294 -0.2762  0.3238  0.4840
 6102TIP3    H142501   3.266   2.091  11.364 -0.6887  0.1806  0.2392
 6102TIP3    H242502   3.383   2.149  11.287 -0.3563 -1.3314 -0.4303
 6103TIP3   OH242503   0.515   5.136  12.413 -0.2047  0.0036 -0.2259
 6103TIP3    H142504   0.578   5.111  12.481  0.6703  1.2408 -0.5412
 6103TIP3    H242505   0.429   5.122  12.453  0.2925  0.0539  0.8868
 6104TIP3   OH242506   3.871   2.127  13.342 -0.4423 -0.1501  0.2593
 6104TIP3    H142507   3.792   2.096  13.299  0.4505  1.2821 -2.6948
 6104TIP3    H242508   3.861   2.222  13.345  1.5208  0.1544 -1.0846
 6105TIP3   OH242509   6.540   5.684  11.196  0.3577 -0.2056  0.6039
 6105TIP3    H142510   6.516   5.673  11.104  0.4625 -0.6008  0.6235
 6105TIP3    H242511   6.515   5.602  11.238  0.7385 -0.2097  0.8369
 6106TIP3   OH242512   1.143   2.878  10.635  0.3806  0.4882  0.4227
 6106TIP3    H142513   1.133   2.861  10.541  0.8699  1.7627  0.1204
 6106TIP3    H242514   1.064   2.925  10.659  0.4865  0.6066  0.5374
 6107TIP3   OH242515   7.452   6.970  11.628  0.6562  0.2369 -0.5318
 6107TIP3    H142516   7.407   6.914  11.690  0.9548  0.1897 -0.3536
 6107TIP3    H242517   7.418   6.944  11.542  0.4665  0.0919 -0.4121
 6108TIP3   OH242518   1.172   5.984  10.500  0.0018 -0.3933 -0.2647
 6108TIP3    H142519   1.198   6.062  10.451  0.6668 -0.4406  0.0052
 6108TIP3    H242520   1.210   5.997  10.587 -1.7882  0.0424  0.4999
 6109TIP3   OH242521   5.660   1.254  11.248 -0.3457 -0.1498 -0.6290
 6109TIP3    H142522   5.724   1.286  11.185  1.3815 -0.3981  0.9189
 6109TIP3    H242523   5.621   1.177  11.206  1.2049 -0.6691 -1.1752
 6110TIP3   OH242524   6.354   4.950  11.160 -1.0086 -0.0068 -0.2703
 6110TIP3    H142525   6.433   4.963  11.108 -0.8531 -0.1375 -0.0651
 6110TIP3    H242526   6.351   5.025  11.219 -0.4134 -0.5924  0.5231
 6111TIP3   OH242527   4.090   7.081  11.357 -0.2205  0.3803  0.1574
 6111TIP3    H142528   3.997   7.099  11.341 -0.5439 -2.0001 -1.0332
 6111TIP3    H242529   4.124   7.054  11.271  1.2399 -0.1385  0.8698
 6112TIP3   OH242530   4.085   7.370  12.540 -0.4993 -0.2496  0.6766
 6112TIP3    H142531   4.084   7.465  12.550 -0.3933 -0.3681  1.9748
 6112TIP3    H242532   4.139   7.339  12.612 -0.1342 -1.2761 -0.0146
 6113TIP3   OH242533   3.209   2.041  13.051  0.4505 -0.1450 -0.3144
 6113TIP3    H142534   3.183   2.071  12.964  0.9092  1.8343  0.1662
 6113TIP3    H242535   3.138   2.070  13.108  0.1550 -1.4258 -0.0110
 6114TIP3   OH242536   7.113   1.371  11.210  0.0735 -0.2456 -0.2462
 6114TIP3    H142537   7.108   1.277  11.197 -2.0273 -0.1762 -0.3803
 6114TIP3    H242538   7.130   1.383  11.303  1.1543 -0.7317 -0.3685
 6115TIP3   OH242539   6.791   3.381  11.237  0.2859  0.2895  0.6095
 6115TIP3    H142540   6.786   3.385  11.141  2.2131 -0.7423  0.4287
 6115TIP3    H242541   6.739   3.456  11.266 -1.5452 -0.1781 -1.1707
 6116TIP3   OH242542   0.589   0.403  11.640 -0.1308  0.2318 -0.1629
 6116TIP3    H142543   0.648   0.329  11.652 -1.6474 -1.3903 -2.0277
 6116TIP3    H242544   0.590   0.448  11.725  0.5729 -2.1346  1.1810
 6117TIP3   OH242545   5.731   1.649  10.768 -0.4733  0.1667 -0.6679
 6117TIP3    H142546   5.647   1.603  10.768 -0.6527  0.3423  1.7625
 6117TIP3    H242547   5.797   1.579  10.773 -0.5996  0.0681 -0.3245
 6118TIP3   OH242548   0.308   4.930  11.339 -0.1493 -0.0918  0.2736
 6118TIP3    H142549   0.254   4.959  11.412  0.2380 -0.7884  0.8456
 6118TIP3    H242550   0.393   4.970  11.354  0.5164 -1.7993  1.3011
 6119TIP3   OH242551   5.403   4.405  10.874 -0.2223  0.2900  0.5336
 6119TIP3    H142552   5.487   4.445  10.851 -1.1918  2.5743  0.6722
 6119TIP3    H242553   5.405   4.397  10.969  0.2987 -0.8499  0.4451
 6120TIP3   OH242554   7.511   2.832  11.120  0.2984 -0.2382  0.2570
 6120TIP3    H142555   7.513   2.895  11.048 -0.0218 -2.9181 -2.3068
 6120TIP3    H242556   7.602   2.826  11.149  0.3192  1.3948  0.6020
 6121TIP3   OH242557   1.666   6.439  12.266  0.0080  0.4185  0.2212
 6121TIP3    H142558   1.729   6.490  12.318  1.1513 -1.7996  1.1522
 6121TIP3    H242559   1.650   6.361  12.319 -2.0028 -0.0170 -0.9463
 6122TIP3   OH242560   1.663   4.577  11.327 -0.2765 -0.2799  0.2241
 6122TIP3    H142561   1.675   4.622  11.244 -0.1533  1.9302  1.3476
 6122TIP3    H242562   1.737   4.517  11.334  1.1506  1.3657 -0.1491
 6123TIP3   OH242563   4.571   5.297  11.122 -0.0291 -0.0530  0.0249
 6123TIP3    H142564   4.630   5.259  11.057  0.7904 -1.1780  1.3625
 6123TIP3    H242565   4.528   5.222  11.162  1.9438  0.2444  3.0412
 6124TIP3   OH242566   3.709   1.595  10.967 -0.0159 -0.3316  0.1964
 6124TIP3    H142567   3.724   1.646  10.888  2.1649 -2.0114 -0.5814
 6124TIP3    H242568   3.793   1.594  11.013 -0.7046 -1.0241  1.5276
 6125TIP3   OH242569   2.696   0.256  12.082  0.7569 -0.0072  0.8413
 6125TIP3    H142570   2.615   0.243  12.034  0.2960  0.5729  1.4406
 6125TIP3    H242571   2.671   0.250  12.174  1.0676  1.7980  1.0939
 6126TIP3   OH242572   1.972   6.139  10.845  0.3663  0.4514  0.2600
 6126TIP3    H142573   1.924   6.167  10.923  1.8114 -1.6011  1.9941
 6126TIP3    H242574   2.055   6.105  10.878 -0.0769 -3.2182 -1.7876
 6127TIP3   OH242575   1.783   6.632  12.427  0.6938  0.1849  0.8273
 6127TIP3    H142576   1.841   6.678  12.487  0.5464 -1.0343  1.9584
 6127TIP3    H242577   1.695   6.644  12.464  0.1940  1.8708 -0.7745
 6128TIP3   OH242578   6.226   2.571  11.665  0.6811 -0.2316  0.0969
 6128TIP3    H142579   6.231   2.515  11.587  2.8206  0.4378 -0.3466
 6128TIP3    H242580   6.138   2.608  11.663  0.8100  0.1059 -2.2907
 6129TIP3   OH242581   6.614   7.235  10.628  0.5958  0.3624 -0.2796
 6129TIP3    H142582   6.699   7.264  10.595  0.5135  0.6332 -0.2563
 6129TIP3    H242583   6.634   7.195  10.713  0.6995  0.4202 -0.2764
 6130TIP3   OH242584   4.557   4.525  11.045  0.0175 -0.0618 -0.3089
 6130TIP3    H142585   4.492   4.547  11.112  0.3194 -0.1494  0.0168
 6130TIP3    H242586   4.642   4.535  11.089  0.2187 -0.1421 -0.6712
 6131TIP3   OH242587   5.250   1.321  12.391 -0.3735  0.3063  0.1589
 6131TIP3    H142588   5.206   1.399  12.423  2.5290  2.5899 -1.0058
 6131TIP3    H242589   5.298   1.287  12.467 -0.4300  0.5772  0.3161
 6132TIP3   OH242590   2.885   1.638  12.161  0.2309  0.1936 -0.3658
 6132TIP3    H142591   2.834   1.715  12.136  1.3258  0.5254 -1.7138
 6132TIP3    H242592   2.843   1.566  12.115  0.0534  0.2303 -0.2585
 6133TIP3   OH242593   7.413   2.984  11.372 -0.0365  0.0329 -0.2039
 6133TIP3    H142594   7.364   3.022  11.300 -0.4097 -0.3781 -0.1707
 6133TIP3    H242595   7.489   2.942  11.331  0.2059  0.5299 -0.2706
 6134TIP3   OH242596   7.072   4.878  12.867  0.2271 -0.2341  0.1474
 6134TIP3    H142597   7.064   4.972  12.850  0.9918 -0.5002 -1.9855
 6134TIP3    H242598   7.109   4.873  12.955 -0.0795  1.4590  0.4008
 6135TIP3   OH242599   1.952   3.864  12.170 -0.1198  0.1337 -0.1897
 6135TIP3    H142600   1.981   3.781  12.208 -0.6520 -0.1006 -0.2881
 6135TIP3    H242601   1.856   3.857  12.166 -0.2594  1.1338  0.7081
 6136TIP3   OH242602   2.009   3.156  11.248 -0.0691 -0.0098  0.1766
 6136TIP3    H142603   1.937   3.198  11.201  0.4315  0.6491 -0.0188
 6136TIP3    H242604   2.036   3.221  11.313 -0.4157 -0.7151  1.0434
 6137TIP3   OH242605   4.558   6.843  12.241 -0.2281 -0.2652  0.2138
 6137TIP3    H142606   4.485   6.816  12.296 -2.2012  3.3333 -0.3506
 6137TIP3    H242607   4.600   6.914  12.289  0.0735  0.7090 -1.3896
 6138TIP3   OH242608   0.546   1.164  10.559 -0.5687  0.7599 -0.4685
 6138TIP3    H142609   0.620   1.208  10.519 -0.4264  0.7716 -0.1968
 6138TIP3    H242610   0.573   1.072  10.567 -0.0964  0.9862  0.7490
 6139TIP3   OH242611   3.585   3.049  13.061 -0.6531 -0.2875  0.0585
 6139TIP3    H142612   3.578   3.143  13.041  2.1666 -0.4280 -2.3545
 6139TIP3    H242613   3.624   3.046  13.148  0.8573  0.8934 -0.5246
 6140TIP3   OH242614   1.998   6.622  11.905  0.1703  0.7226  0.3394
 6140TIP3    H142615   1.912   6.625  11.946  0.0416  0.4357  0.0930
 6140TIP3    H242616   2.015   6.529  11.891  0.2976  0.8078 -0.0823
 6141TIP3   OH242617   2.958   5.826  12.300  0.2947  0.6024 -0.1114
 6141TIP3    H142618   2.973   5.734  12.324 -0.5465  1.0883  2.6184
 6141TIP3    H242619   2.968   5.828  12.205  1.2420 -2.1269 -0.1523
 6142TIP3   OH242620   2.105   6.145  12.246 -0.3557 -0.5664 -0.3223
 6142TIP3    H142621   2.020   6.163  12.286 -0.0554 -2.7191  1.4239
 6142TIP3    H242622   2.169   6.171  12.312  0.3469  0.0918 -1.2313
 6143TIP3   OH242623   1.564   6.931  13.059  0.1506  0.2067 -0.0975
 6143TIP3    H142624   1.482   6.883  13.052  0.2397  0.0266  0.1127
 6143TIP3    H242625   1.543   7.006  13.114  0.2864 -0.1840  0.4890
 6144TIP3   OH242626   2.484   4.090  10.673 -0.0192 -0.3153 -0.3164
 6144TIP3    H142627   2.558   4.080  10.614 -0.9023  0.8240 -1.6792
 6144TIP3    H242628   2.522   4.115  10.757  1.2945 -2.3683 -0.2260
 6145TIP3   OH242629   7.396   3.065  12.974  0.3624  0.0178 -0.2113
 6145TIP3    H142630   7.359   2.982  12.944 -1.2546  0.4864  0.4078
 6145TIP3    H242631   7.439   3.044  13.057  1.2043 -0.4578 -0.7546
 6146TIP3   OH242632   6.291   7.040  10.917 -0.0854  0.0022 -0.4363
 6146TIP3    H142633   6.310   7.086  10.835  2.5731 -0.7177 -0.3157
 6146TIP3    H242634   6.367   7.058  10.972 -0.7816 -1.3948  1.0430
 6147TIP3   OH242635   6.390   7.329  12.351  0.9904 -0.2146  0.2603
 6147TIP3    H142636   6.427   7.400  12.299 -0.3312  0.6555  0.4470
 6147TIP3    H242637   6.400   7.358  12.442 -2.8885  1.6373  0.2937
 6148TIP3   OH242638   2.470   6.817  11.681 -0.5112  0.3628  0.5163
 6148TIP3    H142639   2.445   6.844  11.592 -0.1038  0.6833  0.4938
 6148TIP3    H242640   2.550   6.766  11.669  0.8478  2.2840  0.8634
 6149TIP3   OH242641   5.159   1.150  11.169  0.4480 -0.2741  0.3715
 6149TIP3    H142642   5.237   1.203  11.185  0.3883 -0.5783  1.8524
 6149TIP3    H242643   5.192   1.060  11.167  0.0311 -0.5332  2.3556
 6150TIP3   OH242644   0.047   1.637  13.001 -0.2044 -0.1863 -0.2548
 6150TIP3    H142645   0.078   1.719  13.040  1.4568 -1.4577  1.2815
 6150TIP3    H242646   0.103   1.625  12.924 -1.1012  0.5765 -1.0409
 6151TIP3   OH242647   0.969   2.999  12.311  0.0949 -0.1658 -0.1604
 6151TIP3    H142648   0.958   2.941  12.236  1.7988 -0.1306 -0.4600
 6151TIP3    H242649   0.968   3.087  12.275  1.3528 -0.1635 -0.2175
 6152TIP3   OH242650   3.367   2.862  13.094  0.1068  0.0542  0.0992
 6152TIP3    H142651   3.435   2.922  13.064  0.0054  0.6677  1.0892
 6152TIP3    H242652   3.414   2.782  13.116  0.3727  0.1327 -0.1721
 6153TIP3   OH242653   2.810   0.670  12.147 -0.3404 -0.8399 -0.1714
 6153TIP3    H142654   2.745   0.602  12.164 -2.2486  1.0673  0.6347
 6153TIP3    H242655   2.843   0.694  12.234 -1.7403  1.1055 -0.1169
 6154TIP3   OH242656   5.790   5.178  12.645 -0.1920 -0.3474 -0.9632
 6154TIP3    H142657   5.835   5.260  12.669 -0.4234  0.1146 -2.0682
 6154TIP3    H242658   5.803   5.121  12.721  2.6434 -0.4151 -1.3824
 6155TIP3   OH242659   1.826   5.489  10.417  0.0092  0.8071  0.2301
 6155TIP3    H142660   1.886   5.556  10.384 -0.4584  0.4306 -1.4644
 6155TIP3    H242661   1.744   5.536  10.432 -0.5637  0.5100 -1.7415
 6156TIP3   OH242662   1.320   7.234  11.569  0.4350  0.0186  0.3787
 6156TIP3    H142663   1.360   7.228  11.656  1.0322 -0.6604  0.0677
 6156TIP3    H242664   1.253   7.165  11.569 -0.0035  0.4420  0.5212
 6157TIP3   OH242665   6.743   3.088  11.651 -0.1732  0.4907 -0.0721
 6157TIP3    H142666   6.702   3.098  11.737  1.5482  1.4058  0.6889
 6157TIP3    H242667   6.676   3.118  11.589 -1.5993 -0.5845  0.8844
 6158TIP3   OH242668   6.893   0.446  11.835  0.3271 -0.6508 -0.3545
 6158TIP3    H142669   6.873   0.358  11.802  3.2746 -0.5795 -2.6958
 6158TIP3    H242670   6.890   0.502  11.758  0.6050  0.9379  0.7351
 6159TIP3   OH242671   2.477   5.925  10.669 -0.0206  0.3593 -0.1654
 6159TIP3    H142672   2.398   5.931  10.616 -0.7921 -0.6466  0.8215
 6159TIP3    H242673   2.447   5.888  10.752  1.1063  2.0600  1.0633
 6160TIP3   OH242674   1.269   4.933  12.579  0.6736  0.2121  0.3710
 6160TIP3    H142675   1.291   4.902  12.667 -1.8964 -1.0137  0.6588
 6160TIP3    H242676   1.352   4.966  12.544  1.9055  0.1196  2.9841
 6161TIP3   OH242677   7.409   3.529  11.987 -0.7143 -0.3370 -0.5436
 6161TIP3    H142678   7.498   3.563  11.989 -0.7419 -0.3120  0.4612
 6161TIP3    H242679   7.419   3.435  12.005 -1.1549  0.2656  3.7784
 6162TIP3   OH242680   0.268   7.369  12.728  0.0165  0.5386 -0.6977
 6162TIP3    H142681   0.318   7.294  12.697  0.6402  1.1313 -1.1688
 6162TIP3    H242682   0.253   7.352  12.821 -0.8855 -0.7235 -1.0522
 6163TIP3   OH242683   3.987   5.864  11.047 -0.2200 -0.3225 -0.3100
 6163TIP3    H142684   4.024   5.883  10.961 -1.2525 -0.9127 -0.8955
 6163TIP3    H242685   3.930   5.788  11.033 -0.2282 -0.5707  0.9400
 6164TIP3   OH242686   0.273   3.103  11.256  0.0841 -0.2186 -0.8448
 6164TIP3    H142687   0.188   3.124  11.294  0.4778 -0.5199  0.2449
 6164TIP3    H242688   0.258   3.024  11.204 -0.5650  0.4792 -1.7578
 6165TIP3   OH242689   6.455   7.157  12.895 -0.4831 -0.2251  0.3114
 6165TIP3    H142690   6.493   7.225  12.950 -2.0485 -0.5809  1.9287
 6165TIP3    H242691   6.515   7.149  12.821 -0.2148  2.8401  0.0880
 6166TIP3   OH242692   1.915   4.369  10.517  0.1749 -0.0949  0.4709
 6166TIP3    H142693   1.941   4.430  10.585 -1.0241 -0.3006  1.1420
 6166TIP3    H242694   1.839   4.324  10.553 -0.3438 -0.3750 -0.9119
 6167TIP3   OH242695   1.596   0.750  13.399  0.4153 -0.0797 -0.2748
 6167TIP3    H142696   1.615   0.838  13.367  0.3541 -0.5934 -1.8304
 6167TIP3    H242697   1.508   0.731  13.365 -0.0860 -0.2970  1.0737
 6168TIP3   OH242698   0.545   5.412  12.768 -0.5362 -0.0685  0.6371
 6168TIP3    H142699   0.563   5.341  12.830 -0.5768  0.7318  1.5754
 6168TIP3    H242700   0.584   5.382  12.686  1.3140 -0.2698  1.5348
 6169TIP3   OH242701   5.447   7.585  18.384 -0.7402  0.0477 -0.1695
 6169TIP3    H142702   5.355   7.561  18.374 -0.5881  0.0942 -1.9694
 6169TIP3    H242703   5.495   7.518  18.336  0.0296  0.9703 -0.7270
 6170TIP3   OH242704   6.680   6.023  12.321 -0.5849 -0.1832  0.4176
 6170TIP3    H142705   6.663   5.971  12.242  0.3785  0.0194  0.0624
 6170TIP3    H242706   6.596   6.064  12.341 -0.2360  2.1959 -2.2897
 6171TIP3   OH242707   4.690   2.121  11.297  0.0657 -0.0537  0.3611
 6171TIP3    H142708   4.739   2.106  11.377 -0.8245 -1.4006  0.6999
 6171TIP3    H242709   4.670   2.033  11.264 -2.2910  0.3876  0.3882
 6172TIP3   OH242710   3.572   0.330  11.794 -0.1895 -0.1335  0.0051
 6172TIP3    H142711   3.599   0.272  11.723 -0.2188 -0.5279  0.3167
 6172TIP3    H242712   3.614   0.414  11.773 -1.6180  0.2836 -1.4345
 6173TIP3   OH242713   6.621   0.550  10.743  0.4282  0.2788 -0.3047
 6173TIP3    H142714   6.681   0.508  10.681 -1.1397 -1.5862 -0.6976
 6173TIP3    H242715   6.536   0.549  10.698 -0.2899  1.0514  0.9635
 6174TIP3   OH242716   0.192   1.776  11.262 -0.7942 -0.2749 -0.0528
 6174TIP3    H142717   0.195   1.831  11.341  0.8921 -0.6468  0.1794
 6174TIP3    H242718   0.234   1.829  11.194 -2.5688  0.1944 -0.8509
 6175TIP3   OH242719   2.319   7.143  11.227  0.3197  0.1019  0.0976
 6175TIP3    H142720   2.285   7.085  11.159 -0.8195  0.9996 -0.1311
 6175TIP3    H242721   2.405   7.171  11.195  0.0808 -0.0153 -0.6559
 6176TIP3   OH242722   2.406   5.829  10.911  0.3714 -0.0443 -0.0907
 6176TIP3    H142723   2.311   5.828  10.925  0.4214  0.0199  0.2531
 6176TIP3    H242724   2.443   5.849  10.997  0.6472  1.1162 -0.4558
 6177TIP3   OH242725   1.796   5.904  10.740 -0.4055 -0.2622  0.7307
 6177TIP3    H142726   1.790   5.808  10.739  2.0210 -0.4830  0.5651
 6177TIP3    H242727   1.822   5.925  10.830 -0.8194  0.2377  0.7358
 6178TIP3   OH242728   0.304   2.752  11.413  0.2082  0.2265  0.0176
 6178TIP3    H142729   0.306   2.693  11.488 -1.9908  0.8768  0.6440
 6178TIP3    H242730   0.334   2.698  11.339  0.1172 -1.0926  0.9184
 6179TIP3   OH242731   2.154   2.493  11.102 -0.2626  0.2066 -0.3231
 6179TIP3    H142732   2.174   2.446  11.183  0.2686 -1.0931 -1.1788
 6179TIP3    H242733   2.072   2.539  11.120 -0.7956 -1.0535  0.5664
 6180TIP3   OH242734   1.951   1.518  10.448  0.3561 -0.4877  0.2743
 6180TIP3    H142735   1.885   1.585  10.432  1.2211  0.7735  1.6750
 6180TIP3    H242736   1.937   1.491  10.539  1.0852 -0.9763  0.2559
 6181TIP3   OH242737   6.156   1.692  12.879  0.4601 -0.3142 -0.0139
 6181TIP3    H142738   6.248   1.717  12.890 -0.1029  1.5316  0.8917
 6181TIP3    H242739   6.148   1.668  12.786  1.5488  0.9008 -0.4479
 6182TIP3   OH242740   3.706   1.850  11.646  0.3023 -0.6586  0.1649
 6182TIP3    H142741   3.673   1.846  11.736 -0.9148 -0.8203 -0.2658
 6182TIP3    H242742   3.633   1.818  11.592  1.3310 -1.4804 -0.8132
 6183TIP3   OH242743   4.073   2.326  10.351  0.1982 -0.0467  0.1889
 6183TIP3    H142744   4.139   2.329  10.281 -0.0818  0.7080 -0.0484
 6183TIP3    H242745   4.071   2.415  10.386 -1.1115  0.0793 -0.1915
 6184TIP3   OH242746   6.584   1.343  11.600 -0.1655 -0.1999  0.1161
 6184TIP3    H142747   6.644   1.407  11.561 -2.3303  0.4067 -2.5551
 6184TIP3    H242748   6.610   1.259  11.562  0.5673 -0.4006  1.0144
 6185TIP3   OH242749   0.244   4.474  11.207 -0.3957 -0.0102 -0.3498
 6185TIP3    H142750   0.204   4.458  11.121 -0.9167  2.4561 -0.6349
 6185TIP3    H242751   0.191   4.544  11.245  0.9205  0.1659  1.2325
 6186TIP3   OH242752   0.454   1.890  12.392 -0.3920 -0.0192 -0.4334
 6186TIP3    H142753   0.536   1.888  12.442 -0.8817 -1.7193  0.3638
 6186TIP3    H242754   0.469   1.957  12.325  1.0805  0.7823  0.6345
 6187TIP3   OH242755   5.959   4.497  12.508 -0.1527  0.2128 -0.3399
 6187TIP3    H142756   5.908   4.538  12.578 -0.7137  0.2319 -0.7483
 6187TIP3    H242757   5.893   4.453  12.453  0.1165  1.2886 -1.5823
 6188TIP3   OH242758   1.978   7.084  11.055 -0.1212 -1.0135  0.0050
 6188TIP3    H142759   2.001   7.149  11.122  2.0002 -1.9612  0.2929
 6188TIP3    H242760   2.048   7.090  10.991 -1.5573 -0.8903 -1.6208
 6189TIP3   OH242761   3.276   2.381  12.718  0.5384 -0.1846  0.4250
 6189TIP3    H142762   3.207   2.334  12.765 -0.5637  0.7568 -0.2259
 6189TIP3    H242763   3.302   2.321  12.648 -0.7956  0.1165 -0.3437
 6190TIP3   OH242764   2.548   0.298  10.959 -0.9797  0.1401  0.0441
 6190TIP3    H142765   2.568   0.210  10.928 -0.4053  0.3456 -0.1762
 6190TIP3    H242766   2.622   0.321  11.016 -2.2111 -0.4070  1.9947
 6191TIP3   OH242767   5.402   5.635  11.246  0.7588  0.6953 -0.5841
 6191TIP3    H142768   5.447   5.632  11.331 -0.9027  0.8932  0.3280
 6191TIP3    H242769   5.444   5.707  11.199  0.4509  1.8218  0.8113
 6192TIP3   OH242770   5.049   7.592  10.404  0.2444 -0.4758  0.0780
 6192TIP3    H142771   5.045   7.653  10.477 -1.5253 -0.3490 -0.0822
 6192TIP3    H242772   5.086   7.643  10.331 -0.4282  0.1731  0.1799
 6193TIP3   OH242773   5.209   4.267  10.736 -0.2627  0.4025  0.1834
 6193TIP3    H142774   5.172   4.199  10.793 -1.1866  1.9901  1.5867
 6193TIP3    H242775   5.290   4.294  10.779  0.1644  0.1050 -0.4302
 6194TIP3   OH242776   1.848   3.159  10.337 -0.7557 -0.0776 -0.4911
 6194TIP3    H142777   1.784   3.094  10.308  1.5559 -1.9075 -1.7850
 6194TIP3    H242778   1.835   3.165  10.432 -0.6750 -2.9403 -0.2076
 6195TIP3   OH242779   7.546   4.209  12.769  0.1118  0.0104  0.2938
 6195TIP3    H142780   7.472   4.157  12.738 -0.2169  1.3900 -1.3941
 6195TIP3    H242781   7.526   4.298  12.742  1.1441  0.8773  2.1966
 6196TIP3   OH242782   1.847   0.990  11.154 -0.3171 -0.3791 -0.2941
 6196TIP3    H142783   1.855   0.917  11.216 -2.2201  0.3384  0.8800
 6196TIP3    H242784   1.914   1.052  11.183  0.6708 -1.1950 -0.7199
 6197TIP3   OH242785   2.708   6.801  11.356  0.1061  1.0765 -0.2921
 6197TIP3    H142786   2.725   6.893  11.376 -0.3039  1.1406 -0.2338
 6197TIP3    H242787   2.720   6.755  11.439  0.0584  1.1120 -0.2659
 6198TIP3   OH242788   6.821   7.416  11.077  0.6908  0.1582 -0.1854
 6198TIP3    H142789   6.821   7.324  11.052 -0.1923  0.1280 -0.1261
 6198TIP3    H242790   6.911   7.435  11.102  0.5833 -1.0891  1.2761
 6199TIP3   OH242791   6.482   1.964  10.547  0.4680 -0.4458 -0.1553
 6199TIP3    H142792   6.514   1.994  10.632 -0.5976 -0.8611  0.4023
 6199TIP3    H242793   6.406   2.020  10.529  0.7733 -0.2599 -0.9149
 6200TIP3   OH242794   4.585   2.337  11.423  0.7292  0.6482 -0.1442
 6200TIP3    H142795   4.600   2.250  11.386 -0.1510 -0.9328  2.9325
 6200TIP3    H242796   4.520   2.377  11.364  0.5113 -1.1038 -1.1477
 6201TIP3   OH242797   2.545   3.798  12.490  0.1581  0.1495 -0.1748
 6201TIP3    H142798   2.545   3.714  12.537 -0.1478 -0.2717 -0.8968
 6201TIP3    H242799   2.588   3.778  12.406  0.1315  0.7314 -0.3322
 6202TIP3   OH242800   4.255   2.727  10.421 -0.0500 -0.2237  0.2382
 6202TIP3    H142801   4.307   2.754  10.345 -0.4125  0.5940  0.2628
 6202TIP3    H242802   4.295   2.773  10.495 -0.0588 -0.5507  0.4451
 6203TIP3   OH242803   6.464   3.161  10.943 -0.5863  0.3706  0.4198
 6203TIP3    H142804   6.511   3.195  11.019 -0.3573 -1.1213  0.9772
 6203TIP3    H242805   6.423   3.080  10.974 -0.3469 -0.3643 -1.0801
 6204TIP3   OH242806   2.464   0.805  11.427  0.4542  0.2007 -0.2039
 6204TIP3    H142807   2.432   0.731  11.375  2.8198 -0.4726 -0.8121
 6204TIP3    H242808   2.393   0.869  11.423 -0.7860 -1.1670 -1.4593
 6205TIP3   OH242809   6.137   5.304  11.264 -0.0712  0.2054 -0.5822
 6205TIP3    H142810   6.175   5.369  11.205 -2.3195  1.2462 -1.0367
 6205TIP3    H242811   6.129   5.350  11.348  0.4857 -0.2977 -0.2484
 6206TIP3   OH242812   2.470   0.906  12.108 -0.1184 -0.1746 -0.2032
 6206TIP3    H142813   2.439   0.989  12.072 -1.0016 -0.7914 -0.9146
 6206TIP3    H242814   2.561   0.900  12.080  0.3466  1.1438  0.9512
 6207TIP3   OH242815   3.552   7.445  11.918 -0.2176 -0.7470  0.1381
 6207TIP3    H142816   3.617   7.514  11.931 -0.5367 -0.4644  0.2498
 6207TIP3    H242817   3.579   7.376  11.979  0.7318 -1.1848 -0.7558
 6208TIP3   OH242818   0.911   0.621  11.779  0.0834 -0.6277 -0.2997
 6208TIP3    H142819   0.854   0.603  11.704  1.9404  0.5645 -2.1222
 6208TIP3    H242820   0.919   0.716  11.780 -0.3779 -0.5634  1.8658
 6209TIP3   OH242821   6.002   5.565  11.822 -0.0623  0.0430  0.5131
 6209TIP3    H142822   6.079   5.540  11.772 -0.0050  0.4171  0.4099
 6209TIP3    H242823   6.024   5.652  11.857 -0.0600 -0.2513  1.2627
 6210TIP3   OH242824   5.754   6.376  11.543 -0.1199  0.7955 -0.4441
 6210TIP3    H142825   5.789   6.377  11.632  0.1750  3.1868 -0.5256
 6210TIP3    H242826   5.660   6.385  11.554 -0.5470 -2.6364 -0.3285
 6211TIP3   OH242827   0.661   7.007  10.458 -0.0764  0.3288 -0.2718
 6211TIP3    H142828   0.602   7.061  10.511  1.3433  1.8843 -0.2127
 6211TIP3    H242829   0.602   6.945  10.413 -1.5228  0.4247  1.3766
 6212TIP3   OH242830   7.295   2.779  12.520  0.9425 -0.1478  0.9652
 6212TIP3    H142831   7.252   2.729  12.451  0.9476  1.3574 -0.2003
 6212TIP3    H242832   7.224   2.804  12.579  0.5220  0.5687  0.1807
 6213TIP3   OH242833   4.038   0.675  11.926  0.4370 -0.1691 -0.0229
 6213TIP3    H142834   4.104   0.612  11.899 -0.0679 -0.3738 -0.8186
 6213TIP3    H242835   4.063   0.757  11.882 -0.5541 -0.5774 -1.4366
 6214TIP3   OH242836   3.295   0.956  11.331  0.0541  0.3439 -0.1156
 6214TIP3    H142837   3.212   1.003  11.343  0.6814  1.5668 -0.4307
 6214TIP3    H242838   3.315   0.966  11.238  0.0241 -0.8950 -0.2736
 6215TIP3   OH242839   4.123   2.598  11.297 -0.0813 -0.0942 -0.3393
 6215TIP3    H142840   4.064   2.568  11.366 -0.2474 -1.0920 -0.9086
 6215TIP3    H242841   4.067   2.616  11.222  0.1101  0.9161 -0.2666
 6216TIP3   OH242842   4.908   1.108  11.050  0.0026 -0.1688  0.1810
 6216TIP3    H142843   4.997   1.111  11.084 -0.3504 -0.1814  1.1207
 6216TIP3    H242844   4.852   1.129  11.125 -0.7391  0.8551 -0.6207
 6217TIP3   OH242845   0.613   5.455  10.220  0.0204 -0.4527  0.6771
 6217TIP3    H142846   0.682   5.479  10.157  0.1654  0.4484  1.1588
 6217TIP3    H242847   0.640   5.370  10.254  0.0405 -0.8616 -0.3311
 6218TIP3   OH242848   1.474   5.568  12.003 -0.3254  0.1283  0.3655
 6218TIP3    H142849   1.519   5.596  11.923  0.5209  1.1510  1.1785
 6218TIP3    H242850   1.393   5.528  11.971 -0.1690  0.8242 -0.9940
 6219TIP3   OH242851   3.251   5.301  13.257 -0.0010 -0.1566 -0.1399
 6219TIP3    H142852   3.270   5.394  13.242  1.3075 -0.4650 -0.5948
 6219TIP3    H242853   3.280   5.285  13.347 -0.3848 -0.0858 -0.0040
 6220TIP3   OH242854   2.501   1.563  11.128  0.0037  0.3169 -0.2766
 6220TIP3    H142855   2.503   1.596  11.218  1.4615  0.5816 -0.3850
 6220TIP3    H242856   2.417   1.517  11.122 -0.0171  0.0694  1.2900
 6221TIP3   OH242857   7.004   6.764  12.650 -0.1508 -0.5204  0.0692
 6221TIP3    H142858   7.069   6.800  12.710  0.0301 -0.5725 -0.0983
 6221TIP3    H242859   6.951   6.839  12.624  0.4757 -0.2987 -0.5980
 6222TIP3   OH242860   1.060   3.093  10.841 -0.2347  0.7034  0.1225
 6222TIP3    H142861   1.040   3.186  10.852  0.4416  0.7366  1.2704
 6222TIP3    H242862   0.988   3.048  10.886 -1.6895  0.5571 -2.1759
 6223TIP3   OH242863   1.591   3.548  11.305 -0.4920 -0.2004 -0.8000
 6223TIP3    H142864   1.554   3.572  11.220 -0.8572  0.1782 -0.5353
 6223TIP3    H242865   1.534   3.478  11.338  0.7018 -1.6525 -1.6737
 6224TIP3   OH242866   6.871   0.761  12.232 -0.3125  0.5428 -0.6620
 6224TIP3    H142867   6.938   0.829  12.236  1.0497 -0.7918  0.3972
 6224TIP3    H242868   6.825   0.767  12.316  1.0508 -0.9635  0.2643
 6225TIP3   OH242869   7.104   5.068  10.665  0.3202  0.2924 -0.0509
 6225TIP3    H142870   7.065   5.142  10.711  1.8654  1.0932  0.0444
 6225TIP3    H242871   7.160   5.025  10.730 -0.7381 -1.1230 -0.0379
 6226TIP3   OH242872   7.081   3.712  11.496 -0.4888 -0.2880 -0.1209
 6226TIP3    H142873   6.999   3.679  11.460 -0.5048  0.5843 -0.9376
 6226TIP3    H242874   7.055   3.770  11.567 -0.7289  1.4089 -1.5090
 6227TIP3   OH242875   1.871   4.784  11.600  0.1662 -0.2199 -0.2971
 6227TIP3    H142876   1.914   4.797  11.516 -0.2280 -2.7790 -0.9911
 6227TIP3    H242877   1.940   4.751  11.658  0.3123  0.9946  0.2426
 6228TIP3   OH242878   1.229   1.599  11.019  0.6027  0.2518  0.4131
 6228TIP3    H142879   1.268   1.577  11.103 -0.6829 -1.2193  0.6860
 6228TIP3    H242880   1.193   1.516  10.987 -0.1852  1.0603 -0.9050
 6229TIP3   OH242881   0.843   4.928  13.190 -0.8392 -0.1069 -0.1566
 6229TIP3    H142882   0.929   4.964  13.170 -1.0536  0.7036  0.3217
 6229TIP3    H242883   0.827   4.863  13.122 -0.4389  0.7144 -1.0453
 6230TIP3   OH242884   0.775   2.633  12.286  0.1421  0.7994 -0.4286
 6230TIP3    H142885   0.822   2.555  12.255  2.2302  2.0749 -0.6951
 6230TIP3    H242886   0.804   2.702  12.226  0.3849  2.3041  1.3649
 6231TIP3   OH242887   3.329   2.081  10.281 -0.2173 -0.3555 -0.5906
 6231TIP3    H142888   3.382   2.159  10.297  0.6059 -0.9122 -0.5771
 6231TIP3    H242889   3.299   2.090  10.190 -1.1949  0.5940 -0.2060
 6232TIP3   OH242890   0.979   0.304  10.803 -0.5944 -0.7654 -0.3118
 6232TIP3    H142891   0.889   0.335  10.802 -1.0053 -1.8627  1.0150
 6232TIP3    H242892   0.976   0.216  10.765 -0.1002 -0.8593 -0.1506
 6233TIP3   OH242893   7.477   1.950  12.095  0.2538 -0.1154  0.3677
 6233TIP3    H142894   7.494   1.893  12.169 -0.8303  1.9386  2.3501
 6233TIP3    H242895   7.562   1.990  12.075  0.5361 -0.6048  0.5820
 6234TIP3   OH242896   2.779   2.758  10.824 -0.1113  0.3791 -0.0043
 6234TIP3    H142897   2.851   2.698  10.843 -1.4914 -0.2624  4.5269
 6234TIP3    H242898   2.704   2.701  10.809 -0.6520  0.9931  0.3083
 6235TIP3   OH242899   4.545   5.951  13.145  0.3889 -0.0875  0.3389
 6235TIP3    H142900   4.567   5.971  13.237  1.6425  0.2036 -0.0067
 6235TIP3    H242901   4.477   6.014  13.123 -0.4561 -0.6397  1.2837
 6236TIP3   OH242902   1.726   7.630  12.618 -0.5769 -0.2069 -0.1055
 6236TIP3    H142903   1.812   7.627  12.577 -0.5144 -0.2953  0.0309
 6236TIP3    H242904   1.745   7.638  12.712 -0.7170 -0.4290 -0.0580
 6237TIP3   OH242905   1.121   4.983  13.116  0.8927  0.2404 -0.0093
 6237TIP3    H142906   1.181   4.913  13.094  0.9235  0.3308 -0.2201
 6237TIP3    H242907   1.097   5.021  13.031 -2.7710 -2.4638 -0.4180
 6238TIP3   OH242908   0.529   6.518  12.083  0.0064  1.0335 -0.0704
 6238TIP3    H142909   0.439   6.550  12.079 -0.1862  0.8759  1.8354
 6238TIP3    H242910   0.563   6.552  12.167  1.2577 -0.0386 -0.1042
 6239TIP3   OH242911   4.798   3.785  10.652 -0.5659 -0.5997 -0.0651
 6239TIP3    H142912   4.860   3.720  10.686 -1.5646 -0.4473  2.2286
 6239TIP3    H242913   4.853   3.859  10.627  0.4128 -1.5871 -0.9417
 6240TIP3   OH242914   4.755   0.355  10.781 -0.7455 -0.1510 -0.8597
 6240TIP3    H142915   4.763   0.353  10.877  1.8385 -0.6402 -1.0271
 6240TIP3    H242916   4.708   0.437  10.763  0.8878  1.2289  0.7449
 6241TIP3   OH242917   0.190   1.580  12.759  0.1295  0.2063  0.0160
 6241TIP3    H142918   0.105   1.557  12.720 -0.9339  0.2107  2.1883
 6241TIP3    H242919   0.239   1.498  12.760  0.2676  0.2432 -1.4385
 6242TIP3   OH242920   2.997   3.895  11.796  0.7294  0.0787  0.1626
 6242TIP3    H142921   3.006   3.979  11.749  2.8029  0.7139  1.5388
 6242TIP3    H242922   2.908   3.867  11.778  1.6041 -0.3353 -5.1511
 6243TIP3   OH242923   0.860   0.271  13.085  0.2949  0.1042  0.4195
 6243TIP3    H142924   0.882   0.179  13.069 -0.5833 -0.0210 -0.1098
 6243TIP3    H242925   0.934   0.320  13.048 -1.6683 -0.1382 -4.5672
 6244TIP3   OH242926   3.188   5.983  10.733  0.4400  0.4815 -0.3451
 6244TIP3    H142927   3.207   6.052  10.796 -0.9457  1.7435 -1.2316
 6244TIP3    H242928   3.252   5.997  10.662  1.0134  0.0035  0.0645
 6245TIP3   OH242929   1.791   0.132  11.129  0.2195  0.4959 -0.1689
 6245TIP3    H142930   1.878   0.138  11.089  0.8052  2.2506  1.2682
 6245TIP3    H242931   1.802   0.167  11.217 -1.4752 -1.3436  0.8816
 6246TIP3   OH242932   7.176   5.658  12.037 -0.0099  0.1791  0.7066
 6246TIP3    H142933   7.088   5.690  12.056  0.8094  2.6951  0.7187
 6246TIP3    H242934   7.197   5.601  12.110 -1.2705  0.3079  1.1974
 6247TIP3   OH242935   6.658   2.788  11.535 -0.3602 -0.1366 -0.1480
 6247TIP3    H142936   6.602   2.854  11.576 -0.7114 -0.6065  0.1448
 6247TIP3    H242937   6.713   2.755  11.606 -0.3152 -0.2911 -0.2536
 6248TIP3   OH242938   7.629   6.079  11.619 -0.3431 -0.4165 -0.1008
 6248TIP3    H142939   7.555   6.024  11.591 -1.0397 -0.1220  1.0953
 6248TIP3    H242940   7.588   6.153  11.664  0.6652  0.0791  0.0250
 6249TIP3   OH242941   2.854   0.365  10.879  0.5102  0.2893  0.0316
 6249TIP3    H142942   2.931   0.411  10.913  0.6494  2.3074 -2.7078
 6249TIP3    H242943   2.783   0.428  10.886  0.1350  0.0745 -1.5392
 6250TIP3   OH242944   1.800   5.040  11.770  0.0589  0.6556 -0.2073
 6250TIP3    H142945   1.838   5.046  11.857 -0.6748  2.2043  0.0331
 6250TIP3    H242946   1.798   4.946  11.751  3.1762  0.4341  0.0875
 6251TIP3   OH242947   3.207   6.007  12.619 -0.3010  0.5531  0.0008
 6251TIP3    H142948   3.148   6.042  12.552 -2.1074 -1.7232  0.2893
 6251TIP3    H242949   3.268   6.079  12.637 -2.2974  2.6585 -1.1001
 6252TIP3   OH242950   1.684   0.147  11.592 -0.1493  0.0379  0.0658
 6252TIP3    H142951   1.627   0.151  11.669 -0.1788 -2.4339  0.2576
 6252TIP3    H242952   1.764   0.106  11.625  1.5596  2.7794 -0.3551
 6253TIP3   OH242953   0.600   4.971  12.164  0.1877 -0.1994  0.4298
 6253TIP3    H142954   0.636   4.949  12.250  0.5267  0.0470  0.3527
 6253TIP3    H242955   0.551   4.893  12.137  0.3744 -0.4058  0.6918
 6254TIP3   OH242956   5.459   6.569  11.021  0.0857  0.5813 -0.0524
 6254TIP3    H142957   5.369   6.584  11.048  0.3139  0.5418  0.7549
 6254TIP3    H242958   5.477   6.478  11.045  0.7626  0.9833  1.0791
 6255TIP3   OH242959   0.584   1.743  10.831 -0.4594  0.4149 -0.1084
 6255TIP3    H142960   0.539   1.826  10.817  0.4051  0.8411 -0.4240
 6255TIP3    H242961   0.676   1.762  10.813  0.0077 -0.2003  1.4558
 6256TIP3   OH242962   5.442   3.974  11.659  0.3550 -0.3627 -0.0012
 6256TIP3    H142963   5.417   3.974  11.567 -0.5498 -3.2020  0.1608
 6256TIP3    H242964   5.480   3.888  11.674  3.0746  0.9945  1.6926
 6257TIP3   OH242965   5.872   5.406  11.999 -0.5126  0.7398 -0.1885
 6257TIP3    H142966   5.886   5.475  11.934 -0.1184  0.3269 -0.5512
 6257TIP3    H242967   5.944   5.345  11.985 -1.2181 -0.0880 -0.3204
 6258TIP3   OH242968   0.579   2.391  11.678 -0.1536  0.0097  0.2115
 6258TIP3    H142969   0.645   2.369  11.743  1.2101  1.1833 -0.7316
 6258TIP3    H242970   0.602   2.338  11.601 -0.9323 -0.3373  0.2039
 6259TIP3   OH242971   1.057   4.097  11.297 -0.4266 -0.4256 -0.1773
 6259TIP3    H142972   1.030   4.010  11.268 -1.7856  0.1543 -0.7593
 6259TIP3    H242973   0.986   4.155  11.268  1.3324  1.1798 -1.5146
 6260TIP3   OH242974   6.908   6.041  11.399  0.0984  0.0657  0.7225
 6260TIP3    H142975   6.936   5.958  11.361 -2.5271 -0.4908 -0.2151
 6260TIP3    H242976   6.837   6.018  11.459 -1.3283  1.6725 -0.2573
 6261TIP3   OH242977   3.316   3.316  12.252 -0.6403  0.8611 -0.2099
 6261TIP3    H142978   3.304   3.407  12.276  1.0716  0.2099  4.1623
 6261TIP3    H242979   3.408   3.310  12.227 -0.5868  0.2564  0.1144
 6262TIP3   OH242980   4.359   7.656  11.666  0.2477  0.1721 -0.1068
 6262TIP3    H142981   4.351   7.623  11.576  0.2714  1.3341 -0.5558
 6262TIP3    H242982   4.450   7.683  11.673 -0.4345  2.9392 -0.8028
 6263TIP3   OH242983   3.466   5.411  11.900  0.2176 -1.0469 -0.0854
 6263TIP3    H142984   3.521   5.450  11.832  1.6827 -0.3314  1.4325
 6263TIP3    H242985   3.393   5.372  11.853  1.1308 -0.4927 -2.0459
 6264TIP3   OH242986   6.268   3.958  13.242 -0.3473 -0.5033 -0.4948
 6264TIP3    H142987   6.208   3.991  13.309  0.0775 -2.1624  0.7731
 6264TIP3    H242988   6.216   3.960  13.161 -1.0445  1.0527 -0.0434
 6265TIP3   OH242989   2.388   3.074  11.246 -0.0587 -0.0802  0.1106
 6265TIP3    H142990   2.444   3.138  11.201 -1.9931  1.2678 -0.5024
 6265TIP3    H242991   2.386   3.104  11.337 -0.3705  0.3190 -0.0240
 6266TIP3   OH242992   2.102   5.277  10.288 -0.4720  0.0320 -0.2458
 6266TIP3    H142993   2.062   5.351  10.334 -0.0870 -1.3674  2.6224
 6266TIP3    H242994   2.188   5.268  10.328  0.3645 -0.6546 -2.0942
 6267TIP3   OH242995   4.594   0.314  12.217  0.1835 -0.1880  0.5537
 6267TIP3    H142996   4.551   0.399  12.205  1.3327  0.4602  0.9084
 6267TIP3    H242997   4.650   0.304  12.140  0.6309 -0.2582  0.8835
 6268TIP3   OH242998   1.303   4.734  13.327  0.1659 -0.1634  1.0572
 6268TIP3    H142999   1.258   4.740  13.243  0.9097  2.1949  0.7574
 6268TIP3    H243000   1.301   4.640  13.348  0.8876 -1.0113 -2.0826
 6269TIP3   OH243001   2.477   2.982  13.805 -0.1791  0.3014 -0.1534
 6269TIP3    H143002   2.397   2.945  13.842 -0.8116  1.2733 -0.5027
 6269TIP3    H243003   2.501   2.921  13.735 -0.4604 -0.1377  0.1234
 6270TIP3   OH243004   6.410   0.027  11.511  0.1435  0.1426 -0.3512
 6270TIP3    H143005   6.361  -0.052  11.536 -0.1225 -0.2986 -2.1070
 6270TIP3    H243006   6.354   0.100  11.537 -0.2408 -0.2954  0.0554
 6271TIP3   OH243007   4.864   3.168  12.219  0.0970 -0.1327  0.3951
 6271TIP3    H143008   4.871   3.263  12.208  0.2077 -0.3195 -1.3316
 6271TIP3    H243009   4.950   3.141  12.253  0.8792  0.1311 -1.2786
 6272TIP3   OH243010   1.610   7.058  10.714 -0.0106  0.6745  0.1160
 6272TIP3    H143011   1.580   6.982  10.664 -0.1343 -0.1546  1.4072
 6272TIP3    H243012   1.689   7.028  10.759 -1.6056  0.3324  2.9238
 6273TIP3   OH243013   2.118   2.289  12.676  0.2647 -0.2550 -0.0732
 6273TIP3    H143014   2.081   2.377  12.668 -0.9360 -0.7610 -0.2990
 6273TIP3    H243015   2.132   2.277  12.770  1.1496  0.4503 -0.1054
 6274TIP3   OH243016   7.432   6.538  11.551 -0.3595 -0.7705 -0.0031
 6274TIP3    H143017   7.510   6.519  11.604  0.2561  0.6395 -0.3455
 6274TIP3    H243018   7.455   6.618  11.503 -1.8049 -0.6723 -0.5758
 6275TIP3   OH243019   0.027   6.074  13.254  0.0277  0.1719 -0.0587
 6275TIP3    H143020  -0.062   6.049  13.226  0.3393  0.1357 -1.0557
 6275TIP3    H243021   0.070   6.102  13.173  1.3209 -1.0183  0.1874
 6276TIP3   OH243022   2.053   3.409  12.892 -0.2464 -0.3094 -0.1044
 6276TIP3    H143023   2.114   3.370  12.955  0.9213  2.4462  0.6069
 6276TIP3    H243024   2.107   3.434  12.817 -1.1008 -0.7711 -0.8972
 6277TIP3   OH243025   6.937   3.222  10.737  0.7251 -0.3431  0.5739
 6277TIP3    H143026   7.020   3.210  10.691  3.0312  2.7284  3.4049
 6277TIP3    H243027   6.871   3.218  10.668  3.4632  0.1015 -2.3372
 6278TIP3   OH243028   2.596   6.792  12.786 -0.4366  0.0804 -0.2458
 6278TIP3    H143029   2.621   6.846  12.861 -0.7344 -0.0628 -0.0413
 6278TIP3    H243030   2.537   6.726  12.822  1.9823 -2.0900  0.0712
 6279TIP3   OH243031   1.133   4.430  11.229  0.1150 -0.1221 -0.0913
 6279TIP3    H143032   1.176   4.361  11.180 -0.5003 -1.3486  1.0309
 6279TIP3    H243033   1.201   4.497  11.241  2.0131 -2.2750  2.1978
 6280TIP3   OH243034   0.589   6.245  10.500  0.1387  0.5456 -0.3548
 6280TIP3    H143035   0.636   6.276  10.577  0.7609 -2.5560  0.6535
 6280TIP3    H243036   0.497   6.261  10.520  0.3443  0.5013  0.6926
 6281TIP3   OH243037   3.627   3.207  11.499 -0.4660  0.4131 -0.0155
 6281TIP3    H143038   3.536   3.188  11.479 -0.4654 -1.0621  1.2373
 6281TIP3    H243039   3.623   3.268  11.573 -0.4479  0.1861  0.1749
 6282TIP3   OH243040   4.117   3.163  12.160 -0.0987 -0.0264  0.2096
 6282TIP3    H143041   4.048   3.121  12.212 -0.5104 -0.8861 -0.9782
 6282TIP3    H243042   4.125   3.251  12.198  0.1834 -0.8534  2.2143
 6283TIP3   OH243043   3.232   3.067  12.334  0.2901 -0.1811  0.1274
 6283TIP3    H143044   3.238   3.159  12.306  0.5892 -0.5892 -1.2407
 6283TIP3    H243045   3.308   3.025  12.293  0.5550 -0.9047  1.3293
 6284TIP3   OH243046   4.350   7.228  11.491 -0.7124  0.3190 -0.4588
 6284TIP3    H143047   4.379   7.170  11.420  0.2434  1.9780 -1.4977
 6284TIP3    H243048   4.257   7.242  11.473 -1.3221 -1.9168  0.6109
 6285TIP3   OH243049   4.916   2.516  13.099 -0.1607  0.2311  0.3142
 6285TIP3    H143050   4.847   2.480  13.043  0.2611  0.4959 -0.3971
 6285TIP3    H243051   4.997   2.488  13.056  0.2317 -1.7036  2.1587
 6286TIP3   OH243052   1.302   6.994  12.285  0.0801  0.3079  0.1730
 6286TIP3    H143053   1.333   6.905  12.301 -0.5337  0.1547  0.5414
 6286TIP3    H243054   1.224   7.003  12.339 -1.0747  0.3545 -1.4237
 6287TIP3   OH243055   2.414   5.045  12.017 -0.0618  0.0919 -0.8784
 6287TIP3    H143056   2.380   5.115  11.962 -1.3596  0.0873 -0.1100
 6287TIP3    H243057   2.375   5.060  12.103  1.9815  0.1478  0.1058
 6288TIP3   OH243058   2.442   0.827  13.024  0.1650 -0.8856  0.4098
 6288TIP3    H143059   2.434   0.734  13.001  1.7980 -0.8456 -0.4501
 6288TIP3    H243060   2.495   0.864  12.954 -1.0372  0.8663  0.3839
 6289TIP3   OH243061   6.822   3.073  12.286 -0.1496 -0.0761  0.4437
 6289TIP3    H143062   6.896   3.134  12.286 -0.1959  0.0225 -1.2779
 6289TIP3    H243063   6.747   3.126  12.258  0.1464 -1.1756 -2.8981
 6290TIP3   OH243064   5.906   2.471  12.317 -0.2755 -0.5289 -0.1196
 6290TIP3    H143065   5.986   2.493  12.269 -2.3605  2.2168 -2.7855
 6290TIP3    H243066   5.915   2.516  12.401  0.8447  0.1084 -0.5579
 6291TIP3   OH243067   3.634   3.578  11.449  0.3797 -0.5905  0.1404
 6291TIP3    H143068   3.723   3.570  11.483  0.3576 -1.2592  0.0448
 6291TIP3    H243069   3.636   3.537  11.363 -0.2938 -1.6783  0.6244
 6292TIP3   OH243070   3.508   4.997  11.227  0.0937  0.0313  0.0805
 6292TIP3    H143071   3.442   5.051  11.271 -0.3412  0.5153 -1.1276
 6292TIP3    H243072   3.561   4.962  11.299 -0.6189  0.7441  0.9937
 6293TIP3   OH243073   6.376   5.254  13.011 -0.1673 -0.0296 -0.5622
 6293TIP3    H143074   6.424   5.174  13.034 -0.6610 -0.7074 -1.7741
 6293TIP3    H243075   6.311   5.263  13.080 -0.0231 -0.6069 -0.3409
 6294TIP3   OH243076   2.757   3.396  10.772  0.0599  0.1785  0.0795
 6294TIP3    H143077   2.817   3.441  10.713 -0.9116  0.2549 -0.8934
 6294TIP3    H243078   2.761   3.304  10.745  0.7546 -0.0513  0.9238
 6295TIP3   OH243079   7.272   4.919  10.864  0.1413 -0.0525 -0.7056
 6295TIP3    H143080   7.268   4.842  10.806  0.4896 -1.2268  0.7754
 6295TIP3    H243081   7.236   4.888  10.947 -0.0001  1.5021 -0.1630
 6296TIP3   OH243082   1.894   3.774  12.605  0.3690 -0.7922  0.5625
 6296TIP3    H143083   1.805   3.749  12.628  0.5624 -1.4153  0.6452
 6296TIP3    H243084   1.945   3.694  12.614  1.0602 -0.3051  1.1211
 6297TIP3   OH243085   3.720   3.817  12.870  0.0842 -0.3097  0.0777
 6297TIP3    H143086   3.638   3.855  12.841  0.0342 -0.6870 -0.2816
 6297TIP3    H243087   3.749   3.762  12.797 -0.4351 -1.8902  1.0020
 6298TIP3   OH243088   5.061   4.473  10.663  0.2873 -0.5759 -0.1357
 6298TIP3    H143089   5.123   4.409  10.697  1.0871  1.0246  1.5858
 6298TIP3    H243090   5.104   4.558  10.674 -2.3018  0.6546  1.5524
 6299TIP3   OH243091   2.593   6.817  12.269 -0.3094  0.1847 -0.5324
 6299TIP3    H143092   2.579   6.729  12.234 -1.6992  0.7136 -1.4131
 6299TIP3    H243093   2.564   6.875  12.198  0.4478  1.3461  0.0936
 6300TIP3   OH243094   4.074   1.629  11.819 -0.6906 -0.1001  0.3293
 6300TIP3    H143095   4.048   1.543  11.851 -0.4110 -0.1696  0.3752
 6300TIP3    H243096   4.110   1.613  11.732 -1.9144  0.1535 -0.2451
 6301TIP3   OH243097   3.578   7.216  10.981  0.3436 -0.2244 -0.1139
 6301TIP3    H143098   3.527   7.237  10.903  0.5182  2.0081  0.2804
 6301TIP3    H243099   3.589   7.121  10.979 -0.6815 -0.3491 -2.1417
 6302TIP3   OH243100   2.772   6.227  13.082 -0.2808 -0.2893 -0.2777
 6302TIP3    H143101   2.802   6.307  13.125 -0.4550 -0.3976  0.0478
 6302TIP3    H243102   2.681   6.246  13.057 -0.8451 -0.9422  1.2182
 6303TIP3   OH243103   1.732   2.010  10.609  0.3505 -0.1252 -0.1440
 6303TIP3    H143104   1.775   2.026  10.693 -1.1940  2.1346  0.3020
 6303TIP3    H243105   1.660   1.951  10.630 -0.9864  1.6515  0.4934
 6304TIP3   OH243106   5.951   3.801  12.577 -0.2625 -0.5727  0.3884
 6304TIP3    H143107   5.899   3.721  12.571 -1.2654  0.0242  0.8542
 6304TIP3    H243108   5.929   3.837  12.662  0.0249  0.3050  0.0971
 6305TIP3   OH243109   3.738   3.441  12.664 -0.4592  0.2942  0.1900
 6305TIP3    H143110   3.651   3.411  12.638 -1.4690  0.3217  3.1843
 6305TIP3    H243111   3.784   3.362  12.690 -0.8648  0.6165  1.9692
 6306TIP3   OH243112   7.643   4.346  10.452 -0.3738 -0.1141  0.1082
 6306TIP3    H143113   7.563   4.343  10.401  0.3889  1.1903 -1.2202
 6306TIP3    H243114   7.637   4.428  10.501 -0.1273 -0.3213  0.4916
 6307TIP3   OH243115   2.203   5.903  12.268  0.3516  0.1693 -0.1996
 6307TIP3    H143116   2.289   5.940  12.291  0.0618  0.0664  1.1181
 6307TIP3    H243117   2.154   5.978  12.235  1.5590 -0.1321 -2.9319
 6308TIP3   OH243118   2.035   7.219  11.958 -0.5830 -0.5611  0.3427
 6308TIP3    H143119   1.949   7.245  11.991 -0.6655  1.0039 -1.0030
 6308TIP3    H243120   2.051   7.276  11.883  0.8531 -2.0490 -0.5605
 6309TIP3   OH243121   3.687   4.116  10.902  0.7358  0.2252  0.2652
 6309TIP3    H143122   3.758   4.148  10.846  1.7795 -1.0005  0.8275
 6309TIP3    H243123   3.649   4.195  10.940  0.7310  1.0085 -1.2990
 6310TIP3   OH243124   2.848   3.770  11.490  0.0514  0.1845 -0.6712
 6310TIP3    H143125   2.778   3.835  11.489  0.0796  0.5347  3.5559
 6310TIP3    H243126   2.806   3.689  11.462 -2.3268  0.2783  2.1999
 6311TIP3   OH243127   3.471   0.380  10.925  0.0899  0.1081  0.2678
 6311TIP3    H143128   3.419   0.372  11.005 -1.6239  1.1334 -0.6679
 6311TIP3    H243129   3.557   0.410  10.954  0.6861 -2.8840  2.0104
 6312TIP3   OH243130   5.576   1.102  12.329  0.2799  0.6846 -0.1901
 6312TIP3    H143131   5.575   1.009  12.307 -1.4562  0.5565  0.3057
 6312TIP3    H243132   5.633   1.107  12.406 -0.4637 -0.1648  0.4478
 6313TIP3   OH243133   1.795   2.040  11.840  0.3322  0.1768  0.4030
 6313TIP3    H143134   1.831   1.997  11.763  1.4667 -0.4401  1.2451
 6313TIP3    H243135   1.865   2.097  11.871 -0.4197  1.0876  0.4978
 6314TIP3   OH243136   3.662   0.699  12.688  0.4003  0.1384 -0.1272
 6314TIP3    H143137   3.622   0.614  12.670 -0.4588  0.7357 -1.1824
 6314TIP3    H243138   3.726   0.681  12.757 -0.1037 -1.2659  0.0189
 6315TIP3   OH243139   7.236   5.838  12.631  0.0499 -0.0157 -0.1509
 6315TIP3    H143140   7.273   5.752  12.611 -1.3706 -0.9453  1.0040
 6315TIP3    H243141   7.175   5.822  12.703 -0.0892  2.0125  0.2411
 6316TIP3   OH243142   0.601   1.798  12.819  0.0698 -0.0772  0.2898
 6316TIP3    H143143   0.522   1.746  12.803 -0.4808  0.8190  0.0686
 6316TIP3    H243144   0.633   1.766  12.903 -0.8139 -0.0984  0.6352
 6317TIP3   OH243145   2.516   3.317  13.028  1.3795 -0.0259 -0.1062
 6317TIP3    H143146   2.583   3.248  13.032  1.0458 -0.3924 -0.6683
 6317TIP3    H243147   2.508   3.336  12.934 -1.7456 -2.4046 -0.4770
 6318TIP3   OH243148   0.615   5.098  10.906 -0.1056  0.0467 -0.8194
 6318TIP3    H143149   0.686   5.161  10.892 -0.4755  0.6689 -0.0292
 6318TIP3    H243150   0.557   5.142  10.968 -0.8105 -0.7458 -0.9023
 6319TIP3   OH243151   0.902   0.984  13.370  0.1215 -0.0006  0.9966
 6319TIP3    H143152   0.819   1.014  13.335  1.5224  0.8698 -1.8813
 6319TIP3    H243153   0.885   0.895  13.401 -2.0103  0.4308  1.1647
 6320TIP3   OH243154   3.503   7.544  11.515  0.0272 -0.6672  0.1416
 6320TIP3    H143155   3.476   7.565  11.426 -0.9219 -2.4516 -0.0513
 6320TIP3    H243156   3.598   7.533  11.509  0.2040  0.8497 -0.2531
 6321TIP3   OH243157   2.305   3.566  13.482  0.0002 -0.1298  0.3427
 6321TIP3    H143158   2.215   3.534  13.478 -0.2887  0.4476  1.5490
 6321TIP3    H243159   2.305   3.627  13.556  1.1001  0.8051 -0.3932
 6322TIP3   OH243160   1.204   5.509  11.385 -0.1298  0.1583 -0.1431
 6322TIP3    H143161   1.271   5.538  11.448 -2.2406 -0.5052  2.6309
 6322TIP3    H243162   1.134   5.574  11.395 -0.3173  0.3463 -2.3351
 6323TIP3   OH243163   4.941   1.726  11.335 -0.0729  0.2496  0.2816
 6323TIP3    H143164   4.861   1.719  11.387  0.2533 -1.2888  0.6160
 6323TIP3    H243165   4.988   1.644  11.351 -0.1106 -0.4632 -2.7272
 6324TIP3   OH243166   6.193   0.200  12.987  0.0395 -0.1973  0.4411
 6324TIP3    H143167   6.127   0.256  13.028  1.1023  2.4670 -1.2301
 6324TIP3    H243168   6.144   0.150  12.922 -0.5778  0.9029  0.0181
 6325TIP3   OH243169   6.327   0.044  12.504 -0.3470 -0.2693 -0.2128
 6325TIP3    H143170   6.309   0.010  12.592  0.5953 -1.3013 -0.4004
 6325TIP3    H243171   6.416   0.078  12.509 -0.1437 -0.6982 -0.8765
 6326TIP3   OH243172   2.737   7.589  12.855  0.3184  0.3774 -0.1720
 6326TIP3    H143173   2.728   7.678  12.822  2.2196  1.2417  1.4599
 6326TIP3    H243174   2.806   7.550  12.801  1.3707  0.8302  0.7933
 6327TIP3   OH243175   1.160   3.045  12.495 -0.2900  0.3690 -0.1416
 6327TIP3    H143176   1.079   3.004  12.464 -0.2883 -0.0498  0.4015
 6327TIP3    H243177   1.178   3.113  12.430 -0.5931 -0.1217 -0.7479
 6328TIP3   OH243178   2.369   7.639  11.785  0.0980 -0.7854 -0.0517
 6328TIP3    H143179   2.454   7.656  11.826  0.0462  0.5324 -0.4351
 6328TIP3    H243180   2.356   7.545  11.794  1.1376 -0.8561  0.9047
 6329TIP3   OH243181   7.295   6.845  11.440 -0.0369 -0.3930 -0.1200
 6329TIP3    H143182   7.285   6.786  11.365 -1.9744  1.2226 -1.2429
 6329TIP3    H243183   7.206   6.857  11.473  0.3693  1.4170  0.4280
 6330TIP3   OH243184   4.517   4.741  12.959 -0.4946  0.0860  0.1362
 6330TIP3    H143185   4.487   4.815  13.013 -0.5438  0.0646  0.1381
 6330TIP3    H243186   4.444   4.680  12.960 -1.1348  0.7769 -1.2366
 6331TIP3   OH243187   2.507   0.343  11.269 -0.3652  0.2351 -0.2849
 6331TIP3    H143188   2.452   0.278  11.226 -1.8583  0.7985  0.6810
 6331TIP3    H243189   2.457   0.370  11.346  1.0507  1.1598  0.3651
 6332TIP3   OH243190   7.380   6.736  11.825  0.2091 -0.0088  0.4329
 6332TIP3    H143191   7.330   6.756  11.904  1.4516  0.9714  0.9917
 6332TIP3    H243192   7.454   6.684  11.855  0.4563 -0.0055 -0.1503
 6333TIP3   OH243193   1.589   0.538  12.738  0.1210  0.3256  0.6193
 6333TIP3    H143194   1.653   0.505  12.802 -0.5910 -2.0567  0.2092
 6333TIP3    H243195   1.548   0.459  12.703 -0.3429  1.6216 -1.9602
 6334TIP3   OH243196   3.354   5.481  10.980  0.0936  0.1936  0.2856
 6334TIP3    H143197   3.448   5.500  10.986  0.2433 -0.0694 -0.9973
 6334TIP3    H243198   3.314   5.564  10.954  0.0041  0.2161  0.4894
 6335TIP3   OH243199   1.353   0.348  11.610  0.1709 -0.5748  0.4849
 6335TIP3    H143200   1.325   0.422  11.557  0.8426  0.8773  2.0512
 6335TIP3    H243201   1.284   0.339  11.676  0.4046 -0.9254  0.6837
 6336TIP3   OH243202   2.787   6.160  11.781  0.7793  0.3152  0.2142
 6336TIP3    H143203   2.729   6.086  11.763 -0.2418  1.5829 -2.1301
 6336TIP3    H243204   2.823   6.142  11.868 -1.0141 -1.8777  0.5830
 6337TIP3   OH243205   6.078   6.873  12.364 -0.3752  0.1964 -0.0951
 6337TIP3    H143206   6.144   6.939  12.344  1.7439 -1.4102  1.1389
 6337TIP3    H243207   6.102   6.798  12.309 -1.1672 -0.4486  0.4176
 6338TIP3   OH243208   4.153   0.908  11.818  0.2637  0.2645  0.6811
 6338TIP3    H143209   4.131   0.995  11.853 -0.2897 -0.2243  1.5530
 6338TIP3    H243210   4.230   0.925  11.763 -0.2075  1.4148  0.3315
 6339TIP3   OH243211   2.032   5.328  12.766 -0.0102 -0.3436  0.4473
 6339TIP3    H143212   1.950   5.366  12.733  0.1206 -0.5978 -0.1812
 6339TIP3    H243213   2.009   5.296  12.854 -0.2738  0.6447  0.7540
 6340TIP3   OH243214   1.834   1.738  11.980  0.6497 -0.4498  0.6219
 6340TIP3    H143215   1.759   1.791  11.953  2.0457  1.3684  0.1151
 6340TIP3    H243216   1.803   1.691  12.058 -1.4271 -0.8352 -0.3714
 6341TIP3   OH243217   6.092   7.534  11.168 -0.2392  0.7204  0.0036
 6341TIP3    H143218   6.171   7.527  11.114 -0.6403  0.7414 -0.5943
 6341TIP3    H243219   6.113   7.485  11.248 -0.2768 -0.8536 -0.9100
 6342TIP3   OH243220   7.223   2.725  11.193 -0.3050  0.4069 -0.0313
 6342TIP3    H143221   7.316   2.750  11.194 -0.1472 -0.1573  0.1364
 6342TIP3    H243222   7.207   2.692  11.282 -0.5919  0.2419 -0.1446
 6343TIP3   OH243223   2.776   5.308  12.617 -0.0742 -0.1436  0.2402
 6343TIP3    H143224   2.822   5.342  12.540 -0.0144 -0.2865  0.2135
 6343TIP3    H243225   2.778   5.381  12.679 -1.9619  0.7282 -0.6371
 6344TIP3   OH243226   2.772   6.010  11.055 -0.7712 -0.3091  0.0643
 6344TIP3    H143227   2.847   6.053  11.096 -1.0972  1.5711 -1.1648
 6344TIP3    H243228   2.746   5.942  11.117  0.0511  1.0145  1.9506
 6345TIP3   OH243229   3.616   3.389  11.209  0.1665  0.1398 -0.0042
 6345TIP3    H143230   3.612   3.410  11.115  2.2122  3.5363  0.5119
 6345TIP3    H243231   3.525   3.381  11.236 -0.5057  0.5261 -1.9820
 6346TIP3   OH243232   0.026   6.877  11.744  0.6052  0.1981 -0.1152
 6346TIP3    H143233  -0.017   6.848  11.824  0.2213  0.3262 -0.2726
 6346TIP3    H243234  -0.043   6.919  11.693  0.6499 -0.6113 -0.8825
 6347TIP3   OH243235   5.020   0.413  10.657  0.1589  0.1212 -0.8134
 6347TIP3    H143236   5.008   0.496  10.610  1.5562  1.6520  1.2965
 6347TIP3    H243237   4.936   0.398  10.700  0.5294  1.8288  0.6773
 6348TIP3   OH243238   3.599   3.489  12.231 -0.1485  0.0961  0.1018
 6348TIP3    H143239   3.628   3.559  12.172  0.0520 -0.6453 -0.6985
 6348TIP3    H243240   3.536   3.532  12.290  2.4370  1.7519  1.8565
 6349TIP3   OH243241   6.393   1.328  10.574  0.2631  0.3761  0.3221
 6349TIP3    H143242   6.438   1.369  10.648  0.0725  0.1965  0.5378
 6349TIP3    H243243   6.411   1.387  10.500 -0.1437  0.9347  0.6605
 6350TIP3   OH243244   0.720   5.254  10.386 -0.9094 -0.1581 -0.3733
 6350TIP3    H143245   0.764   5.204  10.454  0.0504  1.8451  0.5672
 6350TIP3    H243246   0.788   5.272  10.321 -1.5811 -1.1962 -1.4227
 6351TIP3   OH243247   0.799   4.670  11.232  0.1416  0.2546 -0.0229
 6351TIP3    H143248   0.832   4.733  11.168  1.6348  0.4895  0.9356
 6351TIP3    H243249   0.762   4.725  11.301  0.9869  0.0796  0.5745
 6352TIP3   OH243250   5.272   1.678  10.679  0.1845 -0.5295 -0.4962
 6352TIP3    H143251   5.268   1.699  10.773 -0.4681 -2.0927 -0.1424
 6352TIP3    H243252   5.353   1.628  10.670  0.2431 -0.3849 -0.7602
 6353TIP3   OH243253   3.593   3.570  12.883  0.0348 -0.7306 -0.0479
 6353TIP3    H143254   3.647   3.527  12.818  0.5841 -0.2851  0.1023
 6353TIP3    H243255   3.655   3.607  12.946 -0.4898 -1.4935  0.9564
 6354TIP3   OH243256   4.476   7.351  12.015  0.2294 -0.6374  0.3964
 6354TIP3    H143257   4.541   7.395  12.069 -1.3164  0.9612  1.0796
 6354TIP3    H243258   4.394   7.395  12.037 -0.8935 -1.7851 -1.2780
 6355TIP3   OH243259   2.443   0.470  13.447 -0.2338  0.0207 -0.2519
 6355TIP3    H143260   2.366   0.525  13.459  0.2177  0.4945  0.5619
 6355TIP3    H243261   2.409   0.387  13.412 -0.8972  0.8610 -1.6840
 6356TIP3   OH243262   5.801   0.272  10.732  0.0464  0.0903  0.2707
 6356TIP3    H143263   5.868   0.294  10.797  1.0484 -0.1777 -0.6391
 6356TIP3    H243264   5.755   0.196  10.769  1.1306 -0.5618  0.3291
 6357TIP3   OH243265   3.813   3.167  11.943  0.3519 -0.2465  0.1260
 6357TIP3    H143266   3.824   3.204  12.031 -2.8373  0.0327  0.5287
 6357TIP3    H243267   3.872   3.218  11.888 -0.4905  2.3490  1.4688
 6358TIP3   OH243268   0.014   6.675  11.537 -0.3184  0.3259 -0.0269
 6358TIP3    H143269   0.056   6.699  11.620  1.3020  0.0864 -0.7257
 6358TIP3    H243270   0.021   6.754  11.483 -0.9006  0.3203 -0.1167
 6359TIP3   OH243271   7.451   5.377  12.775  0.1161 -0.9041 -0.5826
 6359TIP3    H143272   7.515   5.308  12.755 -1.2061 -2.0238 -1.0960
 6359TIP3    H243273   7.466   5.397  12.868  0.3827 -2.0470 -0.3646
 6360TIP3   OH243274   0.009   4.735  11.926 -0.2083 -0.0986 -0.1961
 6360TIP3    H143275  -0.037   4.657  11.955 -1.1962  0.4090 -0.3372
 6360TIP3    H243276  -0.050   4.807  11.949  1.9306  0.9057  2.6107
 6361TIP3   OH243277   1.468   3.043  10.525  0.3173  0.1708  0.3918
 6361TIP3    H143278   1.427   3.109  10.469 -0.8122 -0.2710  0.6514
 6361TIP3    H243279   1.450   3.073  10.614  0.5702 -0.0288  0.5123
 6362TIP3   OH243280   1.745   6.168  11.378 -0.1773 -0.4436 -0.2539
 6362TIP3    H143281   1.707   6.189  11.293 -0.3309  0.1217 -0.0525
 6362TIP3    H243282   1.839   6.158  11.360 -0.2697 -0.7615 -0.5632
 6363TIP3   OH243283   6.628   4.379  11.779 -0.1654  0.3643  0.0460
 6363TIP3    H143284   6.696   4.321  11.744 -0.2008  0.8507 -0.8410
 6363TIP3    H243285   6.553   4.366  11.720 -0.3508  0.9210  0.1556
 6364TIP3   OH243286   2.587   0.606  12.437  0.0387  0.9620 -0.2151
 6364TIP3    H143287   2.668   0.559  12.416  0.7057  0.2394  3.4269
 6364TIP3    H243288   2.531   0.592  12.360  1.0164 -3.9517 -0.3141
 6365TIP3   OH243289   2.503   5.320  11.046 -0.0544 -0.1415  0.5006
 6365TIP3    H143290   2.469   5.398  11.002  0.3882  0.1300  0.6409
 6365TIP3    H243291   2.561   5.279  10.983 -1.6130 -1.3349 -0.2463
 6366TIP3   OH243292   1.991   5.543  11.429  0.2448 -0.2020  0.1651
 6366TIP3    H143293   1.949   5.472  11.477  0.0503  0.6005  1.2236
 6366TIP3    H243294   2.008   5.507  11.342 -3.2000 -0.4080 -0.5681
 6367TIP3   OH243295   0.194   3.110  10.323  0.0786  0.7814 -0.2167
 6367TIP3    H143296   0.224   3.062  10.246 -0.1755  0.7691 -0.3088
 6367TIP3    H243297   0.099   3.095  10.326  0.0724  0.8600  0.0423
 6368TIP3   OH243298   1.680   2.624  10.889  0.1495  0.1244  0.3928
 6368TIP3    H143299   1.716   2.591  10.807  1.0152  0.8091  0.4750
 6368TIP3    H243300   1.753   2.671  10.930  0.4571 -2.1241  2.6830
 6369TIP3   OH243301   2.423   1.574  10.820  0.3326 -0.2992  0.0255
 6369TIP3    H143302   2.449   1.662  10.849  1.5036 -1.3159  2.3936
 6369TIP3    H243303   2.330   1.568  10.840 -0.0476  0.7874 -1.3149
 6370TIP3   OH243304   5.963   6.890  11.839 -0.0004 -0.2307  0.1584
 6370TIP3    H143305   5.967   6.985  11.842  0.4518 -0.2641  2.4073
 6370TIP3    H243306   5.958   6.869  11.746  0.2587  1.9599 -0.4032
 6371TIP3   OH243307   0.896   5.602  13.137  0.3310 -0.1216  0.0421
 6371TIP3    H143308   0.885   5.508  13.122 -0.9940  0.0992 -0.5114
 6371TIP3    H243309   0.895   5.612  13.232  1.5317 -0.7622  0.1427
 6372TIP3   OH243310   0.935   3.284  10.424  0.4196  0.0687  0.0671
 6372TIP3    H143311   0.945   3.360  10.481  1.6387 -0.3573  0.4601
 6372TIP3    H243312   1.025   3.258  10.403  0.0384 -1.5369  0.3205
 6373TIP3   OH243313   5.797   1.718  12.823 -0.1724  0.3752 -0.0342
 6373TIP3    H143314   5.724   1.674  12.867 -0.7180 -0.8519 -2.0643
 6373TIP3    H243315   5.828   1.655  12.759  0.7272  1.9992 -1.2643
 6374TIP3   OH243316   3.596   3.334  11.767  0.2562 -0.1914 -0.0543
 6374TIP3    H143317   3.546   3.344  11.848 -0.2633  1.8770 -0.5759
 6374TIP3    H243318   3.669   3.395  11.775  1.1087 -1.1147 -0.5058
 6375TIP3   OH243319   0.480   7.114  10.615 -0.2828  0.1057 -0.0427
 6375TIP3    H143320   0.398   7.161  10.619 -0.4189  0.0415 -1.5336
 6375TIP3    H243321   0.520   7.126  10.701 -0.5070  2.5643 -0.2225
 6376TIP3   OH243322   3.146   4.429  12.293 -0.0956  0.2972  0.2275
 6376TIP3    H143323   3.158   4.387  12.379  0.2711  0.3952  0.2267
 6376TIP3    H243324   3.119   4.518  12.313 -2.2781 -0.3089  0.2253
 6377TIP3   OH243325   5.300   0.301  11.796 -1.2183 -0.3726  0.4083
 6377TIP3    H143326   5.205   0.309  11.788 -0.9780  1.4849 -1.3425
 6377TIP3    H243327   5.330   0.390  11.813  0.3740 -0.4732 -1.4889
 6378TIP3   OH243328   4.819   4.035  12.320 -0.2932  0.7483 -0.2165
 6378TIP3    H143329   4.888   4.101  12.314 -0.4779  0.9824  0.2036
 6378TIP3    H243330   4.799   4.013  12.228 -0.2604  1.3062 -0.3625
 6379TIP3   OH243331   4.528   5.740  12.299  0.0077  0.0051 -0.0016
 6379TIP3    H143332   4.549   5.828  12.268  0.7677  0.2760  1.2158
 6379TIP3    H243333   4.574   5.732  12.382 -0.8482 -1.1967  0.3838
 6380TIP3   OH243334   4.361   2.902  10.609 -0.2304 -0.1739 -0.0422
 6380TIP3    H143335   4.333   2.964  10.677 -0.1367  2.7923 -2.4978
 6380TIP3    H243336   4.447   2.872  10.638 -0.5299  0.3486  1.4962
 6381TIP3   OH243337   3.713   4.057  11.260  0.0406  0.0724  0.6887
 6381TIP3    H143338   3.782   4.094  11.315  0.7630 -1.3893  0.8091
 6381TIP3    H243339   3.758   4.027  11.181 -0.8071  1.0579 -0.2030
 6382TIP3   OH243340   4.785   2.279  13.305  0.1802  0.3343  0.4944
 6382TIP3    H143341   4.730   2.200  13.311 -0.2654  0.4277 -1.6764
 6382TIP3    H243342   4.872   2.249  13.330 -0.2875 -0.4794  1.2068
 6383TIP3   OH243343   3.284   6.301  12.932 -0.5343  0.4621 -0.2925
 6383TIP3    H143344   3.231   6.262  13.002  0.3599 -0.5469 -0.1491
 6383TIP3    H243345   3.360   6.339  12.976 -1.1013  1.9087 -0.4975
 6384TIP3   OH243346   2.076   2.950  10.952 -0.1253  0.1407 -0.1150
 6384TIP3    H143347   2.085   3.040  10.923  0.1089 -0.0288 -0.5713
 6384TIP3    H243348   2.039   2.957  11.040  2.5383  0.8038  1.0535
 6385TIP3   OH243349   0.446   0.346  12.738 -0.2781 -0.0249 -0.4254
 6385TIP3    H143350   0.456   0.381  12.826 -1.5320  0.2656 -0.3899
 6385TIP3    H243351   0.379   0.278  12.746 -1.4420  0.9562 -1.3889
 6386TIP3   OH243352   3.160   3.044  13.131 -0.9224 -0.2887 -0.3389
 6386TIP3    H143353   3.220   2.969  13.120 -0.7053  0.1431 -2.4338
 6386TIP3    H243354   3.194   3.110  13.071 -2.8344  0.4090 -0.6883
 6387TIP3   OH243355   0.978   0.806  12.092 -0.3579 -0.0091  0.2520
 6387TIP3    H143356   0.945   0.888  12.130 -0.0606 -0.3084  1.1625
 6387TIP3    H243357   1.054   0.833  12.040  0.6588  0.1124  1.7676
 6388TIP3   OH243358   1.596   2.399  11.583  0.6923 -0.0277  0.1897
 6388TIP3    H143359   1.598   2.348  11.664  2.5029  0.6331  0.5995
 6388TIP3    H243360   1.600   2.490  11.611  1.2599  0.2132 -0.6350
 6389TIP3   OH243361   0.401   5.951  11.634  0.3540  0.1427  0.1617
 6389TIP3    H143362   0.438   5.909  11.557 -1.0106  0.0381 -0.4497
 6389TIP3    H243363   0.405   5.884  11.703 -0.7146 -0.6185 -0.4912
 6390TIP3   OH243364   1.170   4.552  11.883 -0.2692 -0.6030  0.0267
 6390TIP3    H143365   1.076   4.546  11.901 -0.2054 -0.2601  0.5179
 6390TIP3    H243366   1.177   4.621  11.817 -0.1633  1.4134  2.0158
 6391TIP3   OH243367   4.772   0.622  12.814  0.0689 -0.1629 -0.3033
 6391TIP3    H143368   4.854   0.577  12.793  0.1551 -0.4922  0.7099
 6391TIP3    H243369   4.792   0.673  12.892 -0.8256 -0.6564  0.2664
 6392TIP3   OH243370   4.258   0.565  11.772 -0.2625 -0.4026  0.1845
 6392TIP3    H143371   4.333   0.528  11.727 -0.3060  1.3181 -1.4236
 6392TIP3    H243372   4.233   0.641  11.720 -2.3818 -0.2088  1.3346
 6393TIP3   OH243373   7.105   7.491  13.087 -0.1013  0.5442  0.2260
 6393TIP3    H143374   7.091   7.549  13.012 -0.0191 -0.8899 -0.9500
 6393TIP3    H243375   7.196   7.504  13.112 -0.2177  1.2638  0.2812
 6394TIP3   OH243376   1.412   0.902  11.489  0.3736 -0.5073  0.4460
 6394TIP3    H143377   1.434   0.810  11.477 -0.8148 -1.3116  3.5480
 6394TIP3    H243378   1.483   0.937  11.542 -0.4532 -0.3539  1.4821
 6395TIP3   OH243379   7.125   4.060  11.843 -0.4435 -0.0303 -0.3822
 6395TIP3    H143380   7.181   4.083  11.768  0.0163  0.2915  0.0497
 6395TIP3    H243381   7.185   4.021  11.906 -0.3172  2.0021  0.8509
 6396TIP3   OH243382   1.622   5.076  16.746  0.5069 -0.2226 -0.4815
 6396TIP3    H143383   1.619   4.997  16.798  0.3859 -0.4563 -0.8401
 6396TIP3    H243384   1.676   5.053  16.670 -1.0324 -0.5434 -1.5353
 6397TIP3   OH243385   7.378   7.004  10.938  0.3880 -0.1974  0.6034
 6397TIP3    H143386   7.285   6.994  10.916  0.6411 -0.8656 -0.2357
 6397TIP3    H243387   7.406   7.080  10.888  0.1834  0.3088  1.2471
 6398TIP3   OH243388   1.223   6.083  12.038  0.2672 -0.2477  0.0954
 6398TIP3    H143389   1.200   6.029  11.963 -0.5692 -0.7363  0.6812
 6398TIP3    H243390   1.182   6.168  12.021 -0.8878 -0.6984  0.4993
 6399TIP3   OH243391   0.456   3.427  10.621 -0.1833 -0.2611 -0.1915
 6399TIP3    H143392   0.416   3.398  10.540 -0.3098  0.5392 -0.4260
 6399TIP3    H243393   0.416   3.374  10.689  0.7694 -1.7672 -0.7567
 6400TIP3   OH243394   4.631   6.448  12.274  0.2667  0.0725 -0.5641
 6400TIP3    H143395   4.693   6.464  12.345  0.9003 -1.0974 -0.8310
 6400TIP3    H243396   4.610   6.355  12.280 -0.4920  0.1860 -1.2582
 6401TIP3   OH243397   3.314   2.396  11.464  0.0747 -0.4017 -0.1524
 6401TIP3    H143398   3.257   2.463  11.427  0.0930 -0.3607 -0.1068
 6401TIP3    H243399   3.296   2.317  11.413  0.3071 -0.2727 -0.4351
 6402TIP3   OH243400   3.807   6.489  12.533 -0.3685  0.0973  0.3096
 6402TIP3    H143401   3.780   6.478  12.624  1.3662 -2.6008  0.6097
 6402TIP3    H243402   3.849   6.575  12.531  1.2506 -0.5404  2.5680
 6403TIP3   OH243403   0.404   3.409  12.028 -0.2786 -0.1371 -0.0148
 6403TIP3    H143404   0.414   3.411  12.123  2.4801  0.7157 -0.2365
 6403TIP3    H243405   0.487   3.374  11.995 -0.5185  1.1115 -2.1566
 6404TIP3   OH243406   5.182   4.711  11.056  0.0154  0.2970 -0.4352
 6404TIP3    H143407   5.229   4.783  11.099  2.0708 -0.5067 -1.2119
 6404TIP3    H243408   5.161   4.745  10.969 -0.0544  0.3580 -0.3947
 6405TIP3   OH243409   4.101   1.464  11.369  0.0501  0.4712  0.1104
 6405TIP3    H143410   4.055   1.533  11.416  0.1780  0.3628  0.3937
 6405TIP3    H243411   4.031   1.411  11.330 -0.0358  1.3711 -0.9999
 6406TIP3   OH243412   3.786   0.079  13.065  0.3639 -0.2047  0.2066
 6406TIP3    H143413   3.783   0.040  13.153  0.3363 -0.7633 -0.0364
 6406TIP3    H243414   3.703   0.052  13.025  0.6314 -0.4339 -0.1933
 6407TIP3   OH243415   0.134   5.957  10.409  0.1006  0.5629 -0.2828
 6407TIP3    H143416   0.178   5.901  10.473 -0.4906  0.8687  0.4095
 6407TIP3    H243417   0.134   5.906  10.328  0.0893 -0.1922  0.1849
 6408TIP3   OH243418   4.720   0.851  12.670  0.4754  1.0009 -0.1517
 6408TIP3    H143419   4.734   0.900  12.751  1.2642  0.8478 -0.1860
 6408TIP3    H243420   4.727   0.759  12.696  2.0566  0.9644 -0.6002
 6409TIP3   OH243421   4.686   3.146  12.426 -0.2973  0.4392  0.3983
 6409TIP3    H143422   4.603   3.168  12.384  0.1911 -1.5917 -1.8641
 6409TIP3    H243423   4.752   3.171  12.361  0.6087 -1.2752  0.6223
 6410TIP3   OH243424   0.653   3.780  10.935 -0.6255  0.4262 -0.1200
 6410TIP3    H143425   0.665   3.837  10.858 -0.0085 -1.4922 -1.5348
 6410TIP3    H243426   0.736   3.734  10.944 -1.4131 -0.9833  0.3222
 6411TIP3   OH243427   2.019   4.101  12.070  0.2065 -0.1106  0.4833
 6411TIP3    H143428   2.002   4.006  12.072  0.0348 -0.0880  0.1549
 6411TIP3    H243429   1.940   4.138  12.031 -1.0007  0.4575  3.2207
 6412TIP3   OH243430   6.848   4.239  11.593 -0.1472  0.7402 -0.0582
 6412TIP3    H143431   6.942   4.255  11.596 -0.0766  0.1939  1.8063
 6412TIP3    H243432   6.836   4.172  11.525  0.7669  1.0174 -0.4948
 6413TIP3   OH243433   6.557   7.553  12.313  0.2889  0.5739  0.3256
 6413TIP3    H143434   6.560   7.648  12.301 -1.7178  0.5655 -0.6942
 6413TIP3    H243435   6.525   7.542  12.403 -0.0280  0.8864  0.2556
 6414TIP3   OH243436   0.118   3.920  12.734  0.9662  0.5322  0.0059
 6414TIP3    H143437   0.042   3.863  12.720  1.0075  0.8072 -1.3912
 6414TIP3    H243438   0.088   3.983  12.799  0.2065  0.2428 -0.0521
 6415TIP3   OH243439   0.011   6.925  11.376  0.2244 -0.6779  0.0665
 6415TIP3    H143440  -0.072   6.960  11.343 -0.2236  0.3608  2.1063
 6415TIP3    H243441   0.066   7.002  11.387  0.2547 -0.9097  1.8646
 6416TIP3   OH243442   4.292   6.563  12.004 -0.3207 -0.2592  1.1914
 6416TIP3    H143443   4.204   6.598  12.013 -0.3249 -0.3530  1.5453
 6416TIP3    H243444   4.347   6.640  11.990 -0.6048 -0.2970 -0.2510
 6417TIP3   OH243445   2.438   2.118  11.694  0.3346 -0.3002 -0.3164
 6417TIP3    H143446   2.533   2.128  11.691  0.4769 -0.5112  2.0313
 6417TIP3    H243447   2.424   2.030  11.729 -0.7637 -0.7656 -1.8451
 6418TIP3   OH243448   5.330   1.498  11.050  0.6340  0.5117  0.3822
 6418TIP3    H143449   5.425   1.506  11.062  0.8406 -1.9681  0.9551
 6418TIP3    H243450   5.299   1.459  11.131 -0.6720  0.0023 -0.3420
 6419TIP3   OH243451   0.192   7.010  12.328 -0.1516  0.1009  0.2189
 6419TIP3    H143452   0.149   6.959  12.396 -1.0146  1.9405  1.0948
 6419TIP3    H243453   0.120   7.045  12.275  0.3822  1.0488  0.1067
 6420TIP3   OH243454   6.218   0.612  11.602 -0.3680 -0.4890 -0.4500
 6420TIP3    H143455   6.237   0.541  11.663 -1.0209 -0.5127 -0.2574
 6420TIP3    H243456   6.279   0.682  11.625  0.9607 -1.3425 -1.3010
 6421TIP3   OH243457   1.012   0.946  10.906  0.0645  0.1791  0.0091
 6421TIP3    H143458   0.954   0.896  10.964 -1.6324  1.3912 -0.5584
 6421TIP3    H243459   1.041   0.882  10.841  0.5466 -0.7762  1.1247
 6422TIP3   OH243460   1.621   5.669  10.464 -0.0266 -0.1186  0.2329
 6422TIP3    H143461   1.666   5.753  10.469  0.5939 -0.4931  1.0062
 6422TIP3    H243462   1.533   5.692  10.433  0.6351  0.6276 -1.1758
 6423TIP3   OH243463   6.243   0.174  11.007 -0.4132  0.3103  0.5706
 6423TIP3    H143464   6.314   0.237  10.995 -0.2771 -0.1281 -1.0803
 6423TIP3    H243465   6.256   0.141  11.097  0.1222  1.8397  1.0856
 6424TIP3   OH243466   5.082   1.651  12.143 -0.2173  0.1561 -0.0792
 6424TIP3    H143467   5.073   1.742  12.169  1.1789  0.7279 -1.4105
 6424TIP3    H243468   5.151   1.617  12.201 -0.8594 -0.1085  0.5332
 6425TIP3   OH243469   3.227   4.755  11.337  0.3176 -0.0856  0.1559
 6425TIP3    H143470   3.140   4.759  11.298 -0.1835  2.2373  1.3435
 6425TIP3    H243471   3.276   4.824  11.293  1.7911 -1.7010 -0.8722
 6426TIP3   OH243472   4.519   2.271  12.330  0.1427 -0.3471  0.9164
 6426TIP3    H143473   4.511   2.184  12.290 -1.1909  0.2099 -0.1334
 6426TIP3    H243474   4.580   2.259  12.403  1.6174 -1.7226 -0.4512
 6427TIP3   OH243475   2.351   4.956  10.545  0.2389 -0.1913 -0.4954
 6427TIP3    H143476   2.340   4.988  10.455 -0.1029  0.7581 -0.1330
 6427TIP3    H243477   2.397   5.027  10.590  2.0612 -1.3917 -0.3520
 6428TIP3   OH243478   1.106   1.576  12.706 -0.2386 -0.6588  0.2845
 6428TIP3    H143479   1.175   1.551  12.767 -0.5246 -4.0283 -0.5385
 6428TIP3    H243480   1.025   1.546  12.749 -0.9139  0.6905  0.0068
 6429TIP3   OH243481   2.461   4.399  12.367  0.2407 -0.0020  0.3057
 6429TIP3    H143482   2.382   4.439  12.330  0.9336  3.3773  2.0646
 6429TIP3    H243483   2.528   4.413  12.300  0.1221  0.3747  0.2603
 6430TIP3   OH243484   6.729   4.255  10.712  0.7410 -1.1330 -0.2134
 6430TIP3    H143485   6.638   4.284  10.723  1.2599  0.0362  1.5304
 6430TIP3    H243486   6.740   4.184  10.774  1.6569  0.4551  1.5693
 6431TIP3   OH243487   1.754   2.126  10.840  0.1058  0.0439 -0.7037
 6431TIP3    H143488   1.839   2.155  10.873  0.1259  0.2386 -0.9281
 6431TIP3    H243489   1.709   2.093  10.918  0.4083 -0.1127 -0.5910
 6432TIP3   OH243490   5.141   7.287  10.770  0.5197  0.4150  0.6769
 6432TIP3    H143491   5.056   7.244  10.762  1.3081 -1.1982  0.6225
 6432TIP3    H243492   5.120   7.379  10.784 -1.2450 -0.0391  1.2268
 6433TIP3   OH243493   0.251   0.418  11.030 -0.0382 -0.7157  0.7583
 6433TIP3    H143494   0.175   0.476  11.039  0.2905 -0.2630  0.6359
 6433TIP3    H243495   0.309   0.463  10.968  0.0074 -1.3996  0.2948
 6434TIP3   OH243496   0.273   4.121  11.740 -0.2955  0.8056  0.1375
 6434TIP3    H143497   0.288   4.199  11.794 -0.3800  1.2415 -0.4642
 6434TIP3    H243498   0.318   4.139  11.658 -0.6125  0.3635 -0.1401
 6435TIP3   OH243499   7.211   4.693  12.092  0.4484 -0.7738  0.0211
 6435TIP3    H143500   7.149   4.689  12.019  0.6433 -2.7722 -0.0829
 6435TIP3    H243501   7.177   4.631  12.156  2.0276 -1.5197  0.1862
 6436TIP3   OH243502   4.216   1.214  13.407  0.0276 -0.2347  0.0305
 6436TIP3    H143503   4.147   1.180  13.351  0.3507  0.7846 -1.0337
 6436TIP3    H243504   4.297   1.179  13.370  0.1274 -0.9660  0.9263
 6437TIP3   OH243505   0.436   4.145  12.263 -0.0212 -0.3709  0.4421
 6437TIP3    H143506   0.437   4.072  12.201 -2.7750  3.0437 -4.2745
 6437TIP3    H243507   0.517   4.193  12.245 -0.3607  0.1100  0.1825
 6438TIP3   OH243508   0.728   4.739  10.851 -0.5509  0.2241 -0.1954
 6438TIP3    H143509   0.674   4.814  10.825  0.6954  1.0245 -0.5278
 6438TIP3    H243510   0.664   4.671  10.873 -1.7054  1.2380 -0.2842
 6439TIP3   OH243511   3.997   3.608  13.462  0.1597  0.5978 -0.0591
 6439TIP3    H143512   3.931   3.657  13.510 -0.3113 -0.1045  0.0290
 6439TIP3    H243513   4.064   3.672  13.440 -1.0760  1.5821 -1.1403
 6440TIP3   OH243514   6.354   7.531  12.962  0.1767  0.6785  0.2556
 6440TIP3    H143515   6.307   7.559  13.041 -0.5097 -0.9091  0.4484
 6440TIP3    H243516   6.414   7.464  12.993 -0.2412 -0.1063 -0.5841
 6441TIP3   OH243517   0.141   6.538  12.379 -0.3274  0.1870  0.1630
 6441TIP3    H143518   0.115   6.476  12.448 -0.9679  0.0261 -0.2189
 6441TIP3    H243519   0.236   6.545  12.389 -0.4207  0.2622  1.1468
 6442TIP3   OH243520   1.019   1.688  10.376  0.4467 -0.3072 -0.1479
 6442TIP3    H143521   0.953   1.744  10.336  2.3609  1.1756 -1.4188
 6442TIP3    H243522   1.051   1.738  10.451  0.5905 -0.7078  0.0602
 6443TIP3   OH243523   0.707   0.520  11.123 -0.0270  0.1110  0.3774
 6443TIP3    H143524   0.649   0.493  11.052 -1.1092  1.3004  0.7675
 6443TIP3    H243525   0.728   0.439  11.169  1.2096 -0.7771 -1.6300
 6444TIP3   OH243526   5.914   1.900  11.416 -0.0055 -0.4271 -0.0719
 6444TIP3    H143527   5.951   1.837  11.478  0.7309  0.0988  0.0282
 6444TIP3    H243528   5.837   1.935  11.460  1.0433  0.6606  0.9858
 6445TIP3   OH243529   3.996   2.164  11.213  0.5195  0.0076  0.4461
 6445TIP3    H143530   3.930   2.099  11.192 -0.8454  1.3258  0.4621
 6445TIP3    H243531   4.011   2.153  11.307 -0.0294 -0.0074  0.5352
 6446TIP3   OH243532   6.043   5.855  12.170  0.4070  0.2292  0.9678
 6446TIP3    H143533   6.070   5.941  12.203 -0.7833  0.9250  0.1994
 6446TIP3    H243534   5.969   5.829  12.225  0.0483  0.2193  0.4869
 6447TIP3   OH243535   7.667   0.898  12.284 -0.2935  0.0069  0.4861
 6447TIP3    H143536   7.690   0.808  12.262 -2.6656 -0.3891 -0.6408
 6447TIP3    H243537   7.643   0.895  12.377 -1.0702 -0.6967  0.2674
 6448TIP3   OH243538   0.623   1.403  10.886  0.3096  0.4387 -0.4563
 6448TIP3    H143539   0.599   1.333  10.946  1.1111  1.1709  0.7506
 6448TIP3    H243540   0.546   1.415  10.830 -1.0275  0.7475  1.3815
 6449TIP3   OH243541   6.974   4.386  10.657  0.1186  0.2711 -0.2297
 6449TIP3    H143542   6.900   4.335  10.623 -0.4301  1.8012 -1.4762
 6449TIP3    H243543   6.937   4.472  10.676  1.3099  0.6564  0.4432
 6450TIP3   OH243544   3.392   4.698  11.076  0.3050 -0.0717 -0.5417
 6450TIP3    H143545   3.361   4.780  11.039 -0.8270  0.1747  0.8404
 6450TIP3    H243546   3.450   4.661  11.009 -1.3553  0.4799 -2.3646
 6451TIP3   OH243547   6.138   6.465  11.658  0.0857 -0.1634  0.4065
 6451TIP3    H143548   6.123   6.428  11.571  0.3733 -1.4792  0.8910
 6451TIP3    H243549   6.119   6.559  11.649  0.3859 -0.2401 -1.1297
 6452TIP3   OH243550   4.345   6.514  12.689  0.0339  0.1696 -0.1795
 6452TIP3    H143551   4.422   6.541  12.640  1.3899  0.7881  2.1370
 6452TIP3    H243552   4.345   6.418  12.684  2.9211 -0.0957  2.4009
 6453TIP3   OH243553   0.810   4.991  11.567 -0.2255  0.2837  0.0392
 6453TIP3    H143554   0.751   5.041  11.623  0.0099  0.8661 -0.2165
 6453TIP3    H243555   0.820   4.907  11.610 -0.9481  0.3188  0.2747
 6454TIP3   OH243556   2.932   4.269  12.238 -0.0805  0.1672  0.2587
 6454TIP3    H143557   2.972   4.205  12.180 -2.2098 -1.2432  0.2609
 6454TIP3    H243558   3.001   4.334  12.253  1.5853 -1.1967 -1.1220
 6455TIP3   OH243559   6.531   1.114  11.248 -0.3586  0.0859 -0.2119
 6455TIP3    H143560   6.550   1.161  11.167 -2.8488  0.5721 -0.5778
 6455TIP3    H243561   6.525   1.022  11.222 -1.1496  0.2407 -0.6076
 6456TIP3   OH243562   0.849   6.775  12.131  0.3699 -0.1123 -0.0583
 6456TIP3    H143563   0.812   6.781  12.042  1.0002  1.7522 -0.2303
 6456TIP3    H243564   0.773   6.766  12.188 -0.2956  1.7280 -0.5720
 6457TIP3   OH243565   5.182   4.417  11.424  0.0533 -0.0771 -0.3654
 6457TIP3    H143566   5.230   4.499  11.435 -0.3138 -0.0867  1.5645
 6457TIP3    H243567   5.092   4.439  11.446 -0.2161 -0.8158 -0.6948
 6458TIP3   OH243568   1.007   2.242  12.787  0.0166  0.5701 -0.8387
 6458TIP3    H143569   0.988   2.149  12.795  0.3987  0.4879 -0.8930
 6458TIP3    H243570   0.945   2.284  12.846  0.7686  0.1909  0.2458
 6459TIP3   OH243571   1.842   2.581  11.323 -0.2703 -0.0348 -0.1171
 6459TIP3    H143572   1.753   2.612  11.309  0.3289  1.1511 -1.5743
 6459TIP3    H243573   1.864   2.533  11.243  0.8935  1.0059 -0.4620
 6460TIP3   OH243574   5.446   0.541  11.762  0.2270 -0.1066 -0.2496
 6460TIP3    H143575   5.536   0.541  11.794 -0.5430 -0.3965  2.1216
 6460TIP3    H243576   5.426   0.633  11.747  0.3146  0.1554  1.1462
 6461TIP3   OH243577   0.803   6.597  10.277  0.6712 -0.7274 -0.2130
 6461TIP3    H143578   0.772   6.660  10.211 -0.1447  1.2126  1.9129
 6461TIP3    H243579   0.862   6.648  10.332  0.5180 -2.0095  1.1830
 6462TIP3   OH243580   4.763   0.083  11.759  0.0551  0.1118  0.4729
 6462TIP3    H143581   4.734  -0.008  11.762  0.0613  0.0935 -0.0401
 6462TIP3    H243582   4.736   0.115  11.673  0.6551  0.3964  0.3885
 6463TIP3   OH243583   5.618   6.655  11.698 -0.2806  0.3291  0.9840
 6463TIP3    H143584   5.574   6.738  11.719 -1.5447 -0.1702  0.4230
 6463TIP3    H243585   5.680   6.678  11.629 -0.6575  0.8091  0.7983
 6464TIP3   OH243586   2.301   3.950  11.824  0.9181 -0.1519 -0.4622
 6464TIP3    H143587   2.264   4.006  11.756 -1.3094 -0.2266  0.5800
 6464TIP3    H243588   2.242   3.874  11.828  0.2338  0.3875  2.2681
 6465TIP3   OH243589   5.278   2.736  13.551  0.0735  0.4296  0.1989
 6465TIP3    H143590   5.219   2.720  13.625 -1.4932 -0.8335 -1.2340
 6465TIP3    H243591   5.220   2.745  13.476  1.6853 -0.6938 -1.2603
 6466TIP3   OH243592   6.345   4.954  13.153 -0.0930  0.4450  0.0057
 6466TIP3    H143593   6.340   4.947  13.057 -0.9518  0.7492  0.0223
 6466TIP3    H243594   6.396   4.878  13.179 -0.2524  0.0977 -0.6615
 6467TIP3   OH243595   7.612   2.983  10.480 -0.3037  0.5130 -0.4264
 6467TIP3    H143596   7.626   2.951  10.569  1.0583 -0.4438 -0.9434
 6467TIP3    H243597   7.573   3.069  10.491 -0.8230  0.1146  1.0807
 6468TIP3   OH243598   0.179   7.541  11.842 -0.0167 -0.3367  0.3927
 6468TIP3    H143599   0.087   7.543  11.865  0.3254 -1.9517  2.1587
 6468TIP3    H243600   0.183   7.493  11.760 -0.6055 -2.7513  1.6743
 6469TIP3   OH243601   6.772   3.779  12.994  0.1664 -0.5529  0.2916
 6469TIP3    H143602   6.706   3.842  13.022  0.9820 -0.2129  1.5154
 6469TIP3    H243603   6.814   3.820  12.919 -0.6895 -0.5774 -0.2213
 6470TIP3   OH243604   7.564   0.990  13.203  0.1483  0.2419  0.3248
 6470TIP3    H143605   7.603   0.968  13.287 -2.0583  0.3293  1.4434
 6470TIP3    H243606   7.477   1.024  13.225 -0.5666  0.0985 -2.0042
 6471TIP3   OH243607   3.326   3.359  13.595 -0.6179  0.9321 -0.3197
 6471TIP3    H143608   3.302   3.311  13.516 -0.7048  2.4830 -1.2826
 6471TIP3    H243609   3.411   3.397  13.574 -0.0687  0.3583  0.8171
 6472TIP3   OH243610   5.753   4.698  11.393 -0.3222  0.1727  0.3697
 6472TIP3    H143611   5.830   4.720  11.340 -1.1713  1.6514 -0.3069
 6472TIP3    H243612   5.780   4.621  11.444  0.5925 -1.2272 -2.0612
 6473TIP3   OH243613   1.782   5.924  11.920  0.4052 -0.1663  0.0082
 6473TIP3    H143614   1.720   5.870  11.872  0.6704  0.2045 -0.7804
 6473TIP3    H243615   1.829   5.973  11.851  1.6333 -0.5145  0.5691
 6474TIP3   OH243616   7.183   4.207  10.745 -0.4801  0.9279 -0.2648
 6474TIP3    H143617   7.143   4.272  10.687  1.4719  1.1470 -1.4450
 6474TIP3    H243618   7.166   4.123  10.702 -0.7279  0.8967 -0.1095
 6475TIP3   OH243619   3.077   4.947  12.223  0.2533  1.0028  0.1051
 6475TIP3    H143620   3.044   5.034  12.204  2.3388  1.7652 -0.3543
 6475TIP3    H243621   3.136   4.928  12.149 -0.6766 -1.0929 -0.1555
 6476TIP3   OH243622   5.930   1.412  12.226 -0.3323  0.1235 -0.1712
 6476TIP3    H143623   5.912   1.319  12.241  0.6766  0.1939  1.7044
 6476TIP3    H243624   5.882   1.457  12.295 -1.0719  1.0565 -1.2561
 6477TIP3   OH243625   3.599   5.608  11.010 -0.0009  0.3459 -0.0615
 6477TIP3    H143626   3.657   5.544  10.967  2.5388  1.7678  1.0263
 6477TIP3    H243627   3.614   5.690  10.963 -1.1589  0.7720  0.2718
 6478TIP3   OH243628   6.934   6.976  11.548 -0.1020 -0.8027  0.7332
 6478TIP3    H143629   6.920   7.025  11.629  0.1942 -0.6851  0.7137
 6478TIP3    H243630   6.984   6.899  11.575 -0.3410 -0.9633  0.7230
 6479TIP3   OH243631   6.475   2.217  11.126 -0.4205 -0.1161 -0.2316
 6479TIP3    H143632   6.555   2.188  11.170  1.0957  3.1915 -0.5026
 6479TIP3    H243633   6.404   2.175  11.175  1.3589 -0.5809  2.1420
 6480TIP3   OH243634   5.077   3.190  10.676  0.2133  0.2503 -0.1165
 6480TIP3    H143635   5.074   3.135  10.754 -0.6245 -0.2806 -0.5037
 6480TIP3    H243636   4.996   3.241  10.680  0.5386  0.7828 -0.2442
 6481TIP3   OH243637   0.900   6.357  11.680 -0.7936  0.0275  0.2875
 6481TIP3    H143638   0.924   6.299  11.752 -0.4468  0.0761  0.2144
 6481TIP3    H243639   0.903   6.445  11.717 -0.1352  0.0939  0.0969
 6482TIP3   OH243640   3.874   2.823  12.686 -0.0962  0.4208 -0.3018
 6482TIP3    H143641   3.909   2.739  12.657  0.4312  0.9127 -1.1294
 6482TIP3    H243642   3.839   2.806  12.773 -0.1544 -0.6936 -0.5345
 6483TIP3   OH243643   2.264   6.603  10.308  0.0931 -0.3408 -0.2953
 6483TIP3    H143644   2.345   6.583  10.260  0.9276  0.4348  0.7316
 6483TIP3    H243645   2.291   6.669  10.372 -1.5408  0.5429 -0.4714
 6484TIP3   OH243646   0.977   2.024  11.389 -0.1332  0.1187 -0.6461
 6484TIP3    H143647   0.919   1.957  11.351 -1.8481  0.9742  0.3439
 6484TIP3    H243648   1.052   2.027  11.330 -1.2071 -0.8628 -2.1236
 6485TIP3   OH243649   2.180   3.386  11.694  0.0347  0.3944  0.1429
 6485TIP3    H143650   2.217   3.331  11.762 -0.4913  1.8043  1.6398
 6485TIP3    H243651   2.255   3.429  11.654  0.4420 -1.2328 -0.9641
 6486TIP3   OH243652   2.539   6.993  12.572  0.1109 -0.0544  0.0153
 6486TIP3    H143653   2.537   6.916  12.629  2.5365  0.8381  1.4786
 6486TIP3    H243654   2.565   7.065  12.630 -0.7000  1.6029 -1.5726
 6487TIP3   OH243655   5.291   0.997  11.774 -0.9609 -0.2673 -0.5220
 6487TIP3    H143656   5.290   0.901  11.776  0.3280 -0.3391 -1.9418
 6487TIP3    H243657   5.282   1.019  11.681 -1.5432  1.0128 -0.1874
 6488TIP3   OH243658   2.633   1.685  11.969  0.6736 -0.4058 -0.0783
 6488TIP3    H143659   2.609   1.697  12.061 -0.5743  1.2122 -0.5595
 6488TIP3    H243660   2.578   1.612  11.940 -0.3749  0.3234  0.0021
 6489TIP3   OH243661   3.972   0.610  12.311 -0.0288 -0.2260 -0.2699
 6489TIP3    H143662   3.897   0.550  12.311 -1.1860  1.1596  0.5279
 6489TIP3    H243663   4.047   0.553  12.328 -1.1011 -1.4607  0.6317
 6490TIP3   OH243664   7.301   6.447  11.903 -0.8363  0.1460 -0.2365
 6490TIP3    H143665   7.343   6.475  11.821 -0.0633 -0.3996 -0.0384
 6490TIP3    H243666   7.236   6.383  11.874 -1.7633  1.2099 -0.5726
 6491TIP3   OH243667   3.520   0.146  11.395 -0.3737 -0.0986 -0.4993
 6491TIP3    H143668   3.575   0.174  11.468  0.8628  1.1174 -1.8212
 6491TIP3    H243669   3.579   0.099  11.337 -0.9106  0.4744 -1.5406
 6492TIP3   OH243670   7.598   3.152  10.920  0.0651 -0.3297  0.3478
 6492TIP3    H143671   7.568   3.076  10.871  0.0632 -1.3430  1.8437
 6492TIP3    H243672   7.659   3.196  10.861  0.9939 -2.1683 -0.1402
 6493TIP3   OH243673   4.489   5.821  11.732  0.0823 -0.0042  0.1705
 6493TIP3    H143674   4.519   5.883  11.665 -0.0602 -0.9251 -0.7576
 6493TIP3    H243675   4.553   5.830  11.803  2.7001 -1.9617 -1.7730
 6494TIP3   OH243676   5.218   6.714  12.423  0.0885 -0.0120  0.0515
 6494TIP3    H143677   5.288   6.663  12.383 -1.2175 -0.8303 -1.3034
 6494TIP3    H243678   5.155   6.728  12.353 -0.2570  2.3370  0.7359
 6495TIP3   OH243679   4.993   5.723  11.104 -0.0755 -0.0139  0.3366
 6495TIP3    H143680   5.042   5.663  11.160 -0.4109  0.9268  1.6923
 6495TIP3    H243681   4.925   5.668  11.064 -0.4345 -0.5485  1.6184
 6496TIP3   OH243682   2.139   4.959  11.901 -0.5038 -0.0870 -0.3126
 6496TIP3    H143683   2.160   4.966  11.808 -2.4926  0.3511 -0.7727
 6496TIP3    H243684   2.184   4.879  11.929 -0.5263 -0.6762 -1.8456
 6497TIP3   OH243685   5.193   3.954  11.428  0.4183  0.0941  0.1867
 6497TIP3    H143686   5.270   3.959  11.370 -0.4297 -0.1748 -1.0138
 6497TIP3    H243687   5.203   3.871  11.474  1.1259  0.3270  0.4813
 6498TIP3   OH243688   6.454   3.422  11.399  0.1903  0.1404 -0.0949
 6498TIP3    H143689   6.360   3.434  11.382  0.2336  1.5065  0.5161
 6498TIP3    H243690   6.498   3.470  11.329  0.4634 -0.5957 -0.4494
 6499TIP3   OH243691   0.364   0.547  12.561  0.0856  0.0332 -0.0005
 6499TIP3    H143692   0.428   0.564  12.492  0.3854  0.0679  0.2845
 6499TIP3    H243693   0.391   0.463  12.598  0.5580  0.5197  0.7791
 6500TIP3   OH243694   3.723   3.566  11.860 -0.0109  0.3540 -0.4508
 6500TIP3    H143695   3.665   3.594  11.789  0.0842  2.0821  0.1055
 6500TIP3    H243696   3.689   3.610  11.938 -1.2080 -2.8714  1.0446
 6501TIP3   OH243697   7.247   2.857  12.261  0.1920 -0.4184  0.1689
 6501TIP3    H143698   7.152   2.845  12.261  0.2123 -0.6740  0.9625
 6501TIP3    H243699   7.268   2.880  12.352  0.8927 -0.3948  0.0076
 6502TIP3   OH243700   3.665   2.151  11.402  0.1694 -0.0224  0.1253
 6502TIP3    H143701   3.654   2.196  11.486 -2.7205  0.5052 -0.4310
 6502TIP3    H243702   3.709   2.068  11.425 -0.7249  0.0210  2.1862
 6503TIP3   OH243703   6.500   5.377  13.329  0.0799  0.3058  0.0983
 6503TIP3    H143704   6.410   5.344  13.324 -0.2063  1.0334  0.3307
 6503TIP3    H243705   6.555   5.299  13.322 -0.5640 -0.1091 -0.4282
 6504TIP3   OH243706   2.854   3.655  12.587 -0.2457  0.0287  0.2852
 6504TIP3    H143707   2.895   3.648  12.501  1.7064 -2.8445  1.3041
 6504TIP3    H243708   2.771   3.608  12.578 -0.7786  1.0649 -0.3740
 6505TIP3   OH243709   3.234   0.263  11.651 -0.4683 -0.9371  0.5608
 6505TIP3    H143710   3.305   0.322  11.626 -1.2422 -0.1510  0.1705
 6505TIP3    H243711   3.276   0.177  11.659  0.5312 -0.4782  0.3901
 6506TIP3   OH243712   4.380   0.309  11.561 -0.0659 -0.3077  0.1041
 6506TIP3    H143713   4.417   0.364  11.630  0.6917 -1.0370  0.2885
 6506TIP3    H243714   4.411   0.348  11.479  2.6315 -1.8759  0.2661
 6507TIP3   OH243715   1.511   5.557  10.757 -0.1141  0.0420 -0.1008
 6507TIP3    H143716   1.537   5.477  10.710  2.0885 -0.0729  1.1600
 6507TIP3    H243717   1.467   5.525  10.836  0.1007  0.0905  0.0393
 6508TIP3   OH243718   1.209   7.438  11.008 -0.5156 -0.6742 -0.2579
 6508TIP3    H143719   1.144   7.508  11.001 -0.1539 -0.4223 -1.1788
 6508TIP3    H243720   1.252   7.436  10.923  0.0372 -1.4795  0.0282
 6509TIP3   OH243721   5.361   1.473  12.157  0.1012 -0.0860 -0.0622
 6509TIP3    H143722   5.448   1.434  12.165 -0.0174 -0.4451 -0.5023
 6509TIP3    H243723   5.308   1.427  12.222 -0.1898 -1.1072 -0.9897
 6510TIP3   OH243724   3.681   4.117  10.539 -0.2283  0.5636  0.1713
 6510TIP3    H143725   3.758   4.154  10.581 -0.2908  2.0999 -0.9744
 6510TIP3    H243726   3.607   4.156  10.585 -0.3419 -0.1513  0.6225
 6511TIP3   OH243727   7.223   0.790  11.925 -0.1400  0.3729  0.2951
 6511TIP3    H143728   7.317   0.783  11.942 -0.4662 -0.5281  2.0106
 6511TIP3    H243729   7.193   0.699  11.920 -1.0245  0.6460  0.4669
 6512TIP3   OH243730   0.518   1.723  10.545 -0.2262  0.0642 -0.1574
 6512TIP3    H143731   0.563   1.714  10.629  0.5500  0.3630 -0.5315
 6512TIP3    H243732   0.435   1.766  10.566 -0.4085 -0.6081  0.5579
 6513TIP3   OH243733   0.147   1.074  12.098 -0.2135 -0.0287  0.1392
 6513TIP3    H143734   0.078   1.022  12.138 -2.1219  2.1837 -0.0668
 6513TIP3    H243735   0.124   1.164  12.119  1.4046  0.9276 -1.8342
 6514TIP3   OH243736   7.203   0.238  12.166  0.2071  0.1879 -0.0472
 6514TIP3    H143737   7.221   0.144  12.156  0.1591  0.2467 -0.7180
 6514TIP3    H243738   7.112   0.241  12.193  0.5769 -0.0129  1.2884
 6515TIP3   OH243739   0.327   1.934  11.089  0.3548  0.2411 -0.3508
 6515TIP3    H143740   0.390   1.937  11.017 -0.6807  0.0054 -1.2957
 6515TIP3    H243741   0.258   1.996  11.063 -0.0306  0.1614  0.4504
 6516TIP3   OH243742   1.065   0.775  10.676  0.1990 -0.7463 -0.1308
 6516TIP3    H143743   1.106   0.694  10.707  1.3974  0.4142  1.4602
 6516TIP3    H243744   1.130   0.814  10.617  1.3515  0.9031  2.0927
 6517TIP3   OH243745   5.382   1.084  13.242 -0.0412 -0.0773 -0.0088
 6517TIP3    H143746   5.473   1.058  13.259 -0.0725  0.2628  0.7074
 6517TIP3    H243747   5.329   1.018  13.287 -0.1533 -0.2032 -0.3211
 6518TIP3   OH243748   0.867   4.365  11.756 -1.0229 -0.4140  0.1128
 6518TIP3    H143749   0.911   4.396  11.677  3.4876  0.3183  2.5768
 6518TIP3    H243750   0.853   4.445  11.808 -1.4597 -1.1546  1.1599
 6519TIP3   OH243751   5.830   2.018  11.185  0.1013 -0.3703  0.0538
 6519TIP3    H143752   5.865   1.955  11.248 -1.4595 -0.4617  0.8584
 6519TIP3    H243753   5.735   2.012  11.194 -0.1601  0.0450 -1.8987
 6520TIP3   OH243754   4.273   5.739  12.198 -0.2881 -0.2109  0.4478
 6520TIP3    H143755   4.275   5.674  12.128 -0.6637 -0.3743  0.5839
 6520TIP3    H243756   4.363   5.741  12.232  0.3405  1.1373 -1.1680
 6521TIP3   OH243757   4.958   6.934  12.165 -0.2418 -0.8205  0.2522
 6521TIP3    H143758   4.940   6.871  12.235 -1.4729 -0.4624  0.2974
 6521TIP3    H243759   4.873   6.948  12.123  0.0351  0.6241  0.1071
 6522TIP3   OH243760   0.954   3.480  10.616  0.3451 -0.0870 -0.3855
 6522TIP3    H143761   0.886   3.464  10.681  0.3338 -0.0735 -0.3945
 6522TIP3    H243762   0.945   3.572  10.592 -0.8087 -0.5304 -1.7334
 6523TIP3   OH243763   5.713   6.103  11.469 -0.1697  0.5389 -0.8540
 6523TIP3    H143764   5.779   6.035  11.468 -0.8905 -0.6995  4.5750
 6523TIP3    H243765   5.761   6.184  11.490  0.0127  0.3047 -0.3500
 6524TIP3   OH243766   3.700   0.228  11.593  0.3784  0.2221 -0.1216
 6524TIP3    H143767   3.789   0.196  11.608  0.2230  0.0413  0.4592
 6524TIP3    H243768   3.707   0.287  11.518  0.4088 -2.4077 -2.3173
 6525TIP3   OH243769   0.738   1.808  12.563 -0.3090  0.0354 -0.2375
 6525TIP3    H143770   0.728   1.843  12.652 -0.0635  0.7369 -0.4782
 6525TIP3    H243771   0.704   1.719  12.568  0.5837 -0.2674  0.7926
 6526TIP3   OH243772   3.230   4.324  11.324  0.4140 -0.4243  0.4744
 6526TIP3    H143773   3.256   4.237  11.294  1.0978  0.4545 -1.6614
 6526TIP3    H243774   3.172   4.357  11.255  1.0703  1.2448  0.6754
 6527TIP3   OH243775   0.607   2.344  12.256 -0.4723  0.0082  0.5836
 6527TIP3    H143776   0.691   2.369  12.219 -0.9236  3.3160  1.4634
 6527TIP3    H243777   0.577   2.271  12.202  2.9325 -1.3591  0.3315
 6528TIP3   OH243778   2.931   4.467  11.766  0.4000 -0.1060 -0.1578
 6528TIP3    H143779   3.026   4.474  11.776  0.2749  2.6078 -0.1440
 6528TIP3    H243780   2.895   4.528  11.830 -1.4365 -1.7971  0.5215
 6529TIP3   OH243781   6.894   2.461  12.867  0.3554  0.0224  0.4487
 6529TIP3    H143782   6.878   2.384  12.812 -0.5385  0.7010 -0.2712
 6529TIP3    H243783   6.880   2.430  12.957 -2.2457 -0.1644  0.0548
 6530TIP3   OH243784   5.373   0.657  12.841  0.1611  0.1157  0.2942
 6530TIP3    H143785   5.423   0.586  12.880  0.6576  0.5173  0.3942
 6530TIP3    H243786   5.375   0.727  12.907  0.2965  0.4934 -0.1073
 6531TIP3   OH243787   3.112   1.382  11.876  0.4184 -0.0994  0.0745
 6531TIP3    H143788   3.204   1.408  11.883  1.1244 -1.9548 -1.4771
 6531TIP3    H243789   3.077   1.436  11.806  0.6380 -0.1518 -0.0771
 6532TIP3   OH243790   4.263   4.824  11.356  0.4080 -0.8910 -0.3243
 6532TIP3    H143791   4.209   4.859  11.285 -0.5453 -0.7996  0.4265
 6532TIP3    H243792   4.222   4.740  11.378  1.0343 -1.1827 -0.2601
 6533TIP3   OH243793   4.165   4.385  11.154  0.3565 -0.2988  0.5760
 6533TIP3    H143794   4.154   4.291  11.149 -0.7713 -0.2056  1.0631
 6533TIP3    H243795   4.181   4.413  11.063 -0.5925 -0.8084  0.2435
 6534TIP3   OH243796   1.596   4.083  12.470 -0.2227 -0.8216  0.4677
 6534TIP3    H143797   1.649   4.145  12.521 -1.3893 -0.5049  1.3439
 6534TIP3    H243798   1.608   4.110  12.379  0.9777 -0.6592  0.6531
 6535TIP3   OH243799   5.289   1.481  12.693 -0.8331 -0.3151  0.2747
 6535TIP3    H143800   5.295   1.524  12.778  1.2139  0.8035 -0.3745
 6535TIP3    H243801   5.195   1.464  12.682 -1.1440 -0.7357  2.8205
 6536TIP3   OH243802   4.842   6.155  13.314  0.5984  0.7276  0.0126
 6536TIP3    H143803   4.876   6.220  13.375  0.0597  2.8306 -1.7890
 6536TIP3    H243804   4.884   6.177  13.230  1.8004 -2.4277 -0.3563
 6537TIP3   OH243805   4.767   7.413  10.623  0.3312 -0.2488  0.0233
 6537TIP3    H143806   4.803   7.439  10.538 -0.7308 -0.4970 -0.5319
 6537TIP3    H243807   4.826   7.451  10.687  1.1447 -0.0268 -0.8264
 6538TIP3   OH243808   7.515   1.774  12.323  0.0214  0.2318 -0.3466
 6538TIP3    H143809   7.610   1.784  12.312  0.5002  0.0900  2.8771
 6538TIP3    H243810   7.503   1.681  12.339 -0.6286  0.3222 -0.3095
 6539TIP3   OH243811   5.498   0.397  12.611 -0.5667 -0.7777 -0.4665
 6539TIP3    H143812   5.511   0.303  12.623 -2.0184 -1.1513 -1.5330
 6539TIP3    H243813   5.586   0.433  12.608  0.0094 -2.0369  0.3958
 6540TIP3   OH243814   6.635   4.167  12.781  0.0710 -0.8012  0.1445
 6540TIP3    H143815   6.676   4.252  12.766  2.1412 -1.8710 -0.7686
 6540TIP3    H243816   6.594   4.145  12.698  0.0619 -0.9454  0.1866
 6541TIP3   OH243817   3.152   5.244  13.012  0.3167  0.1159  0.4651
 6541TIP3    H143818   3.131   5.153  13.033  0.5365  0.2308  1.2130
 6541TIP3    H243819   3.182   5.281  13.095 -1.7910  1.4623  0.7071
 6542TIP3   OH243820   0.287   5.337  11.318  0.7411 -0.0148 -0.4252
 6542TIP3    H143821   0.219   5.405  11.312  0.2062 -0.5861 -0.9825
 6542TIP3    H243822   0.352   5.374  11.378  0.0837  0.6698 -0.1099
 6543TIP3   OH243823   3.628   7.148  12.364  0.3153 -0.2508 -0.0474
 6543TIP3    H143824   3.629   7.243  12.354  0.0388 -0.1591  0.7107
 6543TIP3    H243825   3.702   7.129  12.422  1.5733 -0.7077 -1.7320
 6544TIP3   OH243826   1.805   3.480  11.594  0.4902 -0.5058 -1.1276
 6544TIP3    H143827   1.880   3.527  11.558  1.6382 -2.7901 -1.9406
 6544TIP3    H243828   1.814   3.391  11.559 -0.0145 -2.1109  2.4295
 6545TIP3   OH243829   0.441   0.805  10.572 -0.5237  0.5173 -0.3888
 6545TIP3    H143830   0.414   0.895  10.556  1.7050  1.5311  1.0207
 6545TIP3    H243831   0.532   0.802  10.541  0.0057 -0.7061  1.1476
 6546TIP3   OH243832   1.875   0.080  10.489  0.3347 -0.0467 -0.7740
 6546TIP3    H143833   1.907   0.170  10.496 -0.6078  0.1739  1.8162
 6546TIP3    H243834   1.808   0.073  10.557 -1.2557 -2.0747 -2.4200
 6547TIP3   OH243835   2.794   2.223  12.642  0.0939  0.0810 -0.0933
 6547TIP3    H143836   2.704   2.243  12.617  0.5132  1.9861 -0.2127
 6547TIP3    H243837   2.801   2.251  12.733  0.7754  0.7130 -0.3315
 6548TIP3   OH243838   6.985   1.627  11.146 -0.6833  0.0111  0.4124
 6548TIP3    H143839   7.024   1.653  11.229 -0.8484 -0.7602  0.7372
 6548TIP3    H243840   7.013   1.536  11.133 -0.7231  0.0986 -0.3348
 6549TIP3   OH243841   2.425   6.104  12.279 -0.0857  0.0367 -0.4612
 6549TIP3    H143842   2.508   6.111  12.231 -0.7867  1.0745 -1.5680
 6549TIP3    H243843   2.358   6.095  12.212 -1.0917  1.3886  0.2964
 6550TIP3   OH243844   4.739   1.288  10.692 -0.3544 -0.1883  0.2521
 6550TIP3    H143845   4.772   1.332  10.771 -0.9732  0.2571  0.2670
 6550TIP3    H243846   4.732   1.358  10.627 -1.5672 -0.2104  0.3385
 6551TIP3   OH243847   3.199   6.097  11.400 -0.4384 -0.3294 -0.0132
 6551TIP3    H143848   3.238   6.177  11.364 -2.3861 -0.0823 -1.8025
 6551TIP3    H243849   3.149   6.126  11.476  1.6463 -0.4453  1.4662
 6552TIP3   OH243850   7.045   2.190  13.128  0.3687  0.2074  0.5578
 6552TIP3    H143851   7.049   2.146  13.213  0.9421  0.2199  0.5421
 6552TIP3    H243852   6.974   2.253  13.136  0.4438  0.2286  1.0352
 6553TIP3   OH243853   4.556   1.083  11.850  0.4052 -0.6253  0.2262
 6553TIP3    H143854   4.513   1.007  11.888  0.2027 -1.7917 -2.1160
 6553TIP3    H243855   4.487   1.128  11.801  0.3313  1.6077  2.2098
 6554TIP3   OH243856   6.314   4.791  12.481 -0.0853 -0.0062  0.5275
 6554TIP3    H143857   6.263   4.738  12.420 -0.4757  1.5373 -0.5281
 6554TIP3    H243858   6.347   4.728  12.545 -0.5337 -1.5199 -0.6705
 6555TIP3   OH243859   4.040   4.030  11.833  0.5288 -0.3809 -0.3046
 6555TIP3    H143860   4.069   3.975  11.906  0.7682 -0.4578 -0.4584
 6555TIP3    H243861   4.010   4.111  11.874 -0.6896 -0.9693  0.0164
 6556TIP3   OH243862   5.331   0.723  10.650 -0.0601 -0.1760 -0.3539
 6556TIP3    H143863   5.367   0.639  10.622  0.3577  0.0428 -0.4812
 6556TIP3    H243864   5.273   0.701  10.724  1.3214 -0.3976  0.7013
 6557TIP3   OH243865   0.324   4.365  10.724  0.4157 -0.0993  0.4152
 6557TIP3    H143866   0.285   4.377  10.811 -2.6640 -2.1625 -0.5189
 6557TIP3    H243867   0.349   4.454  10.697  1.7090  0.5964  3.3818
 6558TIP3   OH243868   4.885   5.664  10.836  0.4666  0.6988  0.8652
 6558TIP3    H143869   4.970   5.649  10.794 -0.4773  2.0480 -1.7945
 6558TIP3    H243870   4.856   5.577  10.863  1.7582 -0.0863 -0.1394
 6559TIP3   OH243871   5.967   1.847  12.987 -0.1812 -0.1594 -0.2126
 6559TIP3    H143872   6.028   1.778  12.959  1.2595  1.0386 -0.1402
 6559TIP3    H243873   5.887   1.828  12.938 -0.2428 -2.5429  0.6653
 6560TIP3   OH243874   6.368   5.130  11.747  0.4913  0.1523  0.4076
 6560TIP3    H143875   6.416   5.194  11.693  1.0557  1.1615  2.0449
 6560TIP3    H243876   6.339   5.180  11.823 -0.5162 -1.1887  0.9351
 6561TIP3   OH243877   0.918   1.201  10.938  0.0572  0.4169  0.5891
 6561TIP3    H143878   0.824   1.208  10.955  0.1409  0.8802  0.8662
 6561TIP3    H243879   0.934   1.107  10.933 -0.5283  0.3509 -0.0749
 6562TIP3   OH243880   6.558   6.465  11.158 -0.6097  0.0741  0.1619
 6562TIP3    H143881   6.591   6.410  11.229 -0.6728  0.0554  0.1767
 6562TIP3    H243882   6.512   6.537  11.203 -0.4578  0.1837  0.1442
 6563TIP3   OH243883   6.202   3.424  11.947  0.1595 -0.7951 -0.1840
 6563TIP3    H143884   6.208   3.424  11.851 -0.0053 -0.8783 -0.1945
 6563TIP3    H243885   6.177   3.514  11.969  1.5236 -0.4107 -0.1321
 6564TIP3   OH243886   5.621   3.062  10.574 -0.9550 -0.3740  0.0660
 6564TIP3    H143887   5.556   3.098  10.514 -0.8148  0.5220  0.4359
 6564TIP3    H243888   5.693   3.035  10.518 -0.9399  0.2040 -0.2027
 6565TIP3   OH243889   3.302   5.843  12.057  0.6079 -0.1119 -0.0578
 6565TIP3    H143890   3.345   5.913  12.008  0.5564 -1.0549 -1.5191
 6565TIP3    H243891   3.273   5.884  12.138 -2.2854  2.4763 -2.1762
 6566TIP3   OH243892   0.720   2.691  10.613 -0.6329  0.0243 -0.3868
 6566TIP3    H143893   0.768   2.709  10.694 -1.5250  2.0967 -0.2506
 6566TIP3    H243894   0.633   2.664  10.641 -1.4197  2.1670 -0.5836
 6567TIP3   OH243895   4.534   4.147  11.299  0.4253 -0.4540 -0.0983
 6567TIP3    H143896   4.496   4.066  11.265 -0.6539  0.2974 -0.7605
 6567TIP3    H243897   4.458   4.199  11.328  1.1315  0.0836  0.8704
 6568TIP3   OH243898   7.198   7.535  11.546  0.3720 -0.6551 -0.5436
 6568TIP3    H143899   7.252   7.588  11.488 -0.5869  1.0120  0.0093
 6568TIP3    H243900   7.161   7.467  11.489  0.3706  0.2452 -1.6498
 6569TIP3   OH243901   0.394   0.962  12.309 -0.1621  0.3002  0.2274
 6569TIP3    H143902   0.305   0.964  12.344 -0.1844 -0.5708  0.2383
 6569TIP3    H243903   0.413   0.869  12.297  0.6797  0.4883  0.0517
 6570TIP3   OH243904   7.060   5.312  12.606  0.4565  0.8264 -0.4053
 6570TIP3    H143905   7.005   5.301  12.528  1.5310  1.8377 -1.3376
 6570TIP3    H243906   7.037   5.399  12.639 -0.2065  0.2793  0.5941
 6571TIP3   OH243907   3.018   3.315  13.072  0.4524  0.2431  0.2372
 6571TIP3    H143908   3.102   3.271  13.056  0.6188  0.8129 -0.4988
 6571TIP3    H243909   3.005   3.307  13.167  1.0507 -0.3570  0.2784
 6572TIP3   OH243910   2.509   0.290  11.841  0.9996 -0.3448  0.2140
 6572TIP3    H143911   2.539   0.288  11.750 -1.0429  0.8506 -0.5401
 6572TIP3    H243912   2.511   0.383  11.864  1.6506 -0.6498  1.4856
 6573TIP3   OH243913   4.113   0.860  12.181  0.3860  0.3188  0.1400
 6573TIP3    H143914   4.100   0.807  12.103 -2.2196  0.5652  0.3248
 6573TIP3    H243915   4.103   0.799  12.254 -0.9787  0.7169  0.3160
 6574TIP3   OH243916   5.874   1.419  10.779  0.1483  0.1342 -0.2172
 6574TIP3    H143917   5.959   1.382  10.757 -0.1391 -0.6922 -0.0024
 6574TIP3    H243918   5.812   1.367  10.728 -0.1034  2.0476 -1.9527
 6575TIP3   OH243919   1.569   5.591  11.742 -0.6517  0.3529  0.3422
 6575TIP3    H143920   1.628   5.659  11.710 -0.5744 -0.1391 -0.5938
 6575TIP3    H243921   1.603   5.510  11.705 -1.3813 -0.0538  0.5386
 6576TIP3   OH243922   6.734   6.708  12.254  0.0245 -0.0824  0.3688
 6576TIP3    H143923   6.697   6.656  12.183  0.1756 -0.9100  0.8730
 6576TIP3    H243924   6.826   6.683  12.257  0.1111  0.2517  0.5853
 6577TIP3   OH243925   0.661   0.750  10.861 -0.3518 -0.3161  0.4930
 6577TIP3    H143926   0.750   0.714  10.863 -0.5881 -0.9060  2.1536
 6577TIP3    H243927   0.673   0.842  10.836  0.8516 -0.1226  1.6534
 6578TIP3   OH243928   3.572   2.582  10.843 -0.5860 -0.0797 -0.3827
 6578TIP3    H143929   3.507   2.637  10.797 -0.4094 -0.1711 -0.7490
 6578TIP3    H243930   3.650   2.586  10.788 -0.8002 -1.2927 -0.8239
 6579TIP3   OH243931   4.728   2.907  12.156  0.1025 -0.6686  0.0533
 6579TIP3    H143932   4.638   2.931  12.181 -0.3024  0.3995 -2.1890
 6579TIP3    H243933   4.779   2.985  12.175 -0.0940 -0.0755 -1.7265
 6580TIP3   OH243934   4.881   0.315  12.944  0.2382  0.2304 -0.1129
 6580TIP3    H143935   4.916   0.233  12.981  0.1451  0.4787  0.5400
 6580TIP3    H243936   4.940   0.383  12.976 -0.6040  0.6073  0.6857
 6581TIP3   OH243937   2.262   7.669  12.517 -0.3226  0.1359  0.5824
 6581TIP3    H143938   2.297   7.706  12.436  1.2885  0.4392  1.3610
 6581TIP3    H243939   2.338   7.664  12.575 -1.5313  0.4386  2.2608
 6582TIP3   OH243940   3.910   3.688  11.143 -0.3382  0.3204 -0.4769
 6582TIP3    H143941   3.901   3.762  11.083 -0.2163  0.8753  0.1760
 6582TIP3    H243942   3.880   3.721  11.228 -0.2080 -0.3544 -0.1543
 6583TIP3   OH243943   3.854   3.032  12.912 -0.4956  0.2977  0.0458
 6583TIP3    H143944   3.863   3.102  12.977  0.1404  0.6804 -0.4443
 6583TIP3    H243945   3.782   2.978  12.945  0.5632 -0.1972  1.7042
 6584TIP3   OH243946   1.475   4.895  11.066 -0.5323 -0.3318  0.4065
 6584TIP3    H143947   1.414   4.837  11.113 -0.4745 -0.0601  0.8247
 6584TIP3    H243948   1.547   4.909  11.128 -0.2040 -0.3862  0.0354
 6585TIP3   OH243949   7.098   5.150  12.081 -0.0897 -0.2605 -0.2243
 6585TIP3    H143950   7.067   5.152  11.991 -0.2292  0.3693 -0.1627
 6585TIP3    H243951   7.193   5.163  12.074  0.1569 -1.9084 -0.3899
 6586TIP3   OH243952   6.940   1.910  12.047 -0.6060 -0.1726  0.1586
 6586TIP3    H143953   6.930   1.828  12.096 -1.1718 -0.0903  0.1911
 6586TIP3    H243954   7.035   1.921  12.038 -0.5282 -1.4022 -0.7990
 6587TIP3   OH243955   1.924   1.306  11.803  0.0363  0.0840  0.0974
 6587TIP3    H143956   1.831   1.329  11.793  0.2845  1.8531  1.2982
 6587TIP3    H243957   1.927   1.261  11.887  0.0101 -1.7567 -0.8558
 6588TIP3   OH243958   2.035   3.532  11.370 -0.6073 -0.6783 -0.4178
 6588TIP3    H143959   1.997   3.510  11.285 -0.3580  0.5735 -0.8755
 6588TIP3    H243960   2.085   3.454  11.395 -0.7022 -1.0718 -1.4108
 6589TIP3   OH243961   1.034   4.920  12.388 -0.3850  0.0585 -0.2910
 6589TIP3    H143962   0.998   4.836  12.414  0.6745 -0.5727 -0.7817
 6589TIP3    H243963   1.118   4.926  12.435  1.0844 -0.6517 -2.6602
 6590TIP3   OH243964   0.015   5.026  10.438  0.2207  0.3584  0.3623
 6590TIP3    H143965  -0.069   5.008  10.393  0.4471  0.9743 -0.3330
 6590TIP3    H243966   0.001   5.110  10.482  1.2899  1.8903 -1.9959
 6591TIP3   OH243967   7.130   2.984  11.504  0.1170  0.1454 -0.4144
 6591TIP3    H143968   7.203   2.922  11.504  0.4680  0.4624 -2.8938
 6591TIP3    H243969   7.154   3.051  11.441 -1.5102  1.3077  0.1026
 6592TIP3   OH243970   4.472   7.274  11.113 -0.2659 -0.7390 -0.0806
 6592TIP3    H143971   4.530   7.220  11.060 -0.5485 -0.8706 -0.2629
 6592TIP3    H243972   4.528   7.341  11.151 -0.1066 -0.4802 -0.7606
 6593TIP3   OH243973   2.452   4.710  10.611 -0.2139 -0.0597  0.0938
 6593TIP3    H143974   2.399   4.786  10.589 -0.4973 -0.4274 -0.5382
 6593TIP3    H243975   2.389   4.642  10.633  0.0534  0.2283  1.9162
 6594TIP3   OH243976   3.387   3.440  13.219  0.3525 -0.3115  0.2210
 6594TIP3    H143977   3.322   3.375  13.245 -0.4617 -0.5254 -2.1333
 6594TIP3    H243978   3.447   3.394  13.161  2.1513  0.1135  1.6301
 6595TIP3   OH243979   7.253   2.974  10.616 -0.0594  0.1281 -0.3670
 6595TIP3    H143980   7.277   2.975  10.709 -1.0068  1.7588 -0.0918
 6595TIP3    H243981   7.185   2.908  10.610 -1.3628  1.3180  0.5357
 6596TIP3   OH243982   6.699   3.949  10.508 -0.4544 -0.1127 -0.3045
 6596TIP3    H143983   6.656   4.015  10.454 -1.3231 -0.1389  0.3389
 6596TIP3    H243984   6.631   3.885  10.527 -0.4853  0.4434  1.6978
 6597TIP3   OH243985   5.426   6.863  12.849  0.3664  0.1179 -0.1857
 6597TIP3    H143986   5.344   6.907  12.870 -0.4667 -1.2883 -0.3775
 6597TIP3    H243987   5.431   6.790  12.912  0.9074 -0.4549 -0.8798
 6598TIP3   OH243988   6.291   2.145  12.392 -0.4497  0.2787  0.8127
 6598TIP3    H143989   6.333   2.180  12.313  0.6340 -2.2086  0.1736
 6598TIP3    H243990   6.341   2.183  12.464 -0.6439  1.6117  0.2712
 6599TIP3   OH243991   7.194   4.702  10.663  0.1543  0.1208 -0.6772
 6599TIP3    H143992   7.101   4.679  10.670 -0.0134  1.1812  1.3999
 6599TIP3    H243993   7.239   4.618  10.677 -0.4822 -0.2847 -0.9752
 6600TIP3   OH243994   4.661   1.468  11.080 -0.4791 -0.2309  0.1171
 6600TIP3    H143995   4.619   1.406  11.020 -1.3270 -0.3712  0.8436
 6600TIP3    H243996   4.731   1.417  11.121 -0.4418 -0.3813 -0.1304
 6601TIP3   OH243997   0.806   4.458  12.243 -0.5029  0.0854 -0.2910
 6601TIP3    H143998   0.825   4.431  12.333 -3.1251 -0.6147  0.1387
 6601TIP3    H243999   0.764   4.382  12.204 -1.5982  1.1851 -1.3283
 6602TIP3   OH244000   2.965   4.027  10.944  1.0753 -0.2746  0.5025
 6602TIP3    H144001   3.052   4.065  10.948 -0.1092  2.7998 -0.1239
 6602TIP3    H244002   2.971   3.960  10.875  2.4778  1.3177 -1.0062
 6603TIP3   OH244003   1.799   0.036  13.293 -0.2957  0.3007 -0.3229
 6603TIP3    H144004   1.879   0.014  13.245 -0.7773  0.3308 -1.1468
 6603TIP3    H244005   1.816   0.123  13.329  0.5095 -0.1954  0.5424
 6604TIP3   OH244006   7.404   5.969  10.912 -0.2986  0.4726  0.1056
 6604TIP3    H144007   7.370   6.046  10.866 -0.3814  1.4791  1.7581
 6604TIP3    H244008   7.486   5.999  10.951 -0.1603 -0.3928  0.5107
 6605TIP3   OH244009   1.663   2.984  12.904 -0.0823 -0.0527 -0.2772
 6605TIP3    H144010   1.645   2.914  12.840 -1.3778  0.5746 -0.6384
 6605TIP3    H244011   1.633   3.064  12.861  1.7875  0.8248 -0.0465
 6606TIP3   OH244012   0.030   5.805  11.705 -0.3342  0.0569  0.1898
 6606TIP3    H144013   0.082   5.837  11.779  0.3026 -1.1407  0.2842
 6606TIP3    H244014   0.042   5.871  11.637  0.8801  0.0918  0.4057
 6607TIP3   OH244015   4.873   6.055  11.492  0.6285 -0.3551  0.3968
 6607TIP3    H144016   4.925   6.130  11.521  0.9522  0.0215 -1.0682
 6607TIP3    H244017   4.877   6.059  11.396 -3.0133  0.3825  0.1084
 6608TIP3   OH244018   0.595   1.256  11.748 -0.0602  0.4988  0.2185
 6608TIP3    H144019   0.618   1.342  11.782  0.1461  0.0292  1.3201
 6608TIP3    H244020   0.675   1.204  11.760 -0.5726 -0.1779  0.7483
 6609TIP3   OH244021   1.891   2.341  12.284  0.0740 -0.0366 -0.4435
 6609TIP3    H144022   1.842   2.260  12.273  0.8222 -0.3521 -1.6032
 6609TIP3    H244023   1.875   2.390  12.203  3.0116 -0.9036 -1.6737
 6610TIP3   OH244024   0.179   3.340  16.911 -0.5838  0.4367  0.2807
 6610TIP3    H144025   0.262   3.308  16.947 -1.1450 -2.3287 -0.6762
 6610TIP3    H244026   0.193   3.344  16.817 -0.4524  3.6143  0.3155
 6611TIP3   OH244027   5.256   4.586  12.016 -0.4912  0.0138  0.6503
 6611TIP3    H144028   5.225   4.597  11.926 -1.7289  1.1047  1.1782
 6611TIP3    H244029   5.349   4.606  12.011 -0.3310 -0.9073 -0.5473
 6612TIP3   OH244030   5.922   0.712  10.829 -0.2918 -0.2959  0.1321
 6612TIP3    H144031   5.966   0.639  10.786 -0.6922 -0.0328 -0.7414
 6612TIP3    H244032   5.932   0.785  10.768 -0.0887  0.3270  0.8919
 6613TIP3   OH244033   7.383   1.630  10.699 -0.1524 -0.5578  0.2601
 6613TIP3    H144034   7.395   1.712  10.650 -0.0455 -0.1593  0.9415
 6613TIP3    H244035   7.462   1.622  10.751  0.0342 -1.3359 -0.1442
 6614TIP3   OH244036   2.494   5.086  11.425 -0.2795 -0.0140 -0.1761
 6614TIP3    H144037   2.539   5.019  11.373  1.1780 -0.3260  1.3987
 6614TIP3    H244038   2.421   5.040  11.467 -1.0344  0.0814 -1.3463
 6615TIP3   OH244039   0.898   7.631  11.665 -0.2328  0.0888 -0.8416
 6615TIP3    H144040   0.809   7.655  11.640 -0.5894 -1.1705 -0.8922
 6615TIP3    H244041   0.888   7.546  11.708  0.6290  1.1241  1.5489
 6616TIP3   OH244042   0.554   4.100  11.917 -0.5695  0.1567  0.1161
 6616TIP3    H144043   0.638   4.065  11.886 -0.1669  0.1531  1.1693
 6616TIP3    H244044   0.558   4.193  11.896  0.4147  0.4832  1.6303
 6617TIP3   OH244045   3.566   1.152  12.873  0.0717 -0.1279  0.1857
 6617TIP3    H144046   3.648   1.165  12.825  0.0395  0.7549  0.3508
 6617TIP3    H244047   3.537   1.240  12.895 -1.1556 -0.3972 -0.2465
 6618TIP3   OH244048   1.791   4.682  12.605  0.1718 -0.0106 -0.3931
 6618TIP3    H144049   1.780   4.655  12.513 -0.5889  0.5454 -0.4728
 6618TIP3    H244050   1.847   4.614  12.643 -1.3319 -1.4952 -0.7012
 6619TIP3   OH244051   5.843   7.359  10.820 -0.3850 -0.0946 -0.1162
 6619TIP3    H144052   5.917   7.306  10.848  0.1884  0.4126 -0.6192
 6619TIP3    H244053   5.796   7.304  10.757  1.8789  0.9407 -2.9924
 6620TIP3   OH244054   3.636   1.892  12.246  0.4136  0.0753  0.8860
 6620TIP3    H144055   3.721   1.865  12.212  0.4612  0.4573  0.6997
 6620TIP3    H244056   3.617   1.829  12.316  1.5674  0.9235  2.0095
 6621TIP3   OH244057   2.538   5.525  12.833  0.5691 -0.9699  0.2994
 6621TIP3    H144058   2.461   5.542  12.778 -0.4431 -0.8263  1.6994
 6621TIP3    H244059   2.554   5.432  12.824  1.1454 -0.7606 -1.1238
 6622TIP3   OH244060   1.011   1.178  12.033  0.2281  0.4118 -0.0900
 6622TIP3    H144061   0.930   1.150  12.075  1.8155 -2.3852  1.4197
 6622TIP3    H244062   1.006   1.143  11.944 -0.3629  0.5769 -0.1241
 6623TIP3   OH244063   5.451   7.408  11.925 -0.4488  0.2678 -0.1681
 6623TIP3    H144064   5.464   7.501  11.907  1.9629 -0.0839 -0.5094
 6623TIP3    H244065   5.387   7.379  11.859 -0.2558  1.4017 -0.8705
 6624TIP3   OH244066   4.559   6.332  12.583  0.9096 -0.1696 -0.4499
 6624TIP3    H144067   4.583   6.391  12.654  1.0831 -1.1099  0.2903
 6624TIP3    H244068   4.632   6.270  12.578  0.6746 -0.3996 -1.1284
 6625TIP3   OH244069   5.545   4.322  12.046 -0.6899 -0.3736  0.3387
 6625TIP3    H144070   5.547   4.415  12.069  0.2013 -0.5090  0.8757
 6625TIP3    H244071   5.477   4.315  11.979  0.8118  1.0724 -1.4672
 6626TIP3   OH244072   2.272   0.715  10.797  0.5717  0.3024 -0.0236
 6626TIP3    H144073   2.295   0.627  10.827 -0.3708 -0.2258 -0.7754
 6626TIP3    H244074   2.189   0.734  10.840  0.2438  0.3806 -0.6725
 6627TIP3   OH244075   3.920   3.135  13.733  0.2956 -0.4290  0.0771
 6627TIP3    H144076   3.930   3.114  13.640  0.0467 -0.3899  0.0411
 6627TIP3    H244077   3.826   3.129  13.749  0.2469  0.3754  0.1347
 6628TIP3   OH244078   5.265   3.163  11.949 -0.0998 -0.0406  0.4160
 6628TIP3    H144079   5.313   3.242  11.923 -2.0035  0.8922 -0.4647
 6628TIP3    H244080   5.177   3.195  11.971 -1.4004 -2.0586 -1.5032
 6629TIP3   OH244081   6.517   0.954  11.831  0.5388  0.0904  0.0221
 6629TIP3    H144082   6.475   1.040  11.823  1.3645  0.5289  0.2770
 6629TIP3    H244083   6.534   0.944  11.924  1.6631  0.2599 -0.1467
 6630TIP3   OH244084   5.227   2.392  12.163 -0.2350 -0.2868 -0.4218
 6630TIP3    H144085   5.241   2.304  12.127  1.3204 -0.5244  0.6930
 6630TIP3    H244086   5.190   2.442  12.089 -0.2162 -1.6050 -1.3599
 6631TIP3   OH244087   5.352   2.438  10.548  0.0254 -0.0283  0.3851
 6631TIP3    H144088   5.427   2.403  10.595 -0.1707  0.3497  0.9788
 6631TIP3    H244089   5.384   2.519  10.508 -0.4232  0.8716  1.7808
 6632TIP3   OH244090   4.092   4.141  10.829 -0.1247 -0.3743 -0.3626
 6632TIP3    H144091   4.069   4.146  10.922  0.2102  0.8196 -0.3200
 6632TIP3    H244092   4.188   4.137  10.829 -0.0477  0.9951 -0.6667
 6633TIP3   OH244093   3.129   0.947  12.021 -0.3469 -0.0751  0.2727
 6633TIP3    H144094   3.091   0.977  12.104  1.0112 -0.2862  1.0030
 6633TIP3    H244095   3.096   1.008  11.955  0.0179  1.2461  1.2711
 6634TIP3   OH244096   4.591   6.579  13.067 -0.4385 -0.0638  0.0318
 6634TIP3    H144097   4.589   6.520  13.142  3.0602 -0.9407 -0.3632
 6634TIP3    H244098   4.661   6.641  13.088 -1.6242  1.7565 -1.1225
 6635TIP3   OH244099   0.921   6.088  12.267 -0.4726  0.5691 -0.3761
 6635TIP3    H144100   0.928   6.015  12.329  0.5072  0.8646 -0.1293
 6635TIP3    H244101   0.907   6.046  12.182  1.8982 -0.0124 -0.5362
 6636TIP3   OH244102   0.062   6.952  12.558  0.3832 -0.6373  0.1208
 6636TIP3    H144103   0.143   6.934  12.605  0.7542  0.7657  0.0455
 6636TIP3    H244104   0.018   7.018  12.610 -0.2239 -0.6306 -0.3917
 6637TIP3   OH244105   0.242   3.151  12.605 -0.3358 -0.7246 -0.1853
 6637TIP3    H144106   0.166   3.208  12.594 -1.5988 -1.5646  3.0862
 6637TIP3    H244107   0.281   3.178  12.688  1.6763 -1.7629 -0.7203
 6638TIP3   OH244108   0.451   7.313  11.038  0.1127 -0.3126 -0.3462
 6638TIP3    H144109   0.457   7.377  10.967 -1.6744  0.7967  0.4276
 6638TIP3    H244110   0.508   7.348  11.107 -1.0011  0.5836  0.1455
 6639TIP3   OH244111   2.301   6.187  12.909 -0.4252 -0.8388  0.4457
 6639TIP3    H144112   2.258   6.220  12.830  1.4975 -0.1099 -0.3530
 6639TIP3    H244113   2.231   6.143  12.958 -2.2352  1.0264 -0.3443
 6640TIP3   OH244114   2.390   2.271  13.044 -0.2267  0.4615  0.5652
 6640TIP3    H144115   2.475   2.311  13.061 -0.2235 -0.3801  2.8539
 6640TIP3    H244116   2.359   2.244  13.130 -1.9671 -0.9316 -0.4437
 6641TIP3   OH244117   4.956   6.683  12.289 -0.0229 -0.2554 -0.1048
 6641TIP3    H144118   4.908   6.647  12.363  1.4316 -0.4117  0.8237
 6641TIP3    H244119   4.956   6.614  12.223 -1.0723 -0.2293 -0.1485
 6642TIP3   OH244120   7.367   4.364  11.840 -0.7049  0.6623  0.1426
 6642TIP3    H144121   7.387   4.408  11.757  1.3282  2.2297  1.3907
 6642TIP3    H244122   7.397   4.274  11.827 -0.6250  0.8199 -0.8764
 6643TIP3   OH244123   7.439   2.974  11.631 -0.1249  0.4797 -0.1482
 6643TIP3    H144124   7.509   3.037  11.649 -0.1887  0.1987  1.2139
 6643TIP3    H244125   7.438   2.965  11.536  1.2252  1.0165 -0.2298
 6644TIP3   OH244126   0.488   4.212  12.596  0.0924  0.2009  0.2069
 6644TIP3    H144127   0.470   4.303  12.619 -2.5932 -0.4901  1.2605
 6644TIP3    H244128   0.579   4.211  12.568  0.8822  2.8126  2.3132
 6645TIP3   OH244129   0.370   6.562  13.160  0.1723 -0.2678  0.1952
 6645TIP3    H144130   0.337   6.649  13.138 -1.2161 -0.6753  0.5338
 6645TIP3    H244131   0.464   6.567  13.143  0.2400  1.4872  0.8509
 6646TIP3   OH244132   1.872   0.562  10.932 -0.0069 -0.0968  0.0590
 6646TIP3    H144133   1.783   0.593  10.915 -0.1111 -0.0806  0.6187
 6646TIP3    H244134   1.928   0.630  10.895 -0.2237  1.4319  2.3119
 6647TIP3   OH244135   3.646   5.007  12.558  0.3955  0.5906 -0.4846
 6647TIP3    H144136   3.569   4.951  12.562  0.9109 -0.3961 -2.8044
 6647TIP3    H244137   3.611   5.096  12.552 -0.4533  0.4312  1.2604
 6648TIP3   OH244138   2.491   3.794  10.733  0.5471 -0.6075  0.4085
 6648TIP3    H144139   2.490   3.883  10.698 -0.7988 -0.2376  1.2997
 6648TIP3    H244140   2.582   3.766  10.726  0.9730  0.8079  0.0272
 6649TIP3   OH244141   7.030   3.262  12.381 -0.2848 -0.6261 -0.5146
 6649TIP3    H144142   7.028   3.351  12.418  1.0498 -0.9671  0.4163
 6649TIP3    H244143   7.073   3.273  12.296  0.4987 -0.4814 -0.1020
 6650TIP3   OH244144   0.338   1.221  11.441 -0.4896  0.0546 -0.2499
 6650TIP3    H144145   0.384   1.146  11.478  0.1829  0.7377  0.3258
 6650TIP3    H244146   0.367   1.225  11.350 -2.8399 -2.1778 -1.2102
 6651TIP3   OH244147   5.900   3.743  11.146 -0.1845  0.3213  0.1218
 6651TIP3    H144148   5.935   3.726  11.059 -0.3939 -0.7006  0.2313
 6651TIP3    H244149   5.921   3.835  11.163 -0.2696  0.5682 -1.0585
 6652TIP3   OH244150   1.484   6.021  12.608  0.4755  0.4584  0.3487
 6652TIP3    H144151   1.539   5.944  12.593  0.5495  0.6321 -0.2952
 6652TIP3    H244152   1.425   5.995  12.679  0.8038 -0.0322  0.4459
 6653TIP3   OH244153   2.458   6.232  13.140  0.1845  0.5944 -0.0854
 6653TIP3    H144154   2.491   6.321  13.124  0.1622  0.4162 -1.2080
 6653TIP3    H244155   2.394   6.218  13.070  0.5951 -0.5089 -0.2543
 6654TIP3   OH244156   5.656   4.657  12.415  0.2481 -0.0586 -0.1608
 6654TIP3    H144157   5.592   4.638  12.484  1.2805 -1.9526  0.3157
 6654TIP3    H244158   5.701   4.736  12.446 -0.4446  0.1019  0.4783
 6655TIP3   OH244159   5.234   2.691  11.259  0.0413  0.6559  0.2751
 6655TIP3    H144160   5.170   2.730  11.200 -1.6307 -1.0078  0.8977
 6655TIP3    H244161   5.319   2.715  11.222 -0.8049  4.6232  0.4827
 6656TIP3   OH244162   3.082   2.165  11.962 -0.4236 -0.1043 -0.1502
 6656TIP3    H144163   3.063   2.083  12.006  0.6555 -0.5623 -0.4956
 6656TIP3    H244164   3.165   2.149  11.917 -1.0910  0.5777 -1.7195
 6657TIP3   OH244165   0.204   7.111  12.967  0.1304  0.8649 -0.3019
 6657TIP3    H144166   0.198   7.153  13.053  0.8164 -0.5169  0.4481
 6657TIP3    H244167   0.293   7.131  12.937  1.0503 -1.2803  0.7752
 6658TIP3   OH244168   7.467   0.812  12.501  0.0612 -0.1665  0.2075
 6658TIP3    H144169   7.425   0.726  12.492  0.9013 -0.6736  1.0173
 6658TIP3    H244170   7.554   0.793  12.535  1.9892  0.6289 -3.6561
 6659TIP3   OH244171   1.753   6.913  12.651 -0.0757 -0.1839  0.5031
 6659TIP3    H144172   1.750   6.887  12.743 -2.9662 -3.1692 -0.2182
 6659TIP3    H244173   1.828   6.865  12.616 -0.6487 -1.3551  0.8091
 6660TIP3   OH244174   3.423   6.072  11.633 -0.2476  0.1101  0.0009
 6660TIP3    H144175   3.461   6.042  11.550  0.8849  0.7018  0.2836
 6660TIP3    H244176   3.329   6.079  11.616  0.0714  1.1431 -1.5183
 6661TIP3   OH244177   5.483   4.924  11.208 -0.8161  0.3710 -0.2213
 6661TIP3    H144178   5.539   4.941  11.284 -2.5092  2.0645  0.7250
 6661TIP3    H244179   5.528   4.966  11.135  1.0329 -1.6171 -0.3144
 6662TIP3   OH244180   7.364   3.738  11.829 -0.6184  0.2485 -0.1662
 6662TIP3    H144181   7.452   3.774  11.844 -0.6185  0.5010 -0.7444
 6662TIP3    H244182   7.359   3.662  11.887 -0.3529  0.7609  0.5387
 6663TIP3   OH244183   7.000   1.952  12.980 -0.3319  0.1620  0.4224
 6663TIP3    H144184   7.067   1.887  13.002 -0.0084  0.3449 -0.0163
 6663TIP3    H244185   7.027   2.031  13.027  0.6116  0.6891 -0.9630
 6664TIP3   OH244186   4.786   6.507  12.501  0.3162  0.1473  0.2773
 6664TIP3    H144187   4.694   6.485  12.514  0.4923 -0.8754 -0.0852
 6664TIP3    H244188   4.800   6.586  12.553 -1.0398  0.9681 -0.5404
 6665TIP3   OH244189   3.791   7.263  11.503 -0.1685  0.1700 -0.0733
 6665TIP3    H144190   3.790   7.224  11.416 -0.3779 -1.3610  0.5737
 6665TIP3    H244191   3.806   7.356  11.488  1.8715 -0.3479 -1.6261
 6666TIP3   OH244192   1.612   5.782  11.270 -0.3954 -0.0476 -0.4396
 6666TIP3    H144193   1.596   5.854  11.332  1.2464 -1.4568  1.7647
 6666TIP3    H244194   1.572   5.706  11.312  3.3616 -1.6800  0.5589
 6667TIP3   OH244195   6.242   6.154  10.635 -0.1492 -0.2529 -0.1169
 6667TIP3    H144196   6.330   6.190  10.630 -0.0834 -0.5600 -1.2258
 6667TIP3    H244197   6.255   6.061  10.653 -0.2031 -0.5519 -1.5652
 6668TIP3   OH244198   0.392   3.746  11.489 -0.5428  0.1976  0.1190
 6668TIP3    H144199   0.445   3.820  11.518  1.8099 -1.8029  1.2933
 6668TIP3    H244200   0.327   3.734  11.559 -0.6360  0.8526  0.1481
 6669TIP3   OH244201   0.121   2.417  10.493  0.4274  0.2071  0.7302
 6669TIP3    H144202   0.181   2.491  10.505  0.5699  0.2901 -0.3923
 6669TIP3    H244203   0.035   2.458  10.483  0.7186  0.3688 -1.5388
 6670TIP3   OH244204   1.896   2.522  11.822 -0.1190  0.0994 -1.1839
 6670TIP3    H144205   1.890   2.575  11.742 -0.2951  0.4634 -0.9307
 6670TIP3    H244206   1.988   2.497  11.827  0.2032  1.3416 -0.6923
 6671TIP3   OH244207   7.635   4.890  11.175 -0.2024  0.0751  0.3190
 6671TIP3    H144208   7.689   4.841  11.237 -0.3055  0.9882  1.1700
 6671TIP3    H244209   7.569   4.934  11.230 -0.2248  1.0041 -0.4193
 6672TIP3   OH244210   5.972   2.720  11.729 -0.2297 -0.0177 -0.0074
 6672TIP3    H144211   5.964   2.693  11.820 -1.0747 -2.3038 -0.6926
 6672TIP3    H244212   5.890   2.767  11.711 -0.2098  0.1381  0.2947
 6673TIP3   OH244213   0.836   5.443  12.715 -0.3764  0.3302 -0.1250
 6673TIP3    H144214   0.885   5.524  12.728  0.1056  0.2926 -1.5362
 6673TIP3    H244215   0.767   5.466  12.653  0.1662 -0.4504 -1.0595
 6674TIP3   OH244216   7.555   3.099  12.341 -0.0744  0.1991 -0.0688
 6674TIP3    H144217   7.571   3.018  12.391  2.6391  0.3254 -0.6099
 6674TIP3    H244218   7.487   3.074  12.278 -0.1016 -1.3244  0.5080
 6675TIP3   OH244219   5.216   1.921  11.617 -0.4240  0.2171 -0.4183
 6675TIP3    H144220   5.200   2.009  11.583  0.3981  0.5477  0.0262
 6675TIP3    H244221   5.129   1.887  11.636 -0.7664  0.8294 -0.8488
 6676TIP3   OH244222   3.705   3.027  11.706  0.4395  0.1481  0.2192
 6676TIP3    H144223   3.702   3.070  11.620  2.6761 -0.2559 -0.1356
 6676TIP3    H244224   3.714   3.098  11.769  0.7787  0.3796 -0.0822
 6677TIP3   OH244225   1.280   5.413  12.570  0.7451  0.4118 -0.1246
 6677TIP3    H144226   1.226   5.485  12.600  0.0474 -0.6679  1.3426
 6677TIP3    H244227   1.319   5.377  12.650 -1.0891 -2.5022 -0.3826
 6678TIP3   OH244228   5.415   2.864  13.352  0.2020 -0.0654  0.2205
 6678TIP3    H144229   5.435   2.957  13.359 -1.1882  0.3404 -0.7147
 6678TIP3    H244230   5.397   2.836  13.442  2.0451  0.1868  0.7082
 6679TIP3   OH244231   3.920   5.507  12.361 -0.5082 -0.5905  0.2651
 6679TIP3    H144232   3.940   5.600  12.375  0.2180 -0.8325  0.9145
 6679TIP3    H244233   3.972   5.483  12.284 -1.9496 -0.0757 -0.9126
 6680TIP3   OH244234   2.118   1.891  10.961 -0.5633  0.1165 -0.4525
 6680TIP3    H144235   2.063   1.844  10.897  1.1598 -1.5566 -0.7826
 6680TIP3    H244236   2.207   1.880  10.928  0.2630  0.1573  1.6708
 6681TIP3   OH244237   7.197   4.393  11.010  0.1724  0.3362 -0.7698
 6681TIP3    H144238   7.267   4.419  11.070  0.1147 -0.7053 -0.2217
 6681TIP3    H244239   7.241   4.381  10.926  0.1302  2.5197 -1.1622
 6682TIP3   OH244240   6.389   0.350  12.279 -0.2038 -0.0819  0.5817
 6682TIP3    H144241   6.317   0.412  12.268 -0.4882 -0.6591 -1.0167
 6682TIP3    H244242   6.436   0.382  12.356 -1.9103  0.5404  1.4143
 6683TIP3   OH244243   1.207   5.995  11.146 -0.5644 -0.2487 -0.2284
 6683TIP3    H144244   1.135   5.944  11.184 -1.0935 -0.5772 -1.6033
 6683TIP3    H244245   1.174   6.024  11.061  1.2211 -1.1680 -1.3163
 6684TIP3   OH244246   6.184   2.656  11.221 -0.8338  0.5039 -0.0329
 6684TIP3    H144247   6.259   2.713  11.236  0.1333 -0.4801 -0.9690
 6684TIP3    H244248   6.125   2.675  11.294  0.0056  1.7976  0.3403
 6685TIP3   OH244249   6.709   2.612  11.749 -0.3096 -0.2833 -0.2639
 6685TIP3    H144250   6.644   2.562  11.798 -0.1805  0.6579  0.9149
 6685TIP3    H244251   6.745   2.549  11.685 -2.0672 -0.9119 -0.6763
 6686TIP3   OH244252   7.079   1.771  12.730 -0.2211 -0.0294 -0.0153
 6686TIP3    H144253   7.090   1.832  12.657 -1.4432  2.3983  1.7303
 6686TIP3    H244254   7.167   1.758  12.764 -0.0025  1.1362 -0.1192
 6687TIP3   OH244255   6.029   7.535  10.710 -0.0090 -0.5102 -0.3536
 6687TIP3    H144256   5.954   7.484  10.742 -0.4699  0.1756 -0.3340
 6687TIP3    H244257   6.035   7.609  10.770 -0.2161  0.2123 -1.2023
 6688TIP3   OH244258   3.383   1.197  10.475 -0.5450 -0.2687 -0.3348
 6688TIP3    H144259   3.337   1.222  10.395  1.3780  3.0414 -0.6290
 6688TIP3    H244260   3.381   1.276  10.530  1.5494 -1.1359  1.1634
 6689TIP3   OH244261   7.173   4.823  11.089  0.2080 -0.2063  0.1103
 6689TIP3    H144262   7.110   4.758  11.123  2.3760 -1.3735  2.2366
 6689TIP3    H244263   7.123   4.904  11.083 -2.0386 -1.5495 -0.4636
 6690TIP3   OH244264   0.179   7.035  10.666  0.0404 -0.5166  0.2240
 6690TIP3    H144265   0.272   7.023  10.647 -0.0449 -0.5708 -0.1614
 6690TIP3    H244266   0.165   7.129  10.659  0.3985 -0.3080  1.8354
 6691TIP3   OH244267   1.980   4.574  10.348  0.0609  0.4713  0.0642
 6691TIP3    H144268   1.915   4.642  10.364  1.6534  1.6228  2.0640
 6691TIP3    H244269   1.939   4.494  10.381 -0.9888  0.8106 -0.3492
 6692TIP3   OH244270   5.845   4.701  11.899  0.4146 -0.4690 -0.6518
 6692TIP3    H144271   5.831   4.795  11.889 -0.3579 -0.5866 -0.7051
 6692TIP3    H244272   5.819   4.682  11.989 -0.1091 -0.7518 -0.8594
 6693TIP3   OH244273   6.360   5.314  11.955 -0.3908 -0.0658  0.9505
 6693TIP3    H144274   6.350   5.375  11.882  0.9871 -1.9598 -0.9308
 6693TIP3    H244275   6.423   5.355  12.013  0.3487  0.4285 -0.1729
 6694TIP3   OH244276   0.694   6.686  11.863  0.0845 -1.0542  0.1506
 6694TIP3    H144277   0.633   6.732  11.806  0.3300  2.0137  2.1353
 6694TIP3    H244278   0.639   6.624  11.912 -0.5133 -1.9080 -1.5143
 6695TIP3   OH244279   2.279   7.623  11.080  0.3126 -0.6516 -0.1094
 6695TIP3    H144280   2.249   7.609  11.170  0.2827 -1.2698 -0.2116
 6695TIP3    H244281   2.298   7.717  11.076 -0.7474 -0.4020  0.2223
 6696TIP3   OH244282   3.308   0.002  11.654  0.2623 -0.0154 -0.4148
 6696TIP3    H144283   3.371  -0.023  11.586 -0.6423  0.0402 -1.3018
 6696TIP3    H244284   3.227  -0.040  11.628  0.3865 -1.8555  1.8513
 6697TIP3   OH244285   2.142   1.617  12.756  0.1265 -0.3793 -0.4904
 6697TIP3    H144286   2.175   1.682  12.695 -0.3163  0.5998  0.2942
 6697TIP3    H244287   2.059   1.653  12.787  0.2569 -0.9422  0.5459
 6698TIP3   OH244288   6.484   2.966  10.482  0.0048 -0.1908 -0.1341
 6698TIP3    H144289   6.440   2.976  10.567 -1.4775  1.5529 -1.0235
 6698TIP3    H244290   6.424   2.912  10.430  2.1072 -3.5642  0.6100
 6699TIP3   OH244291   2.608   2.768  13.490 -0.3947 -0.3128 -0.5635
 6699TIP3    H144292   2.659   2.732  13.563 -0.8931 -1.2074 -0.6358
 6699TIP3    H244293   2.667   2.763  13.415 -0.0748  0.0738 -0.3398
 6700TIP3   OH244294   1.379   3.389  11.377  0.0454 -0.1348 -0.4286
 6700TIP3    H144295   1.291   3.368  11.346  0.0303  0.4542 -0.8103
 6700TIP3    H244296   1.370   3.398  11.472 -0.2132 -0.4988 -0.4178
 6701TIP3   OH244297   6.320   3.060  11.201 -0.2388 -0.2956  0.2836
 6701TIP3    H144298   6.346   2.970  11.223 -0.2953 -0.4955 -0.4359
 6701TIP3    H244299   6.402   3.108  11.192 -0.1614 -0.5209 -0.3083
 6702TIP3   OH244300   7.210   7.537  11.813  0.0242 -0.0621 -0.1856
 6702TIP3    H144301   7.193   7.549  11.719 -0.4837 -0.8621 -0.2106
 6702TIP3    H244302   7.304   7.552  11.822  0.4144 -1.6525 -1.1353
 6703TIP3   OH244303   5.855   3.954  12.191 -0.2840 -0.0485 -0.3013
 6703TIP3    H144304   5.762   3.968  12.172 -0.4921  1.2709  1.3992
 6703TIP3    H244305   5.868   3.996  12.276  0.9768 -3.7170  1.5140
 6704TIP3   OH244306   2.999   5.361  11.174  0.5838 -0.7097 -0.0635
 6704TIP3    H144307   3.078   5.316  11.147  2.3453  1.5555  0.9709
 6704TIP3    H244308   2.941   5.291  11.205  2.2254 -2.4246 -0.6951
 6705TIP3   OH244309   1.142   1.196  12.385  0.0554  0.1997 -0.6012
 6705TIP3    H144310   1.069   1.240  12.342 -0.0952 -0.6526 -1.2462
 6705TIP3    H244311   1.155   1.244  12.466 -1.1651  0.4319 -0.5294
 6706TIP3   OH244312   2.769   5.494  11.820  0.4468  0.0639 -0.5715
 6706TIP3    H144313   2.763   5.445  11.738 -1.0615 -0.4038 -0.2191
 6706TIP3    H244314   2.682   5.485  11.859  0.9808  0.7191  0.8271
 6707TIP3   OH244315   2.064   5.051  12.674  0.1617  0.0926  0.6483
 6707TIP3    H144316   2.156   5.044  12.648 -0.1560 -0.0361 -0.5271
 6707TIP3    H244317   2.055   5.139  12.711  0.0953  1.4547 -2.2914
 6708TIP3   OH244318   5.059   6.345  12.912 -0.2253  0.9936 -0.1043
 6708TIP3    H144319   5.133   6.379  12.962 -1.2939  1.3855  1.2560
 6708TIP3    H244320   5.071   6.382  12.824  3.6484 -2.5067 -1.3902
 6709TIP3   OH244321   5.639   2.604  11.451 -0.1215 -0.3021  0.1226
 6709TIP3    H144322   5.576   2.640  11.513  0.2813  1.0892 -0.2221
 6709TIP3    H244323   5.690   2.541  11.502 -0.2932  0.2520  1.0012
 6710TIP3   OH244324   1.142   1.797  12.549  0.5039 -0.0698 -0.2183
 6710TIP3    H144325   1.196   1.765  12.477  0.0521  0.6515 -0.8976
 6710TIP3    H244326   1.113   1.718  12.595  1.0313 -0.5224 -0.6527
 6711TIP3   OH244327   3.461   2.584  12.766 -0.0342 -0.3879 -0.6910
 6711TIP3    H144328   3.402   2.516  12.733  0.8563 -1.1166 -0.8464
 6711TIP3    H244329   3.525   2.535  12.819  0.3021  0.4011 -0.3600
 6712TIP3   OH244330   0.978   3.113  11.462 -0.5040  0.1601 -0.4003
 6712TIP3    H144331   0.976   3.026  11.422 -0.2846 -0.8210  1.5575
 6712TIP3    H244332   0.942   3.099  11.550  0.3776  1.8540  0.2794
 6713TIP3   OH244333   7.156   1.199  12.484 -0.0536  0.0163  0.0068
 6713TIP3    H144334   7.125   1.258  12.415 -1.8524  0.2938  0.9963
 6713TIP3    H244335   7.098   1.123  12.478  1.3376 -1.0622 -0.3207
 6714TIP3   OH244336   6.144   6.803  10.753 -0.2092  0.3234 -0.0517
 6714TIP3    H144337   6.195   6.870  10.798  0.4726 -0.7596  0.8569
 6714TIP3    H244338   6.053   6.829  10.766 -0.0212  0.1729  1.7974
 6715TIP3   OH244339   1.073   6.678  12.384 -0.5567  0.1961 -0.5929
 6715TIP3    H144340   1.004   6.612  12.391 -1.1134  0.9018  1.1919
 6715TIP3    H244341   1.154   6.628  12.379 -1.0105 -0.6277  0.0486
 6716TIP3   OH244342   2.495   0.833  13.296 -0.5286 -0.0506  0.5168
 6716TIP3    H144343   2.477   0.838  13.202 -0.9950  2.2468  0.6731
 6716TIP3    H244344   2.410   0.837  13.338 -0.2666 -0.1456  1.0709
 6717TIP3   OH244345   1.047   5.968  12.609  0.1963 -0.4252 -0.8058
 6717TIP3    H144346   0.977   5.910  12.579 -1.8588  1.0582  0.7592
 6717TIP3    H244347   1.097   5.915  12.672 -0.9482 -0.8760 -0.2408
 6718TIP3   OH244348   0.834   2.856  12.100 -0.1177 -0.0331  0.7046
 6718TIP3    H144349   0.825   2.947  12.074 -1.9549 -0.1273  0.8302
 6718TIP3    H244350   0.887   2.816  12.032  0.1678  0.9942  0.3095
 6719TIP3   OH244351   6.162   5.744  10.934 -0.6758 -0.3327 -0.1783
 6719TIP3    H144352   6.173   5.715  10.843 -0.5965 -0.4513 -0.1310
 6719TIP3    H244353   6.076   5.710  10.959 -0.7077 -0.2810 -0.2159
 6720TIP3   OH244354   3.531   2.161  10.558  0.0001 -0.1677  0.1810
 6720TIP3    H144355   3.619   2.182  10.588  0.4201 -2.1047  0.4124
 6720TIP3    H244356   3.518   2.217  10.481  1.8277 -0.5582 -0.4638
 6721TIP3   OH244357   6.563   5.984  11.045  0.1585 -0.1435 -0.0912
 6721TIP3    H144358   6.503   5.944  11.108 -0.2370 -0.4408 -0.6473
 6721TIP3    H244359   6.554   6.078  11.060 -1.9194 -0.0528 -1.4393
 6722TIP3   OH244360   1.591   1.294  11.191 -0.4465 -0.1729  0.1877
 6722TIP3    H144361   1.536   1.320  11.265  1.4593 -1.2034  2.0678
 6722TIP3    H244362   1.681   1.297  11.226  0.3132 -3.5764 -1.1435
 6723TIP3   OH244363   3.289   3.869  12.444  0.4145  0.4456 -0.6808
 6723TIP3    H144364   3.364   3.819  12.477 -0.1467 -0.3279 -0.5362
 6723TIP3    H244365   3.224   3.862  12.514 -0.0373  0.5322 -1.0923
 6724TIP3   OH244366   5.271   6.780  11.269 -0.1181  0.3381 -0.0421
 6724TIP3    H144367   5.266   6.764  11.363  0.4310 -1.2562 -0.2447
 6724TIP3    H244368   5.313   6.865  11.261 -1.3005  1.0666  1.1537
 6725TIP3   OH244369   6.915   5.568  11.677  0.1553 -0.4391 -0.1943
 6725TIP3    H144370   6.980   5.592  11.611  0.0769  0.0960 -0.0801
 6725TIP3    H244371   6.830   5.583  11.634  0.1044 -0.1263  0.0142
 6726TIP3   OH244372   4.950   4.371  12.258  0.2586 -0.3366 -0.2014
 6726TIP3    H144373   5.035   4.409  12.239  0.8847 -1.8599 -0.6328
 6726TIP3    H244374   4.891   4.409  12.192  1.1517 -1.0761 -1.4855
 6727TIP3   OH244375   0.446   6.653  10.595  0.4499 -0.0373  0.2233
 6727TIP3    H144376   0.401   6.569  10.586  1.0982 -0.6440  2.2164
 6727TIP3    H244377   0.385   6.709  10.644  0.5393  0.2272  0.0379
 6728TIP3   OH244378   1.968   6.841  11.338 -0.3361 -0.6133  0.0856
 6728TIP3    H144379   2.031   6.822  11.268 -0.0102 -1.6436  0.6354
 6728TIP3    H244380   1.884   6.853  11.292  0.0937 -0.0632 -0.5799
 6729TIP3   OH244381   5.090   0.173  10.868  0.2241  0.4652 -0.3077
 6729TIP3    H144382   5.108   0.213  10.783 -1.2968  0.1790 -0.7966
 6729TIP3    H244383   5.116   0.240  10.932  1.4151  0.6667 -0.9833
 6730TIP3   OH244384   3.690   6.480  11.548  0.0977  0.3222 -0.2985
 6730TIP3    H144385   3.775   6.478  11.503 -0.0516  0.6238 -0.5941
 6730TIP3    H244386   3.628   6.509  11.481 -0.0417  1.3067  0.2412
 6731TIP3   OH244387   7.641   0.220  11.077 -0.2521 -0.2474  0.2456
 6731TIP3    H144388   7.605   0.304  11.048 -1.2827 -0.7042  0.1622
 6731TIP3    H244389   7.721   0.243  11.124 -0.1631  0.7292 -0.3572
 6732TIP3   OH244390   0.511   0.617  11.479 -0.3663  0.7938  0.4373
 6732TIP3    H144391   0.469   0.679  11.539 -1.7733  0.2143  0.0832
 6732TIP3    H244392   0.539   0.545  11.536 -0.0830  1.0485  0.6307
 6733TIP3   OH244393   1.184   5.630  13.358 -0.1165  0.2339  0.6424
 6733TIP3    H144394   1.090   5.619  13.344  0.0236 -2.1193  1.0987
 6733TIP3    H244395   1.220   5.541  13.349  2.4883  1.3971 -2.4005
 6734TIP3   OH244396   6.200   0.225  11.591 -0.8914  0.2110 -0.4520
 6734TIP3    H144397   6.226   0.297  11.649 -0.4370  0.6587 -1.1886
 6734TIP3    H244398   6.159   0.161  11.648  2.9378 -1.1564  1.0675
 6735TIP3   OH244399   1.482   2.508  11.987  0.3591  0.4228  0.9461
 6735TIP3    H144400   1.500   2.422  12.024  1.5126  0.1136 -0.2859
 6735TIP3    H244401   1.387   2.508  11.972  0.5816 -1.4586 -0.9746
 6736TIP3   OH244402   2.055   4.819  11.403 -0.1386 -0.2737 -0.2777
 6736TIP3    H144403   2.112   4.744  11.384 -0.8090 -1.2335  1.2816
 6736TIP3    H244404   2.101   4.868  11.471 -0.9966 -0.9232  0.8207
 6737TIP3   OH244405   5.733   1.590  11.339 -0.4082 -0.3683  0.3244
 6737TIP3    H144406   5.750   1.633  11.423 -0.0627  0.6126 -0.2282
 6737TIP3    H244407   5.820   1.566  11.307 -0.4120  0.5284 -0.3933
 6738TIP3   OH244408   7.155   0.026  12.895  0.3075 -0.6250 -0.5451
 6738TIP3    H144409   7.189   0.060  12.812  1.1755 -0.2969 -0.0708
 6738TIP3    H244410   7.103   0.098  12.931  1.9754  0.1640  0.3623
 6739TIP3   OH244411   0.321   4.819  11.073 -0.3891 -0.0517  0.1145
 6739TIP3    H144412   0.291   4.907  11.052 -1.2695 -0.5003 -0.5662
 6739TIP3    H244413   0.345   4.824  11.166 -1.1043  0.7198  0.2703
 6740TIP3   OH244414   5.557   4.841  12.051 -0.0738 -0.2132  0.6011
 6740TIP3    H144415   5.524   4.823  11.962  1.9048 -0.4360 -0.1327
 6740TIP3    H244416   5.630   4.901  12.038  0.0741 -0.0223  2.1289
 6741TIP3   OH244417   4.962   3.010  12.825 -0.4350 -0.2835 -0.5805
 6741TIP3    H144418   4.921   3.039  12.906  0.6594 -0.3740  0.0260
 6741TIP3    H244419   4.972   2.916  12.834 -0.6860 -0.3544 -1.0003
 6742TIP3   OH244420   0.212   2.911  11.619  0.3939  0.2394 -0.4715
 6742TIP3    H144421   0.288   2.919  11.676  0.6817 -2.2030 -0.4137
 6742TIP3    H244422   0.247   2.876  11.537 -0.4995  0.3694 -0.9252
 6743TIP3   OH244423   0.526   3.491  10.956 -0.6041  0.3263 -0.6884
 6743TIP3    H144424   0.544   3.517  11.046 -2.5362  0.9827 -0.4558
 6743TIP3    H244425   0.483   3.406  10.964  1.5947 -0.9091 -1.1931
 6744TIP3   OH244426   4.708   2.545  12.864 -0.1349 -0.0456 -0.4519
 6744TIP3    H144427   4.666   2.603  12.928 -0.8340  0.0352 -0.9711
 6744TIP3    H244428   4.653   2.467  12.862 -0.5185  0.2301 -1.4416
 6745TIP3   OH244429   6.247   3.691  10.585  0.0935  0.2947 -0.1918
 6745TIP3    H144430   6.199   3.636  10.524  1.6025 -0.5141 -0.7036
 6745TIP3    H244431   6.286   3.629  10.647  0.0673  0.9700  0.5206
 6746TIP3   OH244432   6.082   1.518  11.486  0.5140 -0.3126 -0.1018
 6746TIP3    H144433   6.175   1.507  11.507  0.6705 -0.1070 -0.6479
 6746TIP3    H244434   6.036   1.464  11.549  1.0824 -1.7096 -0.8380
 6747TIP3   OH244435   5.881   7.604  12.414  0.1984 -0.0261 -0.1083
 6747TIP3    H144436   5.974   7.611  12.394  0.3935 -0.2411  0.6900
 6747TIP3    H244437   5.873   7.639  12.503 -1.0809  3.6923 -1.4953
 6748TIP3   OH244438   5.402   7.360  11.069 -0.6890  0.5311 -0.4782
 6748TIP3    H144439   5.414   7.274  11.109  1.7392  1.7865  1.9569
 6748TIP3    H244440   5.308   7.376  11.072 -0.8803 -0.5134  2.7322
 6749TIP3   OH244441   4.076   4.439  11.815 -0.2006 -0.7450  0.0354
 6749TIP3    H144442   4.041   4.527  11.801 -0.3086 -1.0208 -1.5861
 6749TIP3    H244443   4.136   4.449  11.890  0.2234  0.8272 -0.4655
 6750TIP3   OH244444   2.966   1.862  11.579  0.2470  0.2919  0.2563
 6750TIP3    H144445   2.912   1.928  11.536  0.7485  0.0431 -0.7806
 6750TIP3    H244446   2.939   1.866  11.671 -0.8017  0.8788 -0.0523
 6751TIP3   OH244447   6.048   1.992  10.677 -0.1933  0.1045 -0.2639
 6751TIP3    H144448   6.014   1.911  10.639 -0.7267  0.2046 -0.0051
 6751TIP3    H244449   6.011   1.994  10.765 -0.5935  0.8780 -0.4428
 6752TIP3   OH244450   0.654   1.718  13.088  0.1948  0.1138  0.0410
 6752TIP3    H144451   0.635   1.678  13.172  1.0490  0.3353  0.3530
 6752TIP3    H244452   0.599   1.797  13.085 -1.7581 -1.1999 -0.7301
 6753TIP3   OH244453   1.466   4.908  11.836 -0.7769  0.0308  0.3910
 6753TIP3    H144454   1.492   4.850  11.907  0.5790  1.2090  0.8882
 6753TIP3    H244455   1.478   4.996  11.871 -1.1192  0.6307 -0.9421
 6754TIP3   OH244456   5.248   2.667  13.236  0.2489 -0.5973 -0.1710
 6754TIP3    H144457   5.278   2.597  13.178 -0.6061  0.4349 -1.9250
 6754TIP3    H244458   5.329   2.712  13.263  0.6339 -0.8861 -0.8189
 6755TIP3   OH244459   1.389   2.048  10.833 -0.0141  0.4594  0.1052
 6755TIP3    H144460   1.401   2.096  10.751  2.4353  3.1060  1.7929
 6755TIP3    H244461   1.387   1.956  10.807  0.6316  1.1885 -2.9046
 6756TIP3   OH244462   2.696   1.878  11.327 -0.1736 -0.2816  0.0295
 6756TIP3    H144463   2.783   1.865  11.290 -0.5503  2.7266 -2.3356
 6756TIP3    H244464   2.702   1.961  11.375 -1.5648 -0.3173  0.3086
 6757TIP3   OH244465   1.076   5.524  10.251 -0.4925  0.3615 -0.5963
 6757TIP3    H144466   1.102   5.544  10.341 -1.9302  1.2662 -0.3503
 6757TIP3    H244467   1.145   5.562  10.198  2.6708 -3.7122  0.0876
 6758TIP3   OH244468   3.681   5.754  11.667  0.0364  0.1643  0.0888
 6758TIP3    H144469   3.669   5.662  11.642  1.3511  0.4808 -1.9218
 6758TIP3    H244470   3.661   5.804  11.588  1.3907  1.4479  0.5090
 6759TIP3   OH244471   6.230   2.872  10.956 -0.1216  0.0877  0.5538
 6759TIP3    H144472   6.137   2.851  10.964 -0.5948  1.5456 -0.6128
 6759TIP3    H244473   6.272   2.825  11.028 -1.5456 -1.7921  0.2315
 6760TIP3   OH244474   2.915   2.954  13.192 -0.1558 -0.3087  0.3215
 6760TIP3    H144475   2.892   3.031  13.244  0.5942  0.3989 -0.3944
 6760TIP3    H244476   2.999   2.974  13.153 -0.4397 -1.0666 -0.7321
 6761TIP3   OH244477   6.740   1.319  12.070 -0.0634  0.2761  0.1166
 6761TIP3    H144478   6.773   1.392  12.018 -1.7950  1.8411  1.0845
 6761TIP3    H244479   6.806   1.250  12.059  1.4203  1.8044 -1.1963
 6762TIP3   OH244480   3.587   1.598  11.636 -0.0564 -0.6209  0.5146
 6762TIP3    H144481   3.491   1.593  11.639 -0.0892 -1.0560 -0.6965
 6762TIP3    H244482   3.615   1.507  11.621  0.5671 -0.5421  1.1492
 6763TIP3   OH244483   1.924   3.120  12.910 -0.0476  0.0212 -0.1064
 6763TIP3    H144484   1.893   3.049  12.855  0.5050  1.3605 -2.2371
 6763TIP3    H244485   2.019   3.118  12.902 -0.0303  1.0712 -0.3124
 6764TIP3   OH244486   4.656   2.930  11.537  0.7192 -0.2639 -0.2963
 6764TIP3    H144487   4.616   2.843  11.532 -0.2079  0.1599 -0.4942
 6764TIP3    H244488   4.603   2.977  11.601  1.1948  0.1590 -0.2143
 6765TIP3   OH244489   1.615   5.962  11.479  0.1821 -0.2505  0.5477
 6765TIP3    H144490   1.549   6.019  11.519  0.9689  1.0003  0.1448
 6765TIP3    H244491   1.676   6.023  11.437  0.1154 -1.4520 -1.4092
 6766TIP3   OH244492   5.779   4.013  12.818  0.5202  0.1533 -0.5872
 6766TIP3    H144493   5.699   3.966  12.843  1.0478 -0.6648 -0.3950
 6766TIP3    H244494   5.850   3.951  12.836  1.1690  0.7224 -1.1269
 6767TIP3   OH244495   7.494   1.394  11.077 -0.2164 -0.0633 -0.4890
 6767TIP3    H144496   7.548   1.395  10.998  0.0218  0.6430 -0.3253
 6767TIP3    H244497   7.406   1.417  11.046 -0.2135 -0.2072 -0.6072
 6768TIP3   OH244498   0.935   3.438  11.948  0.3331 -0.0095  0.5923
 6768TIP3    H144499   0.883   3.506  11.990 -0.7297 -0.6339  0.3326
 6768TIP3    H244500   0.882   3.409  11.874  0.6778 -1.2493  0.8031
 6769TIP3   OH244501   3.897   0.923  10.625  0.5042 -0.4335 -0.4471
 6769TIP3    H144502   3.902   0.963  10.539 -2.3659  1.8289  0.2725
 6769TIP3    H244503   3.849   0.841  10.611 -0.7187  0.3419 -0.9246
 6770TIP3   OH244504   3.665   5.281  11.130 -0.4568 -0.6118 -0.1214
 6770TIP3    H144505   3.627   5.361  11.167 -2.3279  0.0710 -3.1073
 6770TIP3    H244506   3.608   5.211  11.161 -1.4274 -0.1829 -0.8724
 6771TIP3   OH244507   0.560   6.011  13.254  0.1928 -0.1443 -0.7630
 6771TIP3    H144508   0.466   6.006  13.271 -0.0349 -2.8117 -2.2003
 6771TIP3    H244509   0.583   6.102  13.269 -2.6712  0.6312 -0.6008
 6772TIP3   OH244510   2.887   1.592  12.426 -0.3009  0.4929  0.0844
 6772TIP3    H144511   2.899   1.615  12.334  1.3676 -0.3792  0.0382
 6772TIP3    H244512   2.899   1.675  12.473 -1.3740  0.9855 -0.4664
 6773TIP3   OH244513   0.613   3.570  11.651 -0.6186 -0.4277  0.5314
 6773TIP3    H144514   0.652   3.639  11.597 -0.2121 -0.1534  1.1642
 6773TIP3    H244515   0.610   3.607  11.739 -1.8022 -0.6568  0.6074
 6774TIP3   OH244516   6.130   7.639  12.332  0.0506  0.2079  0.0070
 6774TIP3    H144517   6.198   7.674  12.388 -0.1164  0.6167 -0.0432
 6774TIP3    H244518   6.177   7.589  12.265  0.2583 -0.1469  0.4120
 6775TIP3   OH244519   4.021   5.835  12.115  0.2290 -0.3414  0.2725
 6775TIP3    H144520   3.938   5.797  12.145  0.5860 -1.5453 -0.2328
 6775TIP3    H244521   4.087   5.798  12.174  0.4710  0.3064  0.4214
 6776TIP3   OH244522   0.361   5.659  12.374  0.8263  0.4960  0.6091
 6776TIP3    H144523   0.328   5.581  12.419 -0.2255  1.6880  2.0296
 6776TIP3    H244524   0.309   5.664  12.294 -1.1293  1.2213  1.8475
 6777TIP3   OH244525   3.140   6.646  12.879  0.3016 -0.2049  0.3727
 6777TIP3    H144526   3.167   6.564  12.839  0.2809 -1.4925  2.8013
 6777TIP3    H244527   3.199   6.712  12.841  0.7824 -1.4318 -1.1068
 6778TIP3   OH244528   3.389   0.763  13.149  0.2181 -0.0058  1.1200
 6778TIP3    H144529   3.469   0.712  13.160  0.5015  0.7149  2.6666
 6778TIP3    H244530   3.319   0.701  13.169  0.5456  0.0785  2.6538
 6779TIP3   OH244531   1.749   7.564  11.375 -0.2032 -0.0076  0.3487
 6779TIP3    H144532   1.839   7.577  11.404 -0.4818  0.8539  0.8345
 6779TIP3    H244533   1.749   7.476  11.337  1.1177  0.4098 -0.7144
 6780TIP3   OH244534   6.279   2.059  11.292 -0.8288 -0.5101  0.3321
 6780TIP3    H144535   6.228   2.133  11.258  0.7798  0.3700 -0.2930
 6780TIP3    H244536   6.248   2.048  11.382 -0.7464  1.3008  0.6215
 6781TIP3   OH244537   4.574   2.881  10.989  0.8675 -0.3461 -0.2192
 6781TIP3    H144538   4.572   2.798  10.941 -1.0752  0.9676 -2.6461
 6781TIP3    H244539   4.481   2.906  10.997  1.3855  1.4425  0.7148
 6782TIP3   OH244540   6.447   5.341  12.600  0.3227  0.5291 -0.0292
 6782TIP3    H144541   6.448   5.419  12.544  0.1972 -1.0332 -2.3648
 6782TIP3    H244542   6.358   5.339  12.637  0.7413  2.1612  1.1725
 6783TIP3   OH244543   6.842   0.972  10.684 -0.2167  0.3762  0.0856
 6783TIP3    H144544   6.872   0.925  10.606 -0.0927  2.5603 -1.2624
 6783TIP3    H244545   6.789   0.908  10.732  0.7465 -1.4013 -1.1212
 6784TIP3   OH244546   3.968   7.439  10.921 -0.5306  0.2947 -0.2992
 6784TIP3    H144547   3.904   7.509  10.931 -0.3024  0.6127 -1.0121
 6784TIP3    H244548   4.000   7.448  10.832  0.1119 -0.2009 -0.1278
 6785TIP3   OH244549   3.208   6.547  13.154 -0.0073 -0.3415  0.2600
 6785TIP3    H144550   3.186   6.580  13.067  0.5994  0.0862  0.2660
 6785TIP3    H244551   3.289   6.498  13.143  1.9282  2.4247  1.0864
 6786TIP3   OH244552   7.410   0.363  13.160  0.4786  0.6466 -0.0421
 6786TIP3    H144553   7.339   0.316  13.204 -1.3681  0.7271 -2.7289
 6786TIP3    H244554   7.373   0.449  13.139  2.1588  1.5290  0.4522
 6787TIP3   OH244555   3.570   7.037  12.675 -0.3045 -0.5497  0.4828
 6787TIP3    H144556   3.588   6.995  12.759 -0.3560 -0.9928  0.2743
 6787TIP3    H244557   3.635   7.108  12.670 -0.6703 -0.1583  1.1470
 6788TIP3   OH244558   2.080   4.679  11.749 -0.7340  0.1436 -0.3231
 6788TIP3    H144559   2.142   4.726  11.692  1.8106 -0.4961  1.7215
 6788TIP3    H244560   2.133   4.613  11.793 -3.0561 -0.9019  1.0952
 6789TIP3   OH244561   0.706   3.268  11.453  0.1409 -0.1946  0.0893
 6789TIP3    H144562   0.772   3.201  11.435 -0.0679 -0.4368  0.2158
 6789TIP3    H244563   0.648   3.266  11.377 -0.2393 -0.6126  0.3861
 6790TIP3   OH244564   5.638   6.938  12.008 -0.3313 -0.6662 -0.3906
 6790TIP3    H144565   5.728   6.907  12.011  0.9772  2.6653 -0.6035
 6790TIP3    H244566   5.615   6.938  11.915  0.3861  0.7162 -0.5916
 6791TIP3   OH244567   6.858   5.276  12.430  0.3112 -0.0647  0.3382
 6791TIP3    H144568   6.850   5.347  12.366 -1.5987  0.1629  0.7663
 6791TIP3    H244569   6.830   5.198  12.382  1.0753 -0.3080  0.2704
 6792TIP3   OH244570   0.938   6.865  10.296 -0.1892  0.2309  0.5655
 6792TIP3    H144571   0.862   6.906  10.255  0.6424  0.5998 -0.6580
 6792TIP3    H244572   0.964   6.927  10.364  0.7348  1.5453 -0.9123
 6793TIP3   OH244573   3.977   5.321  12.892 -0.2543  0.7521 -0.4703
 6793TIP3    H144574   4.056   5.268  12.895 -1.5823 -1.3073  1.4522
 6793TIP3    H244575   3.914   5.267  12.844 -1.4594  0.8075  0.9905
 6794TIP3   OH244576   3.104   5.581  12.265  0.1369 -0.3824 -0.2009
 6794TIP3    H144577   3.182   5.605  12.315  0.1653 -1.1888  0.1483
 6794TIP3    H244578   3.138   5.553  12.180  0.2400 -0.8054 -0.0236
 6795TIP3   OH244579   0.414   3.892  12.028  0.1046 -0.2698 -0.3598
 6795TIP3    H144580   0.328   3.917  11.996  0.3889  1.5590  0.1995
 6795TIP3    H244581   0.472   3.963  12.001  1.6277 -1.8010 -1.3799
 6796TIP3   OH244582   6.658   3.883  12.441  0.0575  0.0923  0.2038
 6796TIP3    H144583   6.692   3.855  12.356  0.9004  4.2294 -1.0183
 6796TIP3    H244584   6.735   3.912  12.490 -0.7948  1.2109  0.9268
 6797TIP3   OH244585   4.114   5.620  11.327 -0.1062  0.0076 -0.4896
 6797TIP3    H144586   4.131   5.543  11.273  1.1887  0.2419 -0.4623
 6797TIP3    H244587   4.195   5.671  11.321 -0.1241  0.2921  1.2795
 6798TIP3   OH244588   2.170   2.719  11.336 -0.2976 -0.3086 -0.2804
 6798TIP3    H144589   2.080   2.750  11.323 -0.6186 -0.6811  0.9442
 6798TIP3    H244590   2.171   2.687  11.426  1.4725  1.0730  0.2391
 6799TIP3   OH244591   4.800   5.101  11.124  0.3110  0.1890  0.1312
 6799TIP3    H144592   4.802   5.010  11.153 -1.3303  0.3197  0.7057
 6799TIP3    H244593   4.787   5.152  11.204  0.6950  0.9128 -0.2519
 6800TIP3   OH244594   5.833   2.610  11.230 -0.2827  0.5121 -0.3762
 6800TIP3    H144595   5.802   2.568  11.310  0.0845  0.7559 -0.1037
 6800TIP3    H244596   5.848   2.701  11.255  1.2251  0.2710 -0.3434
 6801TIP3   OH244597   4.841   5.927  12.721  0.5954  0.1216 -0.6097
 6801TIP3    H144598   4.807   6.010  12.687  2.2422  0.6295 -1.0977
 6801TIP3    H244599   4.784   5.907  12.795  0.0045  1.5631 -0.6321
 6802TIP3   OH244600   1.002   0.232  11.081 -0.2101 -0.1281  0.2926
 6802TIP3    H144601   0.956   0.149  11.092 -1.8386  0.7561  0.4264
 6802TIP3    H244602   1.006   0.244  10.986  0.7029 -0.6951  0.2449
 6803TIP3   OH244603   2.118   5.825  10.923  0.3642 -0.5512  0.7627
 6803TIP3    H144604   2.111   5.780  10.839  0.7247  1.2127 -0.2804
 6803TIP3    H244605   2.032   5.862  10.938  0.9646  1.4059 -0.2498
 6804TIP3   OH244606   6.751   0.801  12.477 -0.1740  0.5258  0.1650
 6804TIP3    H144607   6.661   0.826  12.497 -0.9625  0.6363 -2.9681
 6804TIP3    H244608   6.804   0.866  12.523 -1.6651  0.6911  1.7799
 6805TIP3   OH244609   5.874   0.341  11.448  0.1026 -0.3750  0.0589
 6805TIP3    H144610   5.924   0.423  11.454  0.6626 -0.5903 -1.2678
 6805TIP3    H244611   5.921   0.281  11.507 -0.0259  0.1071  0.6678
 6806TIP3   OH244612   7.391   0.600  10.784  0.4489  0.3603 -0.1692
 6806TIP3    H144613   7.431   0.686  10.770 -1.1296  1.1856  0.1953
 6806TIP3    H244614   7.409   0.552  10.703  2.1436  0.6789 -0.0259
 6807TIP3   OH244615   7.300   7.286  12.973 -0.4727 -0.0893  0.3360
 6807TIP3    H144616   7.334   7.359  13.026  0.3507 -1.1802  1.3646
 6807TIP3    H244617   7.205   7.292  12.983 -0.6819  2.4754 -1.8542
 6808TIP3   OH244618   6.150   7.561  11.543  0.3488 -0.4288  0.4647
 6808TIP3    H144619   6.084   7.612  11.497  0.0205  0.2223  1.6370
 6808TIP3    H244620   6.114   7.547  11.630  1.6308 -0.3136  1.0368
 6809TIP3   OH244621   6.301   3.140  12.756  0.3751 -0.0224  0.0212
 6809TIP3    H144622   6.218   3.094  12.767  1.7486 -2.9856 -0.9782
 6809TIP3    H244623   6.284   3.204  12.688 -1.0217 -0.7957 -0.3956
 6810TIP3   OH244624   4.911   6.940  10.580 -0.2911  0.2508  0.2500
 6810TIP3    H144625   4.923   6.964  10.488  0.1755  2.0441  0.7288
 6810TIP3    H244626   4.888   7.022  10.623  1.2084 -0.1894  2.0253
 6811TIP3   OH244627   0.097   1.951  12.725 -0.0181  0.1143 -0.4194
 6811TIP3    H144628   0.030   2.019  12.737 -1.0468 -0.3877 -2.8145
 6811TIP3    H244629   0.051   1.869  12.738  0.9104 -0.2084  1.0716
 6812TIP3   OH244630   0.097   6.207  12.371  0.6323 -0.5585  0.6284
 6812TIP3    H144631   0.140   6.124  12.388  4.2485  0.7594 -1.1735
 6812TIP3    H244632   0.086   6.211  12.276 -2.6603 -0.3054  0.8968
 6813TIP3   OH244633   4.356   7.631  12.468 -0.3642  0.3152  0.4854
 6813TIP3    H144634   4.356   7.709  12.412  0.6053 -0.3977 -0.5446
 6813TIP3    H244635   4.264   7.621  12.494 -1.0046  0.2403 -1.6194
 6814TIP3   OH244636   5.649   2.003  12.703  0.4691 -0.1717 -0.1293
 6814TIP3    H144637   5.648   2.071  12.770 -0.5487  0.9014 -1.1916
 6814TIP3    H244638   5.671   1.923  12.751 -0.0625  0.5849  1.4471
 6815TIP3   OH244639   1.032   0.103  12.506 -0.1083 -0.1811  0.0659
 6815TIP3    H144640   1.083   0.063  12.577  0.7074  1.7685  0.6393
 6815TIP3    H244641   1.095   0.161  12.462 -1.8919  2.6710  1.0701
 6816TIP3   OH244642   3.227   1.430  10.957  0.0205 -0.0416  0.2767
 6816TIP3    H144643   3.321   1.413  10.965  0.4549  1.3036 -1.4922
 6816TIP3    H244644   3.188   1.343  10.943  1.3475 -0.3777 -1.7474
 6817TIP3   OH244645   2.990   4.330  11.139 -0.2949 -0.2648 -0.0096
 6817TIP3    H144646   2.955   4.418  11.151  0.0270 -0.0244 -0.7550
 6817TIP3    H244647   3.029   4.332  11.052  0.7280 -0.8055  0.4178
 6818TIP3   OH244648   0.922   0.246  12.779  0.4256 -0.5710  0.2405
 6818TIP3    H144649   0.976   0.300  12.836 -0.0026 -0.6909  0.7721
 6818TIP3    H244650   0.981   0.179  12.746  1.4521  1.2668 -1.9339
 6819TIP3   OH244651   1.103   5.358  12.259 -0.5007 -0.3663  0.1302
 6819TIP3    H144652   1.177   5.308  12.295  0.1338  0.6028  0.2183
 6819TIP3    H244653   1.111   5.349  12.164 -0.8509 -1.0783  0.1697
 6820TIP3   OH244654   6.195   3.245  10.830 -0.1332  0.2013 -0.0704
 6820TIP3    H144655   6.107   3.208  10.836 -0.1384 -0.0237 -1.2690
 6820TIP3    H244656   6.254   3.169  10.837 -0.0555  0.2678  0.0062
 6821TIP3   OH244657   3.360   6.285  11.053 -0.1094  0.1848  0.2503
 6821TIP3    H144658   3.333   6.317  10.967  1.8012  1.6135  0.1229
 6821TIP3    H244659   3.397   6.198  11.036 -1.8680 -0.5811  0.0394
 6822TIP3   OH244660   2.006   7.352  12.779 -0.0104  0.2167  0.3519
 6822TIP3    H144661   1.978   7.324  12.867  1.2327  0.3325  0.8077
 6822TIP3    H244662   1.995   7.274  12.725  0.1662 -0.1651  0.8516
 6823TIP3   OH244663   0.069   2.937  11.954 -0.2187  0.2571 -0.1172
 6823TIP3    H144664   0.067   2.998  11.881 -0.4692 -0.1281 -0.4391
 6823TIP3    H244665   0.155   2.894  11.947  0.3379  1.1926  0.6420
 6824TIP3   OH244666   4.974   2.281  18.532 -0.0282 -0.3280  0.0637
 6824TIP3    H144667   4.953   2.331  18.454 -1.1571 -1.4375 -0.3742
 6824TIP3    H244668   4.926   2.200  18.523  2.0044 -1.6816  0.5902
 6825TIP3   OH244669   1.366   4.015  12.072  0.4103 -0.0568 -0.2625
 6825TIP3    H144670   1.397   4.021  11.982  1.8571 -1.2794  0.1065
 6825TIP3    H244671   1.316   3.934  12.075 -0.0759  0.2482 -0.0838
 6826TIP3   OH244672   3.933   6.500  11.432 -0.0889  0.1789  0.4274
 6826TIP3    H144673   3.981   6.510  11.514  1.0481  2.0278 -0.4037
 6826TIP3    H244674   4.000   6.484  11.366 -0.6223  2.0055 -0.6359
 6827TIP3   OH244675   4.069   6.067  11.946  0.2462  0.0436 -0.0320
 6827TIP3    H144676   4.076   6.133  12.014  1.3649  1.0453 -1.0668
 6827TIP3    H244677   4.109   5.989  11.984 -1.7363 -0.2989  1.4578
 6828TIP3   OH244678   0.972   2.198  11.898 -0.3620  0.3054  0.3064
 6828TIP3    H144679   1.064   2.171  11.908 -0.1218  0.9586 -0.0463
 6828TIP3    H244680   0.976   2.270  11.835 -1.3860 -1.2029 -1.5825
 6829TIP3   OH244681   6.122   0.585  11.204 -0.6490 -0.3355  0.0739
 6829TIP3    H144682   6.196   0.580  11.143 -0.8608  0.5080 -0.2652
 6829TIP3    H244683   6.139   0.515  11.267  0.5253 -0.0647  0.0954
 6830TIP3   OH244684   2.453   3.363  11.643  0.3106 -0.2082  0.1062
 6830TIP3    H144685   2.421   3.324  11.561  0.2516 -0.5710  0.2996
 6830TIP3    H244686   2.509   3.295  11.681  1.9085  0.6861 -0.5809
 6831TIP3   OH244687   7.264   0.111  10.950 -0.2492  0.4625  0.6620
 6831TIP3    H144688   7.310   0.037  10.990  0.6109  0.2232 -0.7038
 6831TIP3    H244689   7.217   0.152  11.022 -0.0026 -0.8667  1.6198
 6832TIP3   OH244690   7.284   2.411  12.722  0.3944 -0.8520  0.1642
 6832TIP3    H144691   7.257   2.337  12.776  0.3414 -1.0188 -0.0860
 6832TIP3    H244692   7.227   2.482  12.749  1.6633 -0.3737  1.7040
 6833TIP3   OH244693   6.911   6.810  12.021  0.2586 -0.1789  0.3224
 6833TIP3    H144694   6.946   6.748  11.957  0.6824 -1.1989  1.5024
 6833TIP3    H244695   6.981   6.821  12.085 -0.3182  0.4654  0.8658
 6834TIP3   OH244696   1.931   6.073  11.754  0.2420  0.6512  0.5814
 6834TIP3    H144697   2.009   6.093  11.702 -0.4641 -0.5774 -1.0290
 6834TIP3    H244698   1.861   6.126  11.716 -0.5337 -1.0898 -0.5246
 6835TIP3   OH244699   7.663   7.433  13.527  0.5488  0.0259  0.1607
 6835TIP3    H144700   7.758   7.429  13.514  0.6994  0.8936  0.8928
 6835TIP3    H244701   7.632   7.491  13.458  0.4416 -0.8063 -0.5139
 6836TIP3   OH244702   2.340   2.961  10.572  0.1397 -0.2386  0.2339
 6836TIP3    H144703   2.269   2.963  10.508  1.6679  1.4725 -1.5539
 6836TIP3    H244704   2.299   2.987  10.654 -1.4617 -0.2313 -0.5337
 6837TIP3   OH244705   0.032   0.165  12.651 -0.5075 -0.1016 -0.4419
 6837TIP3    H144706   0.076   0.085  12.681  1.8108  1.3290  0.2290
 6837TIP3    H244707   0.036   0.160  12.555  0.3914 -0.4182 -0.3966
 6838TIP3   OH244708   0.478   1.915  13.120  0.3466  0.3374  0.3377
 6838TIP3    H144709   0.435   1.995  13.090  0.1447 -0.4250 -1.4789
 6838TIP3    H244710   0.421   1.844  13.091  0.8795 -0.5176  1.3136
 6839TIP3   OH244711   6.113   3.106  11.875 -0.1247 -0.5690 -0.4693
 6839TIP3    H144712   6.145   3.017  11.857  2.5907  0.4098 -0.9129
 6839TIP3    H244713   6.190   3.154  11.904 -2.0854  0.9416  2.8599
 6840TIP3   OH244714   3.917   2.598  11.482 -0.3001  0.2971  0.5416
 6840TIP3    H144715   3.895   2.684  11.519 -1.4961 -0.0971  0.7774
 6840TIP3    H244716   3.874   2.535  11.540  2.5855 -0.6283  1.8472
 6841TIP3   OH244717   5.511   3.760  12.291  0.9665 -0.5881 -0.0758
 6841TIP3    H144718   5.489   3.706  12.367 -1.0248 -0.9183 -0.8422
 6841TIP3    H244719   5.579   3.709  12.245  0.9297 -1.2208  0.5481
 6842TIP3   OH244720   3.440   6.342  11.948 -0.3519  0.0669  0.1168
 6842TIP3    H144721   3.443   6.427  11.992 -0.8762  0.6825 -1.0105
 6842TIP3    H244722   3.505   6.348  11.879  0.3984 -0.8629  0.7216
 6843TIP3   OH244723   7.347   5.309  10.628 -0.1545 -0.0059 -0.1914
 6843TIP3    H144724   7.348   5.401  10.655  1.0226 -0.3991  1.2032
 6843TIP3    H244725   7.276   5.304  10.564 -0.6862  1.7267  0.2085
 6844TIP3   OH244726   2.831   4.652  12.574  0.2953  0.1392 -0.1600
 6844TIP3    H144727   2.890   4.653  12.499 -0.8369  0.4812 -1.0819
 6844TIP3    H244728   2.772   4.727  12.560 -1.7290 -1.4018 -0.4589
 6845TIP3   OH244729   2.913   3.452  11.290  0.6270  0.1579 -0.5642
 6845TIP3    H144730   2.942   3.391  11.357 -0.3782 -0.1200 -0.3539
 6845TIP3    H244731   2.820   3.467  11.311  0.7265  1.3574 -0.9134
 6846TIP3   OH244732   1.812   3.372  12.694 -0.0284 -0.2397  0.7547
 6846TIP3    H144733   1.870   3.365  12.770  0.2736  0.4226  0.5885
 6846TIP3    H244734   1.772   3.285  12.686  3.3508 -1.8146 -1.0736
 6847TIP3   OH244735   1.941   4.701  12.983 -0.4449  0.2613  0.1148
 6847TIP3    H144736   1.876   4.631  12.991 -0.1782 -0.1082 -0.7624
 6847TIP3    H244737   1.959   4.727  13.073 -0.8481 -0.5279  0.4408
 6848TIP3   OH244738   3.695   0.646  10.735 -0.6390  0.2810 -0.0168
 6848TIP3    H144739   3.650   0.656  10.819 -1.6762 -1.0858 -0.3721
 6848TIP3    H244740   3.637   0.591  10.682  1.0191 -0.7888 -0.8404
 6849TIP3   OH244741   4.572   6.696  12.591 -0.1814  0.3323 -0.3378
 6849TIP3    H144742   4.661   6.702  12.625 -0.6141  0.3030  0.8146
 6849TIP3    H244743   4.538   6.785  12.594 -0.7404  0.0931  0.7451
 6850TIP3   OH244744   2.986   7.632  12.593  0.3574 -0.0346  0.0546
 6850TIP3    H144745   3.007   7.575  12.667  0.2548 -0.4869 -0.2623
 6850TIP3    H244746   3.026   7.589  12.517  1.2670  0.8979 -0.0236
 6851TIP3   OH244747   1.465   6.903  11.825 -0.5819  0.3720 -0.5054
 6851TIP3    H144748   1.410   6.842  11.875 -0.6140  1.2358  0.5369
 6851TIP3    H244749   1.466   6.983  11.877 -0.6070  1.3127 -1.8947
 6852TIP3   OH244750   7.200   1.015  10.882  0.2672  0.0689 -0.5448
 6852TIP3    H144751   7.216   1.070  10.805 -0.3266 -1.2296 -1.6560
 6852TIP3    H244752   7.287   0.992  10.914  0.5158  1.0389 -0.5207
 6853TIP3   OH244753   3.194   2.222  10.501 -0.7058 -0.3004  0.4017
 6853TIP3    H144754   3.207   2.159  10.571  0.1591  0.8787  1.3374
 6853TIP3    H244755   3.246   2.188  10.428  1.7500  0.4878  1.6625
 6854TIP3   OH244756   1.312   3.413  13.287  0.6976 -0.9128 -0.0333
 6854TIP3    H144757   1.292   3.394  13.378  2.4923 -1.4221  0.2843
 6854TIP3    H244758   1.326   3.327  13.246  0.8677 -0.6516 -0.5423
 6855TIP3   OH244759   1.206   2.607  10.696 -0.2725  0.2814  0.0130
 6855TIP3    H144760   1.289   2.650  10.718  0.1153 -0.5117  0.1304
 6855TIP3    H244761   1.150   2.678  10.665  1.4501  0.5013 -3.0481
 6856TIP3   OH244762   4.606   3.692  12.083 -0.0905  0.1051 -0.3963
 6856TIP3    H144763   4.639   3.735  12.161  0.1430 -0.7858  0.0065
 6856TIP3    H244764   4.655   3.610  12.078 -0.8620 -0.3424 -0.8760
 6857TIP3   OH244765   7.441   7.321  11.223  0.1076 -0.4144 -0.0174
 6857TIP3    H144766   7.445   7.412  11.254  1.0576 -0.7642  0.9541
 6857TIP3    H244767   7.523   7.282  11.253 -0.8556 -1.9466  0.7646
 6858TIP3   OH244768   0.691   5.272  12.250 -0.0201  0.0642  0.1448
 6858TIP3    H144769   0.772   5.227  12.273 -0.6808 -0.3815  1.7379
 6858TIP3    H244770   0.622   5.219  12.289 -0.9374  1.5570  0.6503
 6859TIP3   OH244771   1.760   2.144  10.376 -0.0748  0.4549  0.4988
 6859TIP3    H144772   1.814   2.197  10.435 -0.5520  1.1039  0.3697
 6859TIP3    H244773   1.715   2.083  10.434 -1.4384  1.8558  1.0055
 6860TIP3   OH244774   4.421   0.917  12.644  0.1033 -0.5093 -0.4415
 6860TIP3    H144775   4.516   0.931  12.652  0.0848 -1.2094  1.7617
 6860TIP3    H244776   4.383   0.978  12.708 -0.8540 -1.0905 -0.4430
 6861TIP3   OH244777   0.992   1.949  12.775  0.1316 -0.3334  0.2520
 6861TIP3    H144778   1.004   1.900  12.856 -2.0741 -1.4774 -0.0509
 6861TIP3    H244779   1.070   1.928  12.723  0.2258 -1.9047  0.9594
 6862TIP3   OH244780   5.858   1.058  10.802  0.5271  0.6486  0.1526
 6862TIP3    H144781   5.887   1.042  10.892 -0.8038 -0.6740  0.3900
 6862TIP3    H244782   5.930   1.027  10.748  1.7809  2.3997  0.7239
 6863TIP3   OH244783   1.373   0.437  12.352 -0.0160  0.2943  0.0081
 6863TIP3    H144784   1.435   0.407  12.419 -1.5122 -1.9796  0.4882
 6863TIP3    H244785   1.306   0.485  12.401 -1.6966 -2.2934  0.4447
 6864TIP3   OH244786   1.264   2.069  11.459  0.0558  0.0491 -0.0609
 6864TIP3    H144787   1.275   1.990  11.406  2.8656  0.4636 -0.2513
 6864TIP3    H244788   1.207   2.042  11.532 -0.7393 -1.5364 -1.2126
 6865TIP3   OH244789   0.528   2.945  11.424 -0.1776 -0.6512  0.4463
 6865TIP3    H144790   0.533   2.850  11.413  1.8281 -0.5173 -0.0777
 6865TIP3    H244791   0.441   2.968  11.391  0.1338 -2.0540 -1.4949
 6866TIP3   OH244792   6.867   4.761  13.217  0.4275  0.0065  0.6149
 6866TIP3    H144793   6.831   4.807  13.140  2.8397  0.7258 -0.1804
 6866TIP3    H244794   6.862   4.668  13.194 -1.2574  0.0353  0.7392
 6867TIP3   OH244795   3.859   4.457  11.376 -0.1325 -0.2434  0.4593
 6867TIP3    H144796   3.765   4.475  11.380 -0.2193 -0.5493 -0.1147
 6867TIP3    H244797   3.875   4.435  11.284  0.2767 -1.3768  0.7798
 6868TIP3   OH244798   0.754   1.819  10.335 -0.8404  0.7183 -0.4986
 6868TIP3    H144799   0.670   1.806  10.379  0.2121 -1.6351  1.0277
 6868TIP3    H244800   0.757   1.750  10.269  0.3386  0.0129  0.2622
 6869TIP3   OH244801   4.605   5.888  12.887 -0.6512 -0.7722 -0.1262
 6869TIP3    H144802   4.613   5.908  12.981 -1.0623  0.8019 -0.3953
 6869TIP3    H244803   4.511   5.878  12.873 -0.8713  1.6267 -0.8132
 6870TIP3   OH244804   3.189   1.124  11.118  0.0255 -0.1469 -0.4313
 6870TIP3    H144805   3.165   1.160  11.033  2.2236  1.8492 -0.3008
 6870TIP3    H244806   3.164   1.193  11.181  0.7260 -0.5079  0.2594
 6871TIP3   OH244807   4.369   3.337  12.667  0.6185 -0.1307  0.5517
 6871TIP3    H144808   4.311   3.400  12.623  0.7625  0.9084  1.7873
 6871TIP3    H244809   4.375   3.264  12.606 -1.3425  0.0735  0.0417
 6872TIP3   OH244810   6.689   4.239  11.058 -0.2147  0.3383  0.1455
 6872TIP3    H144811   6.777   4.258  11.027 -0.5122 -1.2937 -1.8801
 6872TIP3    H244812   6.701   4.166  11.119  0.0273  1.5449  1.5990
 6873TIP3   OH244813   4.824   7.506  13.047 -0.0890 -0.0800 -0.8336
 6873TIP3    H144814   4.744   7.470  13.086 -0.2244  0.6981 -0.3720
 6873TIP3    H244815   4.845   7.447  12.975 -1.3405 -0.0300 -1.2458
 6874TIP3   OH244816   4.838   7.354  12.058  0.0259 -0.0265  0.9196
 6874TIP3    H144817   4.790   7.273  12.077  1.5724 -1.0694  0.6166
 6874TIP3    H244818   4.837   7.403  12.140 -2.3084  0.4472  0.6738
 6875TIP3   OH244819   6.544   5.112  12.494 -0.2625  0.0080 -0.1575
 6875TIP3    H144820   6.496   5.191  12.517  0.1933  0.3925 -0.5103
 6875TIP3    H244821   6.524   5.097  12.402 -1.0309 -0.7816  0.1200
 6876TIP3   OH244822   1.983   5.404  13.067 -0.0855  0.0720 -0.4021
 6876TIP3    H144823   2.076   5.402  13.090  0.0322  0.9186 -0.7535
 6876TIP3    H244824   1.946   5.328  13.111  1.0859 -1.2884 -1.6479
 6877TIP3   OH244825   3.787   1.382  12.094  0.3510  0.1775  0.4693
 6877TIP3    H144826   3.711   1.384  12.035  0.7052  1.9948  0.0237
 6877TIP3    H244827   3.763   1.318  12.161 -0.1961 -1.7454 -1.4328
 6878TIP3   OH244828   6.932   2.428  11.237  0.2581 -0.0433  0.1107
 6878TIP3    H144829   6.949   2.397  11.147 -0.9737  0.8047 -0.4341
 6878TIP3    H244830   6.860   2.490  11.228  0.1329  0.0770  1.7003
 6879TIP3   OH244831   1.582   2.133  13.362  0.1244 -0.3990 -0.0825
 6879TIP3    H144832   1.527   2.171  13.430 -0.4547 -1.3695  0.0083
 6879TIP3    H244833   1.580   2.039  13.379  2.2183 -0.4320  0.2187
 6880TIP3   OH244834   0.432   1.280  11.198  0.3268  0.8599  0.0221
 6880TIP3    H144835   0.492   1.218  11.157  1.2319  1.6763  0.0757
 6880TIP3    H244836   0.378   1.312  11.126  0.8064  1.0568 -0.2555
 6881TIP3   OH244837   1.479   5.844  10.807 -0.0323 -0.2886 -0.0004
 6881TIP3    H144838   1.496   5.757  10.771 -0.4252 -0.4411  0.1743
 6881TIP3    H244839   1.390   5.865  10.778 -0.9613 -1.0398  2.0695
 6882TIP3   OH244840   2.023   2.988  10.498  0.2965 -0.5694  0.1248
 6882TIP3    H144841   2.001   3.022  10.411 -3.3095 -1.7883  0.3969
 6882TIP3    H244842   1.989   3.054  10.559 -0.7819 -1.5521  0.6057
 6883TIP3   OH244843   5.157   1.625  12.914  0.0093 -0.4544  0.1279
 6883TIP3    H144844   5.079   1.577  12.886  0.9004 -1.9963  0.1790
 6883TIP3    H244845   5.138   1.653  13.003 -0.5550 -0.6292  0.0682
 6884TIP3   OH244846   1.765   4.182  10.686 -0.2787 -0.1812  0.1557
 6884TIP3    H144847   1.827   4.147  10.749  0.3414  0.3327 -0.1586
 6884TIP3    H244848   1.753   4.274  10.711 -0.3212 -0.0735 -0.2399
 6885TIP3   OH244849   7.322   5.209  11.128 -0.3893 -0.0264 -0.3064
 6885TIP3    H144850   7.240   5.160  11.118 -1.5299  1.7400  0.0592
 6885TIP3    H244851   7.358   5.212  11.040 -1.8581  1.0413 -0.9217
 6886TIP3   OH244852   0.398   0.703  12.108  0.2552 -0.0327 -0.2071
 6886TIP3    H144853   0.373   0.784  12.064  0.5356  0.7555  1.0346
 6886TIP3    H244854   0.492   0.712  12.124  0.3935 -0.8361 -0.5191
 6887TIP3   OH244855   7.525   6.362  10.613 -0.0740  0.0110 -0.3226
 6887TIP3    H144856   7.451   6.373  10.673 -0.8765 -1.1008 -1.0952
 6887TIP3    H244857   7.493   6.306  10.543  1.6858 -1.0762 -0.3362
 6888TIP3   OH244858   0.798   1.291  12.997  0.1676 -0.3768 -0.6782
 6888TIP3    H144859   0.848   1.216  13.027 -1.4946 -1.1086  0.3942
 6888TIP3    H244860   0.851   1.367  13.023  1.2500 -1.1276 -0.6325
 6889TIP3   OH244861   1.496   2.408  11.290 -0.3167  0.0590  0.0552
 6889TIP3    H144862   1.556   2.386  11.362  1.1520  0.8821 -0.8688
 6889TIP3    H244863   1.533   2.488  11.252 -2.1497  0.7231 -0.4187
 6890TIP3   OH244864   6.911   7.312  11.627  0.0802 -0.1792  0.1869
 6890TIP3    H144865   6.829   7.329  11.673 -0.5305  0.6048 -1.1312
 6890TIP3    H244866   6.897   7.349  11.540  2.2856  1.1498  0.3175
 6891TIP3   OH244867   4.942   0.113  11.471  0.2345  0.1053 -0.1099
 6891TIP3    H144868   4.909   0.202  11.486  1.0179  0.3272  0.3881
 6891TIP3    H244869   5.033   0.126  11.445 -0.1679 -0.4676 -1.9188
 6892TIP3   OH244870   3.408   0.653  10.425  0.0428 -0.2469  0.9676
 6892TIP3    H144871   3.337   0.590  10.415 -0.4565  0.4392 -0.0609
 6892TIP3    H244872   3.367   0.729  10.467  0.0634  0.2830  0.0669
 6893TIP3   OH244873   3.377   1.752  12.119 -0.2349 -0.2080 -0.2865
 6893TIP3    H144874   3.325   1.691  12.171 -2.3999 -1.6034 -3.7387
 6893TIP3    H244875   3.341   1.838  12.140  0.7357 -0.3691  2.3360
 6894TIP3   OH244876   3.464   6.846  12.469  0.4414 -0.2742 -0.0462
 6894TIP3    H144877   3.526   6.884  12.406 -0.1273 -0.8846 -0.9898
 6894TIP3    H244878   3.508   6.855  12.553  0.9716  1.0973 -0.4319
 6895TIP3   OH244879   3.623   3.115  12.750  0.2218 -0.0859  0.1777
 6895TIP3    H144880   3.532   3.124  12.720  0.2426  1.0243  0.4128
 6895TIP3    H244881   3.635   3.021  12.761 -0.9302 -0.2416  0.2376
 6896TIP3   OH244882   0.169   2.446  12.197 -0.2720  0.0772  0.2172
 6896TIP3    H144883   0.198   2.505  12.128  0.8786 -0.5219  0.1549
 6896TIP3    H244884   0.220   2.471  12.273 -2.4056  1.5522  1.2707
 6897TIP3   OH244885   0.864   3.603  11.005  0.5546 -0.3926  0.1184
 6897TIP3    H144886   0.805   3.562  11.069  0.5961 -0.0569  0.3739
 6897TIP3    H244887   0.934   3.538  10.993 -0.7975 -1.6172 -1.6006
 6898TIP3   OH244888   0.110   1.240  11.738  0.1146 -0.0376  0.6168
 6898TIP3    H144889   0.070   1.273  11.818 -1.2749  1.1336 -0.4947
 6898TIP3    H244890   0.197   1.280  11.736 -0.7784  2.0066  0.3307
 6899TIP3   OH244891   0.814   2.841  10.831  0.4550  0.0104 -0.5620
 6899TIP3    H144892   0.816   2.888  10.747 -1.6994 -0.1294 -0.7563
 6899TIP3    H244893   0.750   2.890  10.883  0.7399 -0.7244  0.4866
 6900TIP3   OH244894   5.228   6.510  11.500 -0.8787  0.6501 -0.4675
 6900TIP3    H144895   5.184   6.467  11.427 -1.4278 -0.2552  0.3739
 6900TIP3    H244896   5.167   6.503  11.573  0.1536  0.4402  0.4114
 6901TIP3   OH244897   6.749   6.081  12.032 -0.3170 -0.1246 -0.1791
 6901TIP3    H144898   6.700   6.140  12.088 -1.2336  0.0503 -1.1268
 6901TIP3    H244899   6.697   6.000  12.031  0.1091 -0.3998 -0.1275
 6902TIP3   OH244900   0.500   5.608  13.152 -0.2277 -0.1287 -0.3131
 6902TIP3    H144901   0.415   5.651  13.153  0.1686  0.6776 -0.0492
 6902TIP3    H244902   0.482   5.516  13.170 -1.0854 -0.0568 -0.7685
 6903TIP3   OH244903   7.351   3.811  10.704  0.3355 -0.3755  0.4800
 6903TIP3    H144904   7.394   3.896  10.701 -0.9030  0.2419 -1.0188
 6903TIP3    H244905   7.329   3.791  10.613 -1.8432 -1.0008  1.0626
 6904TIP3   OH244906   7.119   7.245  12.579 -0.1237 -0.2291  0.1490
 6904TIP3    H144907   7.042   7.246  12.636  0.7478  0.2547  1.3603
 6904TIP3    H244908   7.085   7.216  12.494 -1.8324  0.9594  0.3604
 6905TIP3   OH244909   4.750   5.664  11.545  0.1057  0.5357  0.3802
 6905TIP3    H144910   4.785   5.700  11.463  0.3023 -0.1975  0.1359
 6905TIP3    H244911   4.696   5.735  11.581 -0.9381  0.4721 -0.9637
 6906TIP3   OH244912   4.849   3.477  11.049 -0.3941 -0.9866  0.4205
 6906TIP3    H144913   4.944   3.469  11.050 -0.2854  0.1389  0.9393
 6906TIP3    H244914   4.822   3.454  11.138 -0.4776 -0.0375  0.6458
 6907TIP3   OH244915   1.472   6.787  12.316 -0.2434 -0.1746  0.0295
 6907TIP3    H144916   1.484   6.717  12.380 -0.0205 -0.2053 -0.0490
 6907TIP3    H244917   1.553   6.837  12.319 -0.1818 -0.2522 -0.3294
 6908TIP3   OH244918   3.894   4.380  11.112 -0.0425 -0.1016  0.5355
 6908TIP3    H144919   3.947   4.304  11.138  0.7090  0.5955  1.1201
 6908TIP3    H244920   3.958   4.450  11.098 -0.5940  0.0430 -1.4901
 6909TIP3   OH244921   3.879   1.036  11.972  0.1515 -0.0548  0.5324
 6909TIP3    H144922   3.952   1.088  12.007  0.9831 -0.2760 -0.8256
 6909TIP3    H244923   3.858   0.974  12.042 -0.2497  1.4705  1.8252
 6910TIP3   OH244924   7.418   1.200  12.976 -0.1795 -0.1889 -0.6216
 6910TIP3    H144925   7.340   1.222  13.026 -0.1331 -2.0304  0.3582
 6910TIP3    H244926   7.389   1.133  12.914  0.4233 -0.2262 -0.8740
 6911TIP3   OH244927   5.074   1.167  11.430 -0.0143 -0.1881  0.1136
 6911TIP3    H144928   5.041   1.176  11.341 -3.2259 -1.1423  1.0730
 6911TIP3    H244929   5.157   1.120  11.421 -0.4814 -0.6551 -2.3148
 6912TIP3   OH244930   5.889   7.065  11.089  0.4381  0.7471 -0.2556
 6912TIP3    H144931   5.944   7.094  11.016  0.4319  2.4000  0.3338
 6912TIP3    H244932   5.881   7.143  11.145  0.4826 -0.4798  1.5385
 6913TIP3   OH244933   6.374   5.146  11.343  1.3443  0.0273 -0.1126
 6913TIP3    H144934   6.289   5.189  11.350  0.2811 -2.0809  1.0636
 6913TIP3    H244935   6.435   5.207  11.384  0.0226  0.6839  0.9800
 6914TIP3   OH244936   1.817   5.862  12.439 -0.0705 -0.3095 -0.0396
 6914TIP3    H144937   1.827   5.829  12.350 -1.5606 -0.3899 -0.2121
 6914TIP3    H244938   1.745   5.811  12.475  0.9247 -0.7196  1.4466
 6915TIP3   OH244939   6.983   7.443  12.122 -0.3714  0.0284  0.7682
 6915TIP3    H144940   7.062   7.465  12.073 -0.1071 -0.6912  0.8587
 6915TIP3    H244941   6.911   7.482  12.071 -0.0079  0.2349  0.4058
 6916TIP3   OH244942   0.954   2.656  11.933  0.7150 -0.7625  0.4182
 6916TIP3    H144943   1.047   2.633  11.936  0.6772 -0.8341  0.9559
 6916TIP3    H244944   0.932   2.651  11.840  0.6046 -3.2913  0.5151
 6917TIP3   OH244945   7.207   5.300  12.968 -0.2169  0.6985  0.0699
 6917TIP3    H144946   7.254   5.316  12.886  0.0234 -1.2332 -0.2148
 6917TIP3    H244947   7.152   5.378  12.980  0.4485  1.4280 -1.4253
 6918TIP3   OH244948   4.604   6.070  13.381  0.3679 -0.1909 -0.6438
 6918TIP3    H144949   4.580   6.103  13.467  2.0926 -1.8999  0.5979
 6918TIP3    H244950   4.698   6.086  13.374  0.0503  1.1403 -2.8331
 6919TIP3   OH244951   4.017   7.629  10.681 -0.3245 -0.5932  0.2585
 6919TIP3    H144952   4.109   7.603  10.693 -0.9205 -3.2963 -0.3558
 6919TIP3    H244953   4.008   7.638  10.586 -0.2976  1.5371  0.4147
 6920TIP3   OH244954   5.698   2.242  10.930  0.0886 -0.0176  0.1244
 6920TIP3    H144955   5.747   2.264  11.010 -1.2232 -0.3833  1.0590
 6920TIP3    H244956   5.729   2.154  10.907 -1.0063 -0.8000  1.4636
 6921TIP3   OH244957   5.879   6.177  13.081  0.1498 -0.2978  0.2748
 6921TIP3    H144958   5.842   6.265  13.082  1.4254  0.3543 -1.8466
 6921TIP3    H244959   5.969   6.190  13.050  0.2424 -2.3707 -0.4774
 6922TIP3   OH244960   7.150   0.901  12.359  0.3224 -0.4347 -0.2986
 6922TIP3    H144961   7.164   0.952  12.279 -0.6800 -0.1506 -0.3072
 6922TIP3    H244962   7.177   0.812  12.335 -0.1307 -0.3871 -1.0107
 6923TIP3   OH244963   2.910   1.782  11.153  0.2941  0.5841 -0.5127
 6923TIP3    H144964   2.874   1.807  11.067 -1.5966  0.0950  0.0939
 6923TIP3    H244965   2.946   1.695  11.138 -1.4024 -0.1580 -0.4976
 6924TIP3   OH244966   0.291   2.839  10.196  0.2531 -0.1286 -0.1973
 6924TIP3    H144967   0.343   2.850  10.275 -0.2959 -3.4299  0.7750
 6924TIP3    H244968   0.305   2.747  10.170 -3.1333 -0.4915 -1.2525
 6925TIP3   OH244969   1.136   2.008  11.118  0.3401  0.4335 -0.0698
 6925TIP3    H144970   1.135   2.085  11.062 -0.7190  0.9518  0.6450
 6925TIP3    H244971   1.098   1.939  11.065  0.9957  0.4722 -0.6002
 6926TIP3   OH244972   2.752   0.358  11.615 -0.0888  0.2886  0.2969
 6926TIP3    H144973   2.790   0.444  11.602  0.0224 -0.0262 -1.8660
 6926TIP3    H244974   2.816   0.310  11.667  0.1116  1.3100  1.0143
 6927TIP3   OH244975   4.326   1.208  10.477  0.4703  0.0181 -0.6720
 6927TIP3    H144976   4.384   1.243  10.409 -0.9736  1.5410 -1.1963
 6927TIP3    H244977   4.369   1.232  10.559 -1.0720  4.6440 -0.9280
 6928TIP3   OH244978   1.925   5.777  12.677  0.3318 -0.1544 -0.1907
 6928TIP3    H144979   1.845   5.773  12.729 -0.2656 -3.2312 -1.1300
 6928TIP3    H244980   1.898   5.818  12.595  0.5219  1.6733  0.6082
 6929TIP3   OH244981   4.854   6.149  11.829 -0.3292  0.1911  0.1153
 6929TIP3    H144982   4.894   6.062  11.816  0.2741  0.4398  0.2494
 6929TIP3    H244983   4.909   6.190  11.896  0.4758  1.3365 -1.1896
 6930TIP3   OH244984   2.860   7.500  10.082 -0.2603 -0.3858 -0.2911
 6930TIP3    H144985   2.949   7.495  10.116 -0.7500  0.7464  1.2869
 6930TIP3    H244986   2.866   7.562  10.009  0.0846  0.4783  0.4556
 6931TIP3   OH244987   6.443   1.904  10.999  0.1350  0.0543  0.0897
 6931TIP3    H144988   6.509   1.967  10.970  0.0184 -0.9022 -2.5019
 6931TIP3    H244989   6.365   1.956  11.016  0.9567  0.9557  1.2770
 6932TIP3   OH244990   0.304   2.499  11.564 -0.3354 -0.4366 -0.1357
 6932TIP3    H144991   0.362   2.459  11.628  0.6447  1.4699  0.2471
 6932TIP3    H244992   0.216   2.487  11.600  0.0653 -0.7596  0.7699
 6933TIP3   OH244993   4.006   4.990  12.808 -0.7835  0.3829  0.3186
 6933TIP3    H144994   3.968   5.069  12.769 -1.4962 -0.1871 -0.1788
 6933TIP3    H244995   4.096   4.987  12.776 -0.5251  1.3800  0.9355
 6934TIP3   OH244996   5.390   5.143  12.252 -0.5393 -0.4400 -0.4250
 6934TIP3    H144997   5.383   5.233  12.220 -2.1772 -0.1555  0.6112
 6934TIP3    H244998   5.484   5.127  12.259 -0.2160  0.8369 -1.5706
 6935TIP3   OH244999   3.322   2.355  13.035 -0.1591 -0.2791 -0.4589
 6935TIP3    H145000   3.391   2.290  13.048  0.2233  0.1110 -0.4902
 6935TIP3    H245001   3.256   2.311  12.982  0.7339 -0.2209 -1.6468
 6936TIP3   OH245002   3.933   6.965  13.092  0.0890 -0.4520 -0.3899
 6936TIP3    H145003   3.981   6.939  13.170 -0.8079  2.0832  1.1290
 6936TIP3    H245004   3.887   6.885  13.065 -0.3543 -1.2131  2.2759
 6937TIP3   OH245005   3.234   4.956  12.831 -0.5375 -0.3013  1.0495
 6937TIP3    H145006   3.289   4.886  12.798  0.6130 -0.2400  2.7241
 6937TIP3    H245007   3.196   4.922  12.913 -1.0597  0.5286  1.1750
 6938TIP3   OH245008   3.499   4.542  13.113  0.1219 -0.0143  0.2923
 6938TIP3    H145009   3.573   4.601  13.115  0.5080 -0.4072 -1.0444
 6938TIP3    H245010   3.428   4.593  13.075 -0.1782  0.2276  1.1583
 6939TIP3   OH245011   4.123   1.092  12.057  0.1505  0.1106 -0.4699
 6939TIP3    H145012   4.096   1.022  12.117 -0.5370  0.1531 -0.7252
 6939TIP3    H245013   4.218   1.083  12.052  0.1512 -0.2935  0.1345
 6940TIP3   OH245014   4.735   0.215  12.465  0.4202  0.3205  0.1159
 6940TIP3    H145015   4.714   0.301  12.501 -0.1076  0.2602 -0.0389
 6940TIP3    H245016   4.724   0.225  12.370 -0.7122 -0.1872  0.1666
 6941TIP3   OH245017   5.904   5.283  11.668 -0.1383 -0.1969 -0.2920
 6941TIP3    H145018   5.987   5.323  11.644 -0.0882  0.2900  0.6404
 6941TIP3    H245019   5.919   5.189  11.660  0.7257 -0.1483  0.5171
 6942TIP3   OH245020   4.645   0.621  11.001 -0.5579 -0.1165 -0.0010
 6942TIP3    H145021   4.583   0.653  10.936 -1.1177 -1.6589 -0.2704
 6942TIP3    H245022   4.598   0.630  11.085 -0.9972 -0.8874 -0.1571
 6943TIP3   OH245023   0.691   1.585  11.147  0.4503  0.1365  0.4607
 6943TIP3    H145024   0.764   1.576  11.209 -0.5158  0.3626  1.6659
 6943TIP3    H245025   0.716   1.661  11.094  1.1323  0.1641  0.7993
 6944TIP3   OH245026   4.682   2.889  12.533  0.0860 -0.2471 -0.4974
 6944TIP3    H145027   4.665   2.909  12.625  0.2392  0.5982 -0.6451
 6944TIP3    H245028   4.673   2.973  12.488  1.1372 -0.4388 -1.0907
 6945TIP3   OH245029   5.564   2.472  11.029  0.1529 -0.1573  0.4616
 6945TIP3    H145030   5.599   2.389  10.995 -0.1847 -0.5585  1.0744
 6945TIP3    H245031   5.487   2.489  10.975  0.2532 -0.2130  0.2997
 6946TIP3   OH245032   6.722   3.211  11.917 -0.3368 -0.4344 -0.1138
 6946TIP3    H145033   6.796   3.258  11.955 -0.9974  1.1606 -0.6925
 6946TIP3    H245034   6.674   3.177  11.993  0.0996 -0.0752  0.3322
 6947TIP3   OH245035   6.244   5.097  12.269  0.8121 -0.7207 -0.1240
 6947TIP3    H145036   6.338   5.096  12.281  0.8328  0.5262 -0.0851
 6947TIP3    H245037   6.231   5.075  12.177  1.2137  0.2111 -0.4152
 6948TIP3   OH245038   2.739   1.539  11.454  0.1228  0.2206 -0.3281
 6948TIP3    H145039   2.798   1.610  11.430 -0.7775  0.1169 -3.1107
 6948TIP3    H245040   2.765   1.466  11.399  0.4436 -1.3893  1.8490
 6949TIP3   OH245041   4.490   4.822  11.767 -0.4040 -0.0899  0.4346
 6949TIP3    H145042   4.512   4.908  11.730  0.4229 -0.1374  0.7952
 6949TIP3    H245043   4.568   4.769  11.752 -0.5642 -0.5074  1.0337
 6950TIP3   OH245044   5.030   7.320  11.372 -0.3796  0.4661 -0.3647
 6950TIP3    H145045   5.028   7.395  11.433  0.1450  0.6011 -0.5119
 6950TIP3    H245046   5.032   7.243  11.429 -1.7449  0.5189 -0.1996
 6951TIP3   OH245047   6.716   6.266  11.281 -0.4352 -0.0113 -0.8630
 6951TIP3    H145048   6.795   6.313  11.309 -0.2489 -0.6797 -0.2589
 6951TIP3    H245049   6.747   6.204  11.215 -0.1659 -1.4097  0.5307
 6952TIP3   OH245050   2.472   2.332  11.973  0.4601 -0.1050 -0.5687
 6952TIP3    H145051   2.433   2.246  11.986  0.9279 -0.2729 -0.2462
 6952TIP3    H245052   2.523   2.347  12.052 -0.3549  0.8680 -0.2064
 6953TIP3   OH245053   2.325   5.143  12.284 -0.1042 -0.3364  0.3445
 6953TIP3    H145054   2.403   5.141  12.340  0.9868  1.0387 -1.0436
 6953TIP3    H245055   2.286   5.229  12.300 -0.6379 -0.5322  0.1116
 6954TIP3   OH245056   5.576   2.954  11.184  0.2709 -0.6660  0.5568
 6954TIP3    H145057   5.565   3.049  11.192 -0.1124 -0.6584  0.0166
 6954TIP3    H245058   5.522   2.918  11.253  0.3806 -0.4916  0.7361
 6955TIP3   OH245059   5.457   5.519  11.761 -0.2177  0.3843  0.3013
 6955TIP3    H145060   5.524   5.572  11.716  1.6515 -1.2556  0.9830
 6955TIP3    H245061   5.502   5.485  11.839 -2.3185  0.3444  1.5691
 6956TIP3   OH245062   1.106   0.464  11.133 -0.3996  0.0961 -0.5387
 6956TIP3    H145063   1.194   0.428  11.148 -0.3775  0.3513 -0.0012
 6956TIP3    H245064   1.050   0.388  11.121 -0.0257 -0.0552 -1.3546
 6957TIP3   OH245065   2.948   4.424  10.652  0.0109 -0.1250 -0.3062
 6957TIP3    H145066   2.859   4.403  10.626 -0.3532 -0.7018  1.2724
 6957TIP3    H245067   2.938   4.491  10.720  0.7383 -0.4577  0.1484
 6958TIP3   OH245068   0.718   4.443  10.909  0.2809 -0.1441  0.2196
 6958TIP3    H145069   0.645   4.393  10.946 -1.0625  1.6447  0.1227
 6958TIP3    H245070   0.785   4.442  10.978 -1.3186  1.2990  1.8706
 6959TIP3   OH245071   1.956   0.628  12.312  0.4554 -0.0821  0.0144
 6959TIP3    H145072   2.010   0.549  12.325 -1.3012 -1.2881  0.3695
 6959TIP3    H245073   1.963   0.675  12.395 -2.9914 -2.8616  2.1979
 6960TIP3   OH245074   3.147   0.014  10.696  0.2188  0.3524  0.1522
 6960TIP3    H145075   3.081   0.056  10.751 -1.9648  0.4007 -2.3194
 6960TIP3    H245076   3.161   0.075  10.624  1.6946 -0.4478 -0.2880
 6961TIP3   OH245077   5.128   1.302  12.955 -0.0896 -0.2924  0.7608
 6961TIP3    H145078   5.176   1.285  13.037  0.5515 -0.2895  0.3936
 6961TIP3    H245079   5.068   1.373  12.978  1.3330  0.9509  0.7963
 6962TIP3   OH245080   1.238   2.590  11.543  0.2745 -0.0980  0.3146
 6962TIP3    H145081   1.248   2.593  11.448 -2.3065 -1.9243 -0.1115
 6962TIP3    H245082   1.270   2.503  11.567  0.9985  0.3905  1.1634
 6963TIP3   OH245083   1.045   0.952  12.541  0.5569 -0.2602 -0.2845
 6963TIP3    H145084   0.961   0.997  12.539  1.2764  1.2197  0.5557
 6963TIP3    H245085   1.103   1.007  12.488  1.7681  0.6127  1.7805
 6964TIP3   OH245086   4.217   6.641  11.560  0.2466 -0.1907 -0.2656
 6964TIP3    H145087   4.305   6.676  11.547  0.0492  0.6469  0.5481
 6964TIP3    H245088   4.172   6.708  11.611 -0.9739 -0.4560 -0.9563
 6965TIP3   OH245089   2.363   1.231  12.383 -0.1544 -0.1630 -0.2827
 6965TIP3    H145090   2.336   1.152  12.337 -0.5621 -0.7319  0.9048
 6965TIP3    H245091   2.366   1.206  12.475  3.3961  0.1113 -0.1596
 6966TIP3   OH245092   1.349   4.149  12.569 -0.0032  0.2647  0.2508
 6966TIP3    H145093   1.438   4.149  12.535 -0.3769 -1.8405 -0.8985
 6966TIP3    H245094   1.354   4.200  12.650  1.8313  1.7622 -0.7201
 6967TIP3   OH245095   7.346   0.035  11.365 -0.0039 -0.1181  0.0356
 6967TIP3    H145096   7.380   0.022  11.276  0.6818 -0.6556  0.3659
 6967TIP3    H245097   7.370   0.125  11.387  1.1889 -0.4805  0.2495
 6968TIP3   OH245098   1.985   1.546  12.431 -0.0433 -0.6453  0.0024
 6968TIP3    H145099   2.056   1.493  12.394 -1.1717 -1.6509 -0.7931
 6968TIP3    H245100   1.969   1.507  12.517  0.5620 -0.2096  0.3237
 6969TIP3   OH245101   2.065   3.653  10.422 -0.1140 -0.2394  0.7684
 6969TIP3    H145102   2.140   3.664  10.364 -1.2833  0.1643 -0.7004
 6969TIP3    H245103   2.039   3.561  10.411 -0.6659 -0.0227  0.2377
 6970TIP3   OH245104   4.597   3.159  11.725 -0.0556 -0.2119  0.2432
 6970TIP3    H145105   4.505   3.160  11.700 -0.0052  2.8664 -0.1198
 6970TIP3    H245106   4.599   3.110  11.807 -1.9040 -0.8391 -0.0488
 6971TIP3   OH245107   4.553   6.988  10.736  0.0643  0.3923 -0.0933
 6971TIP3    H145108   4.496   6.933  10.682  1.4596  0.2771 -1.5324
 6971TIP3    H245109   4.637   6.942  10.737  0.5605  1.2730  0.7685
 6972TIP3   OH245110   7.165   4.350  12.469 -0.4075 -0.0136  0.1617
 6972TIP3    H145111   7.255   4.320  12.481 -0.4067  0.2245  0.7633
 6972TIP3    H245112   7.148   4.406  12.544 -1.2071 -0.4100  0.2824
 6973TIP3   OH245113   1.641   2.950  12.261  0.6362 -0.2611  0.1692
 6973TIP3    H145114   1.655   3.045  12.256  1.0645 -0.1518  2.4685
 6973TIP3    H245115   1.550   2.938  12.234  0.9122  0.6241 -1.3103
 6974TIP3   OH245116   0.832   0.611  11.471  0.1653 -0.2668  0.1045
 6974TIP3    H145117   0.744   0.643  11.450 -0.1468 -1.6355 -0.8273
 6974TIP3    H245118   0.891   0.669  11.423 -0.0073  2.1557  2.5521
 6975TIP3   OH245119   3.374   0.604  12.899  0.2081 -0.3152  0.1424
 6975TIP3    H145120   3.448   0.619  12.958  0.1799  2.2687 -0.3644
 6975TIP3    H245121   3.298   0.635  12.947 -0.1059 -0.0446 -0.5144
 6976TIP3   OH245122   3.047   1.903  12.036 -0.1824  0.3206 -0.1101
 6976TIP3    H145123   3.131   1.881  11.996  0.4412  0.0582  1.2786
 6976TIP3    H245124   2.982   1.865  11.978  0.7559 -2.3961  0.4546
 6977TIP3   OH245125   7.536   5.789  10.583 -0.3367 -0.6626 -0.1463
 6977TIP3    H145126   7.474   5.721  10.607  0.2796 -1.5523 -0.9970
 6977TIP3    H245127   7.607   5.742  10.539  0.1006  0.5269 -0.7469
 6978TIP3   OH245128   1.958   3.390  10.443  0.0490 -0.1755  0.5528
 6978TIP3    H145129   1.920   3.340  10.515 -1.2960 -0.2220 -0.1562
 6978TIP3    H245130   1.940   3.337  10.365  1.0491  0.1049  0.1082
 6979TIP3   OH245131   3.365   0.933  11.780  0.1041 -0.4555 -0.4844
 6979TIP3    H145132   3.404   0.995  11.841  0.3417  0.6412 -1.6975
 6979TIP3    H245133   3.271   0.935  11.800  0.2230 -0.4022  0.0861
 6980TIP3   OH245134   5.637   6.989  10.903 -0.4188  0.3819 -0.0449
 6980TIP3    H145135   5.615   6.900  10.933 -0.9521 -0.1436 -1.9036
 6980TIP3    H245136   5.692   7.024  10.973 -0.9539 -1.0727  1.1575
 6981TIP3   OH245137   3.491   6.536  12.720 -0.6137  0.2931 -0.0623
 6981TIP3    H145138   3.496   6.602  12.790  0.3371 -0.0628  0.2179
 6981TIP3    H245139   3.568   6.481  12.734 -1.6189 -1.1501 -0.0215
 6982TIP3   OH245140   3.106   6.293  11.865  0.3695 -0.2424  0.1964
 6982TIP3    H145141   3.084   6.376  11.824  1.4385  0.4230  0.9316
 6982TIP3    H245142   3.186   6.264  11.820  0.7117 -0.2451  0.8044
 6983TIP3   OH245143   1.195   6.679  11.245  0.6635 -0.3690  0.4352
 6983TIP3    H145144   1.268   6.617  11.247 -0.0908 -1.2776  0.4878
 6983TIP3    H245145   1.149   6.665  11.327  0.5182  0.3137  0.4753
 6984TIP3   OH245146   7.095   6.268  12.243 -0.3293  0.6762  0.2268
 6984TIP3    H145147   7.175   6.273  12.295 -0.9351  0.4242  1.1904
 6984TIP3    H245148   7.031   6.225  12.300 -1.1112  0.7251 -0.5889
 6985TIP3   OH245149   4.404   4.406  11.767 -0.5202 -0.3581  0.2010
 6985TIP3    H145150   4.393   4.328  11.822 -2.9700  0.9113  1.7100
 6985TIP3    H245151   4.322   4.455  11.780  0.6628  2.1451 -1.2014
 6986TIP3   OH245152   7.145   6.849  11.171 -0.1626 -0.5974 -0.2592
 6986TIP3    H145153   7.080   6.786  11.203 -1.7218  1.4434  0.8199
 6986TIP3    H245154   7.123   6.861  11.079  0.8465 -2.3750 -0.7764
 6987TIP3   OH245155   6.614   4.982  11.074  0.2848 -0.3008  0.2476
 6987TIP3    H145156   6.668   5.015  11.146  2.3386  2.1745 -2.1876
 6987TIP3    H245157   6.662   4.904  11.043  1.6786  0.9153 -0.8289
 6988TIP3   OH245158   6.438   7.469  12.568 -0.2450 -0.0236 -0.1834
 6988TIP3    H145159   6.433   7.562  12.589 -0.5862 -0.1893  0.5060
 6988TIP3    H245160   6.487   7.431  12.641 -1.5368 -0.6285  0.4120
 6989TIP3   OH245161   2.058   1.692  11.580  0.6683 -0.6421 -0.2908
 6989TIP3    H145162   2.135   1.741  11.608  0.6043  0.5824 -2.0612
 6989TIP3    H245163   2.035   1.638  11.655  0.9431  1.7929  1.7030
 6990TIP3   OH245164   6.741   4.409  11.405  0.0249  0.1344 -0.1434
 6990TIP3    H145165   6.788   4.491  11.393  1.0175 -0.4743 -0.5164
 6990TIP3    H245166   6.756   4.386  11.497  0.5024 -0.0829 -0.2738
 6991TIP3   OH245167   0.306   7.118  11.916  0.0306  0.2224 -0.2152
 6991TIP3    H145168   0.392   7.111  11.957 -0.7180  0.1313  1.4013
 6991TIP3    H245169   0.323   7.160  11.832  1.9928 -2.1512 -1.1386
 6992TIP3   OH245170   7.591   0.133  10.825 -0.5060  0.0968 -0.3370
 6992TIP3    H145171   7.585   0.129  10.921 -0.4894  0.7870 -0.3053
 6992TIP3    H245172   7.635   0.216  10.807  0.5818 -0.5669 -0.8991
 6993TIP3   OH245173   7.242   5.934  12.101 -0.2802  0.1906 -0.5698
 6993TIP3    H145174   7.238   5.838  12.102 -1.7948  0.1948 -1.8823
 6993TIP3    H245175   7.289   5.955  12.020  0.5781  0.5712  0.0114
 6994TIP3   OH245176   7.188   5.312  11.846  0.6676 -0.3485 -0.9643
 6994TIP3    H145177   7.231   5.328  11.762  1.5247 -0.2665 -0.5240
 6994TIP3    H245178   7.117   5.252  11.825  0.7287 -0.1526 -1.7830
 6995TIP3   OH245179   3.065   6.976  10.428  0.2625  0.3558 -0.2577
 6995TIP3    H145180   3.012   7.027  10.367 -1.0481 -0.9601 -0.2759
 6995TIP3    H245181   3.137   6.943  10.376  0.8042  1.6600 -0.3780
 6996TIP3   OH245182   0.610   1.500  11.872  0.4690 -0.4663 -0.1593
 6996TIP3    H145183   0.602   1.584  11.826 -0.1241 -2.1435 -3.3895
 6996TIP3    H245184   0.562   1.514  11.954 -0.2886  2.0961 -0.9202
 6997TIP3   OH245185   3.056   6.789  11.354  0.2765  0.2645  0.1695
 6997TIP3    H145186   3.077   6.810  11.445 -0.4532  2.4260 -0.1037
 6997TIP3    H245187   2.960   6.786  11.352  0.0842  3.3859 -1.0554
 6998TIP3   OH245188   4.744   2.651  12.243  0.3170 -0.1683 -0.3596
 6998TIP3    H145189   4.757   2.741  12.213 -1.1560  0.6760  1.3376
 6998TIP3    H245190   4.817   2.634  12.302  0.5921 -0.0768 -0.6742
 6999TIP3   OH245191   5.403   0.215  10.934  0.1694 -0.2602  0.7474
 6999TIP3    H145192   5.416   0.308  10.915 -3.6227 -0.0988 -2.0885
 6999TIP3    H245193   5.330   0.213  10.996 -0.4418 -1.3024  0.0351
 7000TIP3   OH245194   1.990   2.519  12.711 -0.3582  0.1863  0.3898
 7000TIP3    H145195   1.953   2.598  12.673 -0.4863  0.0388  0.2071
 7000TIP3    H245196   1.926   2.450  12.693 -0.2026  0.0202  0.4581
 7001TIP3   OH245197   5.691   3.476  12.787 -0.0318 -0.0298 -0.2836
 7001TIP3    H145198   5.636   3.532  12.841  0.1244 -0.7852  0.6847
 7001TIP3    H245199   5.679   3.388  12.822  1.9418 -0.2006  0.1298
 7002TIP3   OH245200   0.761   1.692  11.563  0.0135  0.5837 -0.0321
 7002TIP3    H145201   0.748   1.612  11.511  1.4511 -0.0384  0.5064
 7002TIP3    H245202   0.855   1.694  11.580  0.0725  2.6431 -0.3978
 7003TIP3   OH245203   4.233   1.517  11.631 -0.2414  0.6760 -0.5555
 7003TIP3    H145204   4.230   1.609  11.604 -2.8340  0.6526 -0.6054
 7003TIP3    H245205   4.203   1.469  11.554  0.7786 -0.2002 -0.4171
 7004TIP3   OH245206   5.379   1.309  11.251 -0.3068 -0.3977 -0.0681
 7004TIP3    H145207   5.466   1.299  11.212 -0.4391  0.4036 -0.5838
 7004TIP3    H245208   5.393   1.363  11.328 -0.1450 -1.4440  0.6599
 7005TIP3   OH245209   2.947   6.149  11.243  0.2554 -0.0759  0.0269
 7005TIP3    H145210   2.921   6.241  11.246  0.4450 -0.0346  0.7999
 7005TIP3    H245211   2.998   6.136  11.323  0.8729 -0.6665 -0.4459
 7006TIP3   OH245212   4.095   4.905  12.496 -0.1410 -0.1267  0.1252
 7006TIP3    H145213   4.120   4.895  12.404  2.4735 -0.0945  0.7633
 7006TIP3    H245214   4.043   4.986  12.498  0.3726  0.2539 -1.2130
 7007TIP3   OH245215   5.145   6.862  11.648  0.0426  0.0149 -0.0837
 7007TIP3    H145216   5.087   6.929  11.611  1.1479  1.3109  0.4093
 7007TIP3    H245217   5.152   6.796  11.580  0.7271  1.5275 -1.5645
 7008TIP3   OH245218   2.911   4.292  13.310 -0.2411  0.1874 -0.1174
 7008TIP3    H145219   2.937   4.212  13.263  1.6650  0.8621 -0.3103
 7008TIP3    H245220   2.858   4.341  13.247  1.4009  0.5841 -1.2697
 7009TIP3   OH245221   1.527   0.669  11.444 -0.1807 -0.2650  0.1378
 7009TIP3    H145222   1.536   0.627  11.530  0.6945  4.2045  2.5496
 7009TIP3    H245223   1.617   0.688  11.417 -0.4369  3.1565  1.1428
 7010TIP3   OH245224   2.645   5.573  11.091  0.1787 -0.0224  0.8870
 7010TIP3    H145225   2.717   5.552  11.032  1.9708  0.9076  2.6309
 7010TIP3    H245226   2.571   5.592  11.033  1.3277 -0.9389 -0.9646
 7011TIP3   OH245227   7.251   5.715  10.905  0.4033 -0.2972 -0.1791
 7011TIP3    H145228   7.162   5.746  10.892  0.0659 -0.0022  2.3954
 7011TIP3    H245229   7.302   5.794  10.923  1.0406 -0.5552 -0.7690
 7012TIP3   OH245230   7.434   3.789  10.431  0.5307 -0.1356 -0.7153
 7012TIP3    H145231   7.509   3.739  10.460  0.7527 -0.8902 -2.4547
 7012TIP3    H245232   7.471   3.870  10.396  0.4271 -0.0254 -0.5734
 7013TIP3   OH245233   2.686   6.983  12.969  0.5870  0.3903  0.1989
 7013TIP3    H145234   2.647   7.069  12.979 -2.4596 -0.9191  0.6834
 7013TIP3    H245235   2.715   6.959  13.057  0.1541  0.3794  0.3405
 7014TIP3   OH245236   5.228   7.383  12.282 -0.3317 -0.0132  0.2195
 7014TIP3    H145237   5.205   7.290  12.284  1.4537 -0.5047  0.0968
 7014TIP3    H245238   5.321   7.385  12.303 -0.1995  1.7089 -0.3352
 7015TIP3   OH245239   1.682   1.007  11.963 -0.1573  0.3623 -0.1373
 7015TIP3    H145240   1.599   1.037  11.999  0.0861 -0.3822  1.0766
 7015TIP3    H245241   1.742   1.079  11.978 -0.5443  0.8760 -0.9568
 7016TIP3   OH245242   3.109   4.392  13.071 -0.3615 -0.4418  0.3051
 7016TIP3    H145243   3.174   4.329  13.104  1.6972  0.9267 -0.8799
 7016TIP3    H245244   3.029   4.371  13.119  0.5564 -3.1180  0.8578
 7017TIP3   OH245245   4.363   6.726  10.911 -0.0734 -0.3960  0.9012
 7017TIP3    H145246   4.371   6.662  10.840 -0.4312 -0.4937  0.9449
 7017TIP3    H245247   4.311   6.797  10.874 -0.0750 -0.3471  0.9964
 7018TIP3   OH245248   0.025   2.658  10.212 -0.4914 -0.0455 -0.3641
 7018TIP3    H145249   0.015   2.752  10.196 -0.4189 -0.2361 -1.7192
 7018TIP3    H245250   0.120   2.644  10.212 -0.3477  0.3037  2.8654
 7019TIP3   OH245251   4.153   1.400  12.195  0.3633 -0.3861  0.2215
 7019TIP3    H145252   4.156   1.406  12.291  0.5465 -1.2557  0.2795
 7019TIP3    H245253   4.241   1.375  12.170  0.0324 -1.2771 -0.0845
 7020TIP3   OH245254   2.744   2.733  13.222  0.4217 -0.0012 -0.0367
 7020TIP3    H145255   2.780   2.674  13.156 -0.1323  0.5735 -0.8757
 7020TIP3    H245256   2.806   2.806  13.226  0.1937  0.2068 -0.2914
 7021TIP3   OH245257   6.613   0.627  11.033  0.0520 -0.5713 -0.4345
 7021TIP3    H145258   6.629   0.554  11.094 -0.2870 -0.3969 -0.1331
 7021TIP3    H245259   6.626   0.589  10.946  1.5883 -0.5620 -0.2308
 7022TIP3   OH245260   7.340   2.420  12.458 -0.0396 -0.1787  0.8127
 7022TIP3    H145261   7.328   2.453  12.547 -0.9342  1.2669  0.1969
 7022TIP3    H245262   7.255   2.383  12.435 -0.0801  0.2501  0.2604
 7023TIP3   OH245263   6.716   7.492  12.018 -0.0185 -0.1889  0.5613
 7023TIP3    H145264   6.663   7.552  11.965  1.4430 -0.7119 -1.6112
 7023TIP3    H245265   6.675   7.495  12.105 -1.1873  2.3961  0.0237
 7024TIP3   OH245266   5.095   3.028  11.744 -0.1711  0.3942  0.1625
 7024TIP3    H145267   5.073   3.108  11.698 -0.9604  0.7267  1.0788
 7024TIP3    H245268   5.157   3.055  11.812  0.4036  0.0348 -0.2045
 7025TIP3   OH245269   6.183   2.323  10.834 -0.3104  0.1438 -0.8828
 7025TIP3    H145270   6.142   2.395  10.882  0.5543 -1.8446  3.2368
 7025TIP3    H245271   6.276   2.330  10.857 -0.0199 -1.5294 -1.4318
 7026TIP3   OH245272   6.139   4.583  12.328  0.2509  0.2950  0.0089
 7026TIP3    H145273   6.165   4.498  12.293 -0.1273  0.1605  0.0448
 7026TIP3    H245274   6.073   4.562  12.395  2.0045  0.4291  1.8753
 7027TIP3   OH245275   4.257   6.426  11.784 -0.2008  0.2812 -0.5608
 7027TIP3    H145276   4.338   6.418  11.733  0.3349  0.7082  0.1926
 7027TIP3    H245277   4.271   6.504  11.837 -1.9427  1.5532 -1.8600
 7028TIP3   OH245278   0.493   2.530  10.728  0.1365  0.0184 -0.2755
 7028TIP3    H145279   0.405   2.543  10.762 -0.6228 -1.9115 -1.3443
 7028TIP3    H245280   0.525   2.451  10.773  0.8183 -0.0266 -0.8148
 7029TIP3   OH245281   5.761   0.577  11.683 -0.3873  0.0884 -0.2981
 7029TIP3    H145282   5.777   0.657  11.732  0.3706 -0.5943  0.6130
 7029TIP3    H245283   5.835   0.571  11.622  0.8933 -1.1387  1.3141
 7030TIP3   OH245284   5.998   0.406  13.046 -0.0298 -0.0753 -0.0410
 7030TIP3    H145285   5.906   0.392  13.070  0.1107 -0.8793  0.0816
 7030TIP3    H245286   6.026   0.481  13.097 -0.7818  0.5360 -0.5152
 7031TIP3   OH245287   2.153   2.185  10.674  0.0765  0.5418  0.2527
 7031TIP3    H145288   2.138   2.255  10.738  0.3081  1.1204 -0.3161
 7031TIP3    H245289   2.212   2.124  10.719  1.0817  1.4698  0.2444
 7032TIP3   OH245290   6.474   5.580  10.930 -0.1947  0.5308 -0.3562
 7032TIP3    H145291   6.388   5.543  10.950 -0.7967  2.4340  0.8787
 7032TIP3    H245292   6.534   5.505  10.931 -1.7731 -0.7832 -0.9291
 7033TIP3   OH245293   2.914   3.620  12.867  0.5078  0.3674 -0.0069
 7033TIP3    H145294   2.878   3.535  12.894 -0.0318  0.3336 -0.8183
 7033TIP3    H245295   2.937   3.608  12.775 -0.3227  1.3437 -0.3536
 7034TIP3   OH245296   0.792   4.420  12.530 -0.3002  0.8382 -0.1193
 7034TIP3    H145297   0.710   4.467  12.517 -0.9259  0.5701  2.3421
 7034TIP3    H245298   0.788   4.388  12.620  1.6298 -0.9390 -0.5631
 7035TIP3   OH245299   6.169   3.495  11.361 -0.3948 -0.4378  0.2386
 7035TIP3    H145300   6.167   3.408  11.401  0.1489 -0.1690  0.8654
 7035TIP3    H245301   6.113   3.549  11.416 -2.8416 -0.9412 -1.5729
 7036TIP3   OH245302   3.874   1.127  10.854 -0.4641 -0.0240  0.3496
 7036TIP3    H145303   3.881   1.223  10.855  0.9614 -0.0785 -0.7607
 7036TIP3    H245304   3.891   1.103  10.763  0.6381 -1.4152  0.8803
 7037TIP3   OH245305   5.377   5.161  11.782 -0.0771  0.8283 -0.4910
 7037TIP3    H145306   5.379   5.222  11.708 -0.6627 -1.6510 -2.7331
 7037TIP3    H245307   5.469   5.138  11.797  0.0482  1.3785 -0.4072
 7038TIP3   OH245308   0.979   0.055  16.916  0.1587 -0.3014  0.5370
 7038TIP3    H145309   0.975   0.092  16.828  1.6289 -0.4199  0.3911
 7038TIP3    H245310   1.068   0.020  16.923 -0.4188 -1.6543  1.5326
 7039TIP3   OH245311   5.715   3.450  13.145  0.2164 -0.1697  0.8975
 7039TIP3    H145312   5.629   3.421  13.175  0.4251  0.6437  2.3978
 7039TIP3    H245313   5.710   3.446  13.050 -1.5882  0.1619  0.9429
 7040TIP3   OH245314   4.914   0.177  11.123 -0.2386  0.6747 -0.4738
 7040TIP3    H145315   4.909   0.259  11.074 -1.9616  0.6679 -0.3893
 7040TIP3    H245316   4.829   0.171  11.168  0.7732  0.0139  1.4355
 7041TIP3   OH245317   2.202   4.364  12.659  0.0864 -0.2228  0.3186
 7041TIP3    H145318   2.136   4.395  12.597 -3.3192 -1.0099  3.2358
 7041TIP3    H245319   2.231   4.280  12.624  1.7365  1.3275 -2.3824
 7042TIP3   OH245320   4.848   5.390  11.337  0.1865 -0.4079 -0.5998
 7042TIP3    H145321   4.781   5.327  11.364 -0.2705  0.2451 -0.1800
 7042TIP3    H245322   4.927   5.360  11.381  0.4402 -1.7660 -1.8791
 7043TIP3   OH245323   1.178   5.449  10.990  0.5684 -0.7772  0.0690
 7043TIP3    H145324   1.152   5.396  11.065  1.2586 -0.8682  0.2456
 7043TIP3    H245325   1.132   5.532  11.002 -1.2662 -1.6223 -0.6981
 7044TIP3   OH245326   6.826   0.164  11.937 -0.4527 -0.3465  0.6587
 7044TIP3    H145327   6.875   0.155  12.019 -0.7478  0.1672  0.8984
 7044TIP3    H245328   6.743   0.203  11.963 -0.3884  0.2102  0.0638
 7045TIP3   OH245329   6.242   7.524  12.110  0.5464 -0.3801  0.7992
 7045TIP3    H145330   6.296   7.448  12.132  1.3246  0.0316  0.3928
 7045TIP3    H245331   6.305   7.588  12.078  0.1085  0.9789  2.4917
 7046TIP3   OH245332   5.577   1.867  11.228  0.0026 -0.1747  0.0717
 7046TIP3    H145333   5.491   1.857  11.270 -0.0108 -1.8759 -0.3033
 7046TIP3    H245334   5.631   1.799  11.268  0.6949 -0.2162 -0.9101
 7047TIP3   OH245335   7.013   0.525  12.338  0.3255 -0.5045 -0.1410
 7047TIP3    H145336   6.992   0.598  12.280 -1.2652 -0.0650  0.9179
 7047TIP3    H245337   7.108   0.531  12.351  0.2555  1.3129 -0.1860
 7048TIP3   OH245338   5.795   6.725  11.486  0.1354  0.1225 -0.4639
 7048TIP3    H145339   5.809   6.642  11.441 -0.4507  0.6193 -1.6116
 7048TIP3    H245340   5.880   6.770  11.479  0.2449 -0.0811 -0.4582
 7049TIP3   OH245341   6.131   6.961  11.143  0.2740  0.3587  0.0100
 7049TIP3    H145342   6.044   6.998  11.152 -1.3995 -2.8206 -1.3768
 7049TIP3    H245343   6.151   6.968  11.050  0.6028 -0.6999 -0.0174
 7050TIP3   OH245344   3.285   3.233  12.981  0.1864  0.2081 -0.5317
 7050TIP3    H145345   3.377   3.257  12.971 -0.3187  2.6647  0.0498
 7050TIP3    H245346   3.238   3.294  12.924 -1.0759 -1.5875 -1.5278
 7051TIP3   OH245347   0.688   5.380  13.467  0.4938 -0.5156  0.2866
 7051TIP3    H145348   0.609   5.431  13.454 -0.2262 -0.7288  3.2454
 7051TIP3    H245349   0.674   5.300  13.415  0.0594  0.6267 -1.4343
 7052TIP3   OH245350   2.683   4.091  11.420 -0.2411  0.9524  0.1524
 7052TIP3    H145351   2.723   4.110  11.336  1.1306  0.5712  0.6925
 7052TIP3    H245352   2.644   4.004  11.410  2.5518 -0.4862  0.7437
 7053TIP3   OH245353   2.694   3.409  13.749 -0.1841 -1.1375  0.9723
 7053TIP3    H145354   2.740   3.382  13.828  0.0033  0.2518  1.3623
 7053TIP3    H245355   2.758   3.396  13.678 -0.6720 -3.3055  0.8646
 7054TIP3   OH245356   0.677   6.570  13.073 -0.1502 -0.2016 -0.0783
 7054TIP3    H145357   0.713   6.489  13.038 -0.3492 -0.4327  0.2452
 7054TIP3    H245358   0.742   6.600  13.137 -0.8730 -1.0317  1.0816
 7055TIP3   OH245359   2.051   3.499  13.486 -0.5564 -0.2199  0.0607
 7055TIP3    H145360   1.998   3.573  13.456 -1.6376 -0.6905  0.7241
 7055TIP3    H245361   2.013   3.423  13.441 -1.0254 -0.6780  1.1693
 7056TIP3   OH245362   1.630   1.009  13.287  0.8400 -0.3591  0.2205
 7056TIP3    H145363   1.694   1.075  13.263 -1.1183  0.8987 -2.0047
 7056TIP3    H245364   1.563   1.057  13.336 -0.2955 -0.7580 -0.8761
 7057TIP3   OH245365   7.336   1.059  13.320 -0.7595 -0.0565 -0.5616
 7057TIP3    H145366   7.260   1.026  13.367 -0.2858  0.6874  0.7886
 7057TIP3    H245367   7.299   1.110  13.248 -1.5230 -0.4910 -0.4819
 7058TIP3   OH245368   3.126   4.591  11.539  0.2036 -0.2399  0.6112
 7058TIP3    H145369   3.153   4.652  11.607 -1.4687  1.2375  0.0391
 7058TIP3    H245370   3.158   4.630  11.457 -0.2012 -0.5317  0.3100
 7059TIP3   OH245371   4.752   7.331  11.254  0.1680  0.2605  0.2347
 7059TIP3    H145372   4.840   7.364  11.271  1.3271 -2.3433 -0.1368
 7059TIP3    H245373   4.765   7.261  11.190 -1.9806 -1.0660  1.1311
 7060TIP3   OH245374   6.603   4.976  11.637 -0.1903  0.2580 -0.4148
 7060TIP3    H145375   6.539   5.014  11.697 -1.9384 -3.2031  0.1903
 7060TIP3    H245376   6.554   4.959  11.557  0.5446 -0.5121 -0.7205
 7061TIP3   OH245377   6.220   0.728  12.795  0.0906  0.2404 -0.2187
 7061TIP3    H145378   6.205   0.811  12.751  0.3307 -0.2784 -1.3233
 7061TIP3    H245379   6.135   0.684  12.795 -0.0700  0.5395  0.4998
 7062TIP3   OH245380   5.623   5.013  10.996 -0.4310 -0.2945  0.5351
 7062TIP3    H145381   5.593   4.979  10.911  1.3218 -0.7152  0.0256
 7062TIP3    H245382   5.647   5.104  10.978 -2.0057  0.2618  1.1095
 7063TIP3   OH245383   7.076   5.611  11.461 -0.5017 -0.1320  0.1680
 7063TIP3    H145384   7.060   5.690  11.409 -3.8583 -1.2097 -0.7352
 7063TIP3    H245385   7.138   5.560  11.410 -0.9888  0.4252 -1.0250
 7064TIP3   OH245386   1.863   7.642  11.712  0.5770 -0.2358 -0.4875
 7064TIP3    H145387   1.871   7.686  11.797  2.1293  0.8972 -1.1747
 7064TIP3    H245388   1.799   7.572  11.728  0.0360  0.5992  1.3286
 7065TIP3   OH245389   1.877   2.901  11.226  0.0160  0.6855 -0.8365
 7065TIP3    H145390   1.802   2.914  11.283  0.7719 -1.6640  0.8791
 7065TIP3    H245391   1.941   2.967  11.254  0.1890 -0.1222  0.7935
 7066TIP3   OH245392   6.838   5.460  11.396 -0.4521  0.0413  0.1286
 7066TIP3    H145393   6.856   5.551  11.421 -0.2987 -0.0779  0.4599
 7066TIP3    H245394   6.788   5.425  11.470 -0.3341 -0.2055  0.0898
 7067TIP3   OH245395   6.638   0.307  12.107 -0.1079  0.4190 -0.4463
 7067TIP3    H145396   6.702   0.376  12.119  0.1664  0.1770 -0.4956
 7067TIP3    H245397   6.558   0.340  12.147  0.3325  0.2916  0.5778
 7068TIP3   OH245398   6.519   3.764  10.580  0.3620  0.5767  0.7700
 7068TIP3    H145399   6.428   3.740  10.563  0.3277  2.0072 -1.4280
 7068TIP3    H245400   6.565   3.680  10.587 -0.6406 -0.2164 -1.2212
 7069TIP3   OH245401   6.044   0.083  12.080  0.0950  0.2382 -0.1031
 7069TIP3    H145402   6.016   0.174  12.090  0.5705  0.5013 -1.0096
 7069TIP3    H245403   6.066   0.055  12.169  1.2239  1.4504  0.0370
 7070TIP3   OH245404   0.888   1.576  10.905  0.3106  0.8856  0.1877
 7070TIP3    H145405   0.952   1.585  10.976  1.1652 -0.9235 -0.3102
 7070TIP3    H245406   0.814   1.531  10.946  0.8649 -0.2939 -0.0781
 7071TIP3   OH245407   2.117   1.268  10.337 -0.0204  0.4190  0.4712
 7071TIP3    H145408   2.028   1.302  10.346 -0.0814  0.7470 -1.0777
 7071TIP3    H245409   2.173   1.345  10.346 -0.0248  0.5655 -0.6588
 7072TIP3   OH245410   1.156   0.887  12.977  0.2012 -0.2721 -0.1408
 7072TIP3    H145411   1.083   0.914  12.922 -1.0291 -1.2560  0.9413
 7072TIP3    H245412   1.173   0.797  12.952 -0.7480 -0.9264  1.4056
 7073TIP3   OH245413   7.259   1.751  10.900 -0.3515 -0.0191  1.0129
 7073TIP3    H145414   7.215   1.678  10.944 -2.4026  0.4596 -0.1404
 7073TIP3    H245415   7.298   1.713  10.822  0.1489 -0.1896  1.3391
 7074TIP3   OH245416   3.130   3.806  10.483  0.6035  0.0004  0.2909
 7074TIP3    H145417   3.168   3.851  10.407 -0.3438 -0.7430 -0.6448
 7074TIP3    H245418   3.123   3.715  10.456 -1.6012  0.0676  0.5048
 7075TIP3   OH245419   0.014   3.294  12.528  0.0117 -0.9128  0.1236
 7075TIP3    H145420  -0.027   3.236  12.465 -0.0569 -0.2294 -0.4742
 7075TIP3    H245421  -0.031   3.378  12.517 -0.2928 -0.8863  1.3734
 7076TIP3   OH245422   4.615   6.513  12.005  0.2722  0.1550  0.1894
 7076TIP3    H145423   4.614   6.439  11.945 -4.0776 -0.3725  0.5603
 7076TIP3    H245424   4.630   6.473  12.091  0.2364  0.0374  0.1418
 7077TIP3   OH245425   0.887   6.040  10.573  0.8893 -0.0756  0.1615
 7077TIP3    H145426   0.890   6.134  10.588  0.8159  0.0284 -0.4666
 7077TIP3    H245427   0.960   6.022  10.515 -0.3572 -0.0585 -1.4978
 7078TIP3   OH245428   1.888   5.755  11.291 -0.3590 -0.2993  0.0985
 7078TIP3    H145429   1.934   5.675  11.316 -1.2158 -0.7219  0.3641
 7078TIP3    H245430   1.804   5.725  11.258  0.0649  0.3674 -1.6947
 7079TIP3   OH245431   4.198   2.764  11.548 -0.2496 -0.7815  0.4323
 7079TIP3    H145432   4.195   2.691  11.486  0.0604 -1.0404  0.7153
 7079TIP3    H245433   4.135   2.740  11.616 -0.9519 -0.2671 -0.0243
 7080TIP3   OH245434   1.606   0.713  11.092  0.1263  0.0716  0.2633
 7080TIP3    H145435   1.606   0.618  11.107 -1.2777 -0.1017 -0.6511
 7080TIP3    H245436   1.683   0.744  11.139  0.6566 -1.5287  0.5320
 7081TIP3   OH245437   2.583   0.214  12.329 -0.4517  0.0339  0.2391
 7081TIP3    H145438   2.638   0.147  12.370  1.2926  2.0312  1.3631
 7081TIP3    H245439   2.543   0.261  12.402 -0.9020  0.8077 -0.4904
 7082TIP3   OH245440   2.092   5.057  10.790 -0.0659 -0.1281 -0.5649
 7082TIP3    H145441   2.172   5.095  10.826 -0.5064  0.4798 -0.2167
 7082TIP3    H245442   2.021   5.092  10.844 -0.6737  0.2171 -1.5513
 7083TIP3   OH245443   3.032   4.989  13.059 -0.1154  0.2082  0.1950
 7083TIP3    H145444   2.942   4.960  13.046  0.7199 -2.4085 -0.4399
 7083TIP3    H245445   3.049   4.974  13.152  0.4985 -2.2005 -0.2409
 7084TIP3   OH245446   3.391   5.193  12.761  0.4263  0.5545 -0.0429
 7084TIP3    H145447   3.331   5.138  12.710 -2.2669  2.0298  1.3003
 7084TIP3    H245448   3.392   5.153  12.848 -0.4563  1.7899  0.5601
 7085TIP3   OH245449   7.226   3.420  11.169 -0.4076  0.4546 -0.6514
 7085TIP3    H145450   7.251   3.499  11.217  0.4052 -1.3910  2.1462
 7085TIP3    H245451   7.278   3.424  11.089  0.7705  1.9947  0.1268
 7086TIP3   OH245452   0.894   0.872  11.676 -0.3314 -0.2218 -0.3148
 7086TIP3    H145453   0.837   0.917  11.614 -0.9494 -1.1412 -0.4335
 7086TIP3    H245454   0.964   0.836  11.622 -1.2782 -1.6860 -0.6376
 7087TIP3   OH245455   7.116   0.608  10.869 -0.8710 -0.4859  0.4915
 7087TIP3    H145456   7.056   0.679  10.892 -0.8535 -0.0168 -0.8048
 7087TIP3    H245457   7.199   0.652  10.851 -0.3054 -1.0599  1.5926
 7088TIP3   OH245458   2.450   7.616  12.946  0.0795  0.0011  0.6627
 7088TIP3    H145459   2.541   7.635  12.969 -0.2422  1.4072  0.8702
 7088TIP3    H245460   2.399   7.684  12.992 -1.1546 -1.2909  1.2906
 7089TIP3   OH245461   3.406   2.786  12.520 -0.0786  0.2195  0.2179
 7089TIP3    H145462   3.478   2.814  12.464 -0.2909  3.4501  1.3550
 7089TIP3    H245463   3.449   2.761  12.602 -0.0348 -1.3639 -0.2531
 7090TIP3   OH245464   6.631   3.844  11.401  0.4544  0.1890 -0.0234
 7090TIP3    H145465   6.713   3.886  11.375  0.3984  0.5441  0.3616
 7090TIP3    H245466   6.563   3.906  11.377  0.3308  0.1033  0.1030
 7091TIP3   OH245467   1.885   6.343  11.039 -0.2662  0.1969 -0.1638
 7091TIP3    H145468   1.862   6.419  10.986 -0.2217  0.9592  0.8683
 7091TIP3    H245469   1.801   6.305  11.065 -0.3556  1.0639  0.9178
 7092TIP3   OH245470   5.867   5.557  11.305 -0.3216 -0.4310  0.4705
 7092TIP3    H145471   5.878   5.613  11.382  0.7919 -0.2472  0.2018
 7092TIP3    H245472   5.824   5.478  11.339 -0.3200 -0.1339  1.1862
 7093TIP3   OH245473   2.878   3.809  11.139  0.3993 -0.0430  0.7676
 7093TIP3    H145474   2.803   3.759  11.107  1.1420  0.5490 -2.2200
 7093TIP3    H245475   2.840   3.888  11.177 -0.5710  0.7137 -1.5681
 7094TIP3   OH245476   0.996   6.478  13.481  0.3888  0.0009  0.1137
 7094TIP3    H145477   0.913   6.434  13.462  0.1932 -0.2066  1.3529
 7094TIP3    H245478   1.060   6.436  13.424 -0.4965  0.7732 -1.5342
 7095TIP3   OH245479   7.518   1.129  11.815  0.1410 -0.5461  0.2071
 7095TIP3    H145480   7.548   1.045  11.782  1.4393  0.0346 -0.1438
 7095TIP3    H245481   7.574   1.147  11.891 -0.9616 -0.5680  1.0581
 7096TIP3   OH245482   7.218   1.858  11.722 -0.5151  0.2979 -0.2141
 7096TIP3    H145483   7.300   1.830  11.681 -0.6314 -0.5435  0.1197
 7096TIP3    H245484   7.201   1.944  11.684  0.5385  0.4979 -0.2588
 7097TIP3   OH245485   1.118   2.810  10.378  0.3341  0.4328  0.1887
 7097TIP3    H145486   1.057   2.740  10.399  0.6219 -0.5994 -2.0669
 7097TIP3    H245487   1.203   2.767  10.371  1.0626  1.5494  1.5736
 7098TIP3   OH245488   6.607   6.715  11.642  1.3470 -0.3574  0.3448
 7098TIP3    H145489   6.614   6.733  11.736 -2.0771 -0.5241  0.7733
 7098TIP3    H245490   6.599   6.801  11.601  0.2708 -0.3489  0.5490
 7099TIP3   OH245491   5.194   4.507  12.277 -0.1915 -0.9587 -0.1116
 7099TIP3    H145492   5.227   4.541  12.194  0.6438  0.1171  0.6296
 7099TIP3    H245493   5.256   4.540  12.342 -1.4850 -0.7958  1.0683
 7100TIP3   OH245494   7.324   1.178  10.681 -0.6579  0.0601 -0.3943
 7100TIP3    H145495   7.280   1.263  10.689  0.1876  0.5997 -1.3515
 7100TIP3    H245496   7.323   1.159  10.588  4.0256  1.7102 -1.0250
 7101TIP3   OH245497   6.082   6.173  11.934  0.1523  0.7452  0.3741
 7101TIP3    H145498   6.163   6.218  11.956  1.4054 -1.3751  0.3420
 7101TIP3    H245499   6.070   6.188  11.840  0.1589  1.5883  0.5057
 7102TIP3   OH245500   3.015   1.878  10.634  0.0771  0.0512 -0.0121
 7102TIP3    H145501   3.007   1.815  10.705  1.3048 -1.1041 -0.8475
 7102TIP3    H245502   3.100   1.920  10.649  0.3770 -0.2483 -0.8033
 7103TIP3   OH245503   6.835   4.841  11.722  0.3753  0.0456  0.2076
 7103TIP3    H145504   6.830   4.852  11.627  2.8623 -2.2954 -0.3456
 7103TIP3    H245505   6.750   4.805  11.747  0.3193 -1.1083 -1.4935
 7104TIP3   OH245506   3.521   4.933  11.988 -0.0865 -0.1360 -0.2852
 7104TIP3    H145507   3.433   4.949  11.954 -1.2502 -3.4248  0.8014
 7104TIP3    H245508   3.546   5.015  12.030 -2.0287  1.3344 -1.8001
 7105TIP3   OH245509   5.270   6.293  10.619  0.3564 -0.4764  0.5593
 7105TIP3    H145510   5.365   6.282  10.617  0.4579 -0.2147  2.4785
 7105TIP3    H245511   5.255   6.371  10.673 -0.9316 -0.0213 -0.3909
 7106TIP3   OH245512   2.299   3.867  11.357 -0.3057 -0.0288 -0.0361
 7106TIP3    H145513   2.288   3.848  11.264 -1.4892  2.1523 -0.4006
 7106TIP3    H245514   2.237   3.938  11.375  0.9919  0.6775  2.0385
 7107TIP3   OH245515   0.776   3.640  12.101 -0.2776  0.3997  0.2391
 7107TIP3    H145516   0.741   3.599  12.179  1.8814 -0.7660  0.6715
 7107TIP3    H245517   0.854   3.687  12.131  0.9222 -0.5398 -1.2611
 7108TIP3   OH245518   7.679   3.093  11.709 -0.4756 -0.1256 -0.0741
 7108TIP3    H145519   7.706   3.178  11.746 -0.4834 -1.4940  3.5161
 7108TIP3    H245520   7.761   3.048  11.690 -0.3954 -0.3604  0.7896
 7109TIP3   OH245521   1.512   1.757  10.983  0.0847 -0.1451 -0.4554
 7109TIP3    H145522   1.555   1.689  11.035 -0.6387 -0.9193 -0.8477
 7109TIP3    H245523   1.515   1.835  11.039  0.4904 -0.6177  0.1987
 7110TIP3   OH245524   0.026   2.575  11.000  0.2901 -0.6483 -0.5592
 7110TIP3    H145525  -0.037   2.568  10.928  0.6783 -2.1243 -0.7961
 7110TIP3    H245526   0.004   2.501  11.058  2.2031 -1.6246 -1.0004
 7111TIP3   OH245527   3.850   2.891  11.981 -0.1604  0.0720  0.6109
 7111TIP3    H145528   3.890   2.939  12.053  2.0185 -0.0445 -0.4401
 7111TIP3    H245529   3.860   2.948  11.905 -0.7749 -0.5565  0.0386
 7112TIP3   OH245530   7.055   2.790  11.754 -0.2100 -0.5136 -0.6885
 7112TIP3    H145531   7.093   2.730  11.690  2.7631  0.2658  0.2167
 7112TIP3    H245532   7.130   2.827  11.801 -1.9934  2.5155  0.0682
 7113TIP3   OH245533   1.772   2.518  12.075 -0.6505 -0.2487  0.5196
 7113TIP3    H145534   1.685   2.518  12.035 -0.1001 -1.7514 -0.7817
 7113TIP3    H245535   1.827   2.564  12.012 -0.0653 -1.3826  0.1634
 7114TIP3   OH245536   3.620   5.879  12.349 -0.0789  0.0707  0.6897
 7114TIP3    H145537   3.562   5.946  12.313  0.1801  0.0564  0.2478
 7114TIP3    H245538   3.563   5.828  12.407 -0.4231  0.2803  0.5422
 7115TIP3   OH245539   6.725   1.850  10.815 -0.0113  0.4650  0.2463
 7115TIP3    H145540   6.690   1.939  10.816 -1.2841 -0.0117  0.3671
 7115TIP3    H245541   6.819   1.860  10.831 -0.0829  1.8026 -0.1131
 7116TIP3   OH245542   5.056   2.315  11.749  0.0044  0.4382  0.1222
 7116TIP3    H145543   5.022   2.404  11.741  2.4125  1.2918 -1.7929
 7116TIP3    H245544   5.100   2.298  11.666  0.4513 -2.2030  0.7918
 7117TIP3   OH245545   4.598   3.974  10.748 -0.5752  0.3855  0.4759
 7117TIP3    H145546   4.635   3.982  10.836 -0.2918  2.1460  0.2324
 7117TIP3    H245547   4.660   3.918  10.701 -0.2476  0.1685  1.1555
 7118TIP3   OH245548   4.114   0.839  11.111  0.0809 -0.2778  0.0348
 7118TIP3    H145549   4.113   0.758  11.060 -1.5824 -1.4380  1.7773
 7118TIP3    H245550   4.140   0.812  11.199  1.6363  1.4761  0.1899
 7119TIP3   OH245551   3.568   1.829  11.913 -0.4485  0.4847  0.0738
 7119TIP3    H145552   3.534   1.752  11.958 -0.2246  0.5853  0.4213
 7119TIP3    H245553   3.604   1.884  11.983  1.7901 -0.2936 -0.3814
 7120TIP3   OH245554   6.668   5.847  11.627 -0.0700  0.5643  0.6263
 7120TIP3    H145555   6.655   5.757  11.657 -0.0458  0.5911  0.7185
 7120TIP3    H245556   6.693   5.839  11.535 -1.1245  0.5379  0.3312
 7121TIP3   OH245557   6.567   3.182  11.194  0.1371 -0.8458 -0.1148
 7121TIP3    H145558   6.567   3.171  11.289  0.9693  0.1580  0.0205
 7121TIP3    H245559   6.635   3.248  11.177  0.8680 -1.8797 -1.5019
 7122TIP3   OH245560   5.065   4.451  11.018  0.1587 -0.5655 -0.2834
 7122TIP3    H145561   5.144   4.397  11.021  0.0813 -0.6357  0.6263
 7122TIP3    H245562   5.097   4.541  11.021  0.2649 -0.5563 -1.3435
 7123TIP3   OH245563   5.062   6.248  11.316 -0.2791 -0.5357  0.0312
 7123TIP3    H145564   5.066   6.240  11.221 -1.9918  0.3055 -0.1519
 7123TIP3    H245565   4.987   6.305  11.332  1.5504  1.5466  1.8094
 7124TIP3   OH245566   4.334   3.508  11.076 -0.2768  0.1478  0.0528
 7124TIP3    H145567   4.259   3.452  11.099 -0.2734 -0.2471 -0.8605
 7124TIP3    H245568   4.410   3.457  11.104 -0.3176  0.2226  0.3039
 7125TIP3   OH245569   5.957   3.507  13.250 -0.3446 -0.2986  0.6779
 7125TIP3    H145570   5.873   3.466  13.232 -0.3417 -0.1293  0.2684
 7125TIP3    H245571   5.939   3.601  13.247 -0.1980 -0.2630  0.8691
 7126TIP3   OH245572   2.854   6.440  13.225 -0.1243 -0.0122  0.0723
 7126TIP3    H145573   2.886   6.469  13.311  1.5803 -0.5239 -0.3475
 7126TIP3    H245574   2.816   6.518  13.186 -0.0872  0.4484  0.9242
 7127TIP3   OH245575   1.918   5.018  12.042 -0.4803  0.4430 -0.3515
 7127TIP3    H145576   1.930   5.038  12.134 -1.6349  0.0585 -0.0991
 7127TIP3    H245577   2.006   5.000  12.009  0.1266  2.0903  0.2990
 7128TIP3   OH245578   0.001   7.159  12.805 -0.3188 -0.1536  0.4600
 7128TIP3    H145579  -0.067   7.112  12.855  1.1871 -2.1131  0.8012
 7128TIP3    H245580   0.083   7.135  12.849  0.6458  2.0746  0.0056
 7129TIP3   OH245581   6.129   2.088  12.162 -0.8877 -0.1859  0.0980
 7129TIP3    H145582   6.156   2.111  12.251 -0.7482 -0.2634  0.0759
 7129TIP3    H245583   6.172   2.154  12.106 -1.5938  0.3352  0.1530
 7130TIP3   OH245584   2.772   6.253  12.316 -0.1981 -0.4173 -0.2070
 7130TIP3    H145585   2.744   6.202  12.239 -1.3208 -0.4757  0.2228
 7130TIP3    H245586   2.841   6.310  12.283  0.7158 -1.8229 -0.8283
 7131TIP3   OH245587   0.135   3.036  13.174 -0.0287  0.0422  0.0133
 7131TIP3    H145588   0.177   3.025  13.089  1.4112  1.2225  0.5297
 7131TIP3    H245589   0.165   3.121  13.205 -2.3120  0.6569  0.7353
 7132TIP3   OH245590   1.491   7.402  12.153  0.3028  0.2389  0.6312
 7132TIP3    H145591   1.509   7.496  12.157  0.5222  0.2390 -0.2001
 7132TIP3    H245592   1.508   7.370  12.242 -0.0133  1.0216  0.9860
 7133TIP3   OH245593   3.984   1.823  12.524  0.0907  0.3593 -0.5500
 7133TIP3    H145594   3.996   1.731  12.500  0.1491  0.6533 -1.7075
 7133TIP3    H245595   4.056   1.869  12.481  1.3039  0.7362  1.6854
 7134TIP3   OH245596   4.707   7.091  12.265 -0.3180 -0.2833  0.2454
 7134TIP3    H145597   4.749   7.056  12.343 -0.5328  0.8381  0.8857
 7134TIP3    H245598   4.689   7.182  12.286 -0.1214  0.1299 -1.2256
 7135TIP3   OH245599   0.315   2.622  12.425  0.4899  0.0775 -0.9888
 7135TIP3    H145600   0.388   2.653  12.371  0.2940 -0.1989 -1.4160
 7135TIP3    H245601   0.286   2.701  12.472  0.8339  0.2640 -1.0835
 7136TIP3   OH245602   1.397   2.784  10.461  0.1929 -0.7015 -0.6028
 7136TIP3    H145603   1.446   2.831  10.393 -1.0146  1.3304 -0.1368
 7136TIP3    H245604   1.386   2.848  10.531  1.5409 -2.7797  1.6550
 7137TIP3   OH245605   2.479   4.727  11.461  0.8583 -0.0594 -0.3797
 7137TIP3    H145606   2.438   4.792  11.518  0.1923 -0.6102 -0.2093
 7137TIP3    H245607   2.505   4.776  11.383 -0.4334  0.2583 -0.6324
 7138TIP3   OH245608   4.317   3.027  11.484 -0.3903  0.7609 -0.7074
 7138TIP3    H145609   4.259   3.053  11.413  0.1106 -0.8720 -1.7838
 7138TIP3    H245610   4.300   2.934  11.496  0.9303  0.5784 -0.0273
 7139TIP3   OH245611   5.078   3.080  12.350  0.9139  0.1493 -0.0634
 7139TIP3    H145612   5.052   3.006  12.406 -0.9287 -0.4713 -1.6466
 7139TIP3    H245613   5.145   3.043  12.292  0.3630 -0.1618 -0.5123
 7140TIP3   OH245614   0.024   0.604  11.019 -0.0364  0.4355 -0.5571
 7140TIP3    H145615   0.030   0.672  10.952 -2.9273  0.4411 -0.9356
 7140TIP3    H245616  -0.041   0.638  11.081  1.4906 -0.2250  1.5290
 7141TIP3   OH245617   1.107   1.930  11.714  0.2746 -0.9719 -0.0118
 7141TIP3    H145618   1.025   1.977  11.721  0.3179 -0.8239 -0.4931
 7141TIP3    H245619   1.082   1.841  11.688  0.1145 -1.5175  1.8786
 7142TIP3   OH245620   1.828   2.652  10.674  0.0807 -0.2409  0.3539
 7142TIP3    H145621   1.807   2.706  10.599  0.5958  1.7274  1.5500
 7142TIP3    H245622   1.920   2.671  10.693 -0.2582  0.0125  1.9650
 7143TIP3   OH245623   0.553   2.779  10.421  0.3927  0.3636  0.1878
 7143TIP3    H145624   0.631   2.780  10.477  0.1041  0.7693  0.5857
 7143TIP3    H245625   0.502   2.855  10.448 -0.0672  0.1969 -0.1845
 7144TIP3   OH245626   5.797   2.586  10.580 -0.5994  0.4728 -0.0539
 7144TIP3    H145627   5.739   2.528  10.630  1.3039 -0.7772  0.8176
 7144TIP3    H245628   5.797   2.550  10.491 -1.9934  1.1638 -0.3591
 7145TIP3   OH245629   4.776   0.251  12.007 -0.1465  0.3276 -0.2219
 7145TIP3    H145630   4.862   0.237  12.048 -0.0159 -1.1329 -0.9370
 7145TIP3    H245631   4.765   0.177  11.948 -0.0822  2.5672 -3.3025
 7146TIP3   OH245632   0.497   4.156  10.571 -0.9552  0.3729 -0.0350
 7146TIP3    H145633   0.419   4.126  10.526 -1.5873  2.4006 -0.4209
 7146TIP3    H245634   0.470   4.236  10.615  0.3961  0.0023  1.5694
 7147TIP3   OH245635   7.540   4.735  10.959 -0.2152 -0.6462 -0.1808
 7147TIP3    H145636   7.549   4.811  11.016  1.3673  0.8316 -2.2565
 7147TIP3    H245637   7.628   4.718  10.927 -0.9212 -1.8984 -1.5872
 7148TIP3   OH245638   2.531   4.137  12.422 -0.3514  0.1437  0.0667
 7148TIP3    H145639   2.502   4.229  12.419 -0.4250  0.1817  1.2882
 7148TIP3    H245640   2.457   4.090  12.461  0.2065 -0.2016  0.7285
 7149TIP3   OH245641   5.124   5.933  12.706 -0.0938  0.2557  0.7586
 7149TIP3    H145642   5.029   5.935  12.720 -0.4542 -0.8053 -1.1292
 7149TIP3    H245643   5.150   5.846  12.737 -0.0065 -0.0006 -0.0012
 7150TIP3   OH245644   4.937   3.799  12.375 -0.8544 -0.5023  0.0439
 7150TIP3    H145645   5.019   3.794  12.326 -2.6503 -1.3193 -3.1797
 7150TIP3    H245646   4.901   3.885  12.353 -1.0811 -0.2896  1.1543
 7151TIP3   OH245647   3.754   5.250  11.810  0.0700 -0.1884  0.0758
 7151TIP3    H145648   3.776   5.341  11.790  0.0557 -0.0502  0.6703
 7151TIP3    H245649   3.754   5.206  11.725 -0.2465  0.4366 -0.2537
 7152TIP3   OH245650   4.723   6.044  11.222 -0.0459 -0.0625 -0.1011
 7152TIP3    H145651   4.669   6.122  11.233  1.1583  0.9870 -1.3707
 7152TIP3    H245652   4.718   6.024  11.128 -1.5362 -2.4596  0.3827
 7153TIP3   OH245653   0.711   3.447  10.730  0.4846 -0.0444  0.2158
 7153TIP3    H145654   0.681   3.498  10.806 -0.7579 -0.1867 -0.1672
 7153TIP3    H245655   0.633   3.434  10.677  1.0700 -1.1073 -0.4271
 7154TIP3   OH245656   3.906   5.453  12.051 -0.0102 -0.4335  0.2445
 7154TIP3    H145657   3.971   5.493  11.993 -0.0941  3.4337  2.4666
 7154TIP3    H245658   3.840   5.522  12.064 -0.6451 -1.5256  3.8265
 7155TIP3   OH245659   7.470   1.569  13.126 -0.1038 -0.7060 -0.4844
 7155TIP3    H145660   7.561   1.586  13.102 -0.1030  1.3326  0.7773
 7155TIP3    H245661   7.433   1.526  13.049  1.8859 -1.4863 -1.0566
 7156TIP3   OH245662   0.800   0.091  10.746 -0.5128 -0.2361 -0.2956
 7156TIP3    H145663   0.788  -0.001  10.770 -1.8596 -0.0520 -0.2110
 7156TIP3    H245664   0.716   0.117  10.708 -0.2949  1.0847  0.0875
 7157TIP3   OH245665   2.160   4.767  12.718  0.5005  0.7561  0.3678
 7157TIP3    H145666   2.105   4.842  12.693 -2.3857 -1.4433 -0.4972
 7157TIP3    H245667   2.216   4.752  12.643 -1.0229  0.3324 -0.7429
 7158TIP3   OH245668   1.997   4.054  10.797  0.2832 -0.5134 -0.1944
 7158TIP3    H145669   2.063   4.121  10.814  0.5343 -0.4316 -1.4027
 7158TIP3    H245670   2.040   3.993  10.737 -1.0332  0.0501 -1.7535
 7159TIP3   OH245671   3.904   1.233  11.739  0.1261 -0.2407  0.3439
 7159TIP3    H145672   3.850   1.173  11.790  0.5255 -1.3158 -0.4631
 7159TIP3    H245673   3.966   1.269  11.802 -0.2118 -0.5706  0.8682
 7160TIP3   OH245674   4.532   6.024  12.551 -0.3856  0.1473  0.2129
 7160TIP3    H145675   4.622   5.993  12.556 -0.8980 -1.6288 -0.6676
 7160TIP3    H245676   4.497   6.011  12.639  0.2222  0.9645  0.5934
 7161TIP3   OH245677   5.068   4.967  11.404 -0.0973  0.5103  1.0047
 7161TIP3    H145678   5.043   4.944  11.494 -1.3564  0.8242  0.7492
 7161TIP3    H245679   5.023   5.050  11.387  0.4799  0.6755  0.2294
 7162TIP3   OH245680   7.369   3.797  11.544 -0.1281  0.7794  0.5394
 7162TIP3    H145681   7.279   3.776  11.519  1.0895 -0.4891 -3.5505
 7162TIP3    H245682   7.371   3.784  11.639 -3.9912  0.0168  0.6923
 7163TIP3   OH245683   6.807   2.000  12.801 -0.1668 -0.4894  0.1752
 7163TIP3    H145684   6.888   1.993  12.851 -0.3006 -2.0538  0.2450
 7163TIP3    H245685   6.741   1.955  12.855 -1.2367  1.2262  0.3740
 7164TIP3   OH245686   0.572   5.204  12.001 -0.7334  0.0703 -0.1025
 7164TIP3    H145687   0.608   5.278  12.050 -0.1883 -0.1074 -0.2313
 7164TIP3    H245688   0.589   5.128  12.055 -0.0453 -0.1391 -0.6070
 7165TIP3   OH245689   4.505   2.590  12.374  0.2456  0.3013 -0.7951
 7165TIP3    H145690   4.473   2.505  12.343  2.6935 -0.5357 -1.2136
 7165TIP3    H245691   4.559   2.623  12.303  1.7435  0.7903  0.5032
 7166TIP3   OH245692   7.156   3.507  10.778  0.2763  0.2734 -0.3650
 7166TIP3    H145693   7.070   3.540  10.805  0.6143  0.9460 -0.0769
 7166TIP3    H245694   7.168   3.540  10.689 -0.4314 -1.1497 -1.0123
 7167TIP3   OH245695   6.127   6.489  12.241  0.3184 -0.1182  0.6733
 7167TIP3    H145696   6.189   6.467  12.311  0.4025 -1.4077  0.2190
 7167TIP3    H245697   6.158   6.573  12.207  1.5113 -0.4995  0.7896
 7168TIP3   OH245698   3.347   1.354  11.553  0.3469  0.1797  0.4025
 7168TIP3    H145699   3.343   1.352  11.458  0.2734  0.3894  0.4000
 7168TIP3    H245700   3.370   1.265  11.579  1.0043  0.2674  0.1524
 7169TIP3   OH245701   5.765   3.128  11.469 -0.4602 -0.5849  0.0450
 7169TIP3    H145702   5.786   3.185  11.394  1.7783  0.2333  1.2052
 7169TIP3    H245703   5.787   3.181  11.546 -3.3519 -1.1466  1.3868
 7170TIP3   OH245704   2.864   2.949  11.697 -0.2066 -0.0326  0.3557
 7170TIP3    H145705   2.816   2.925  11.777 -1.3009 -0.0730 -0.2951
 7170TIP3    H245706   2.900   2.866  11.665 -0.5095 -0.1596  0.3376
 7171TIP3   OH245707   0.830   4.768  11.742  0.2683 -0.0839 -0.8686
 7171TIP3    H145708   0.750   4.739  11.699 -0.8589  1.2670  0.2318
 7171TIP3    H245709   0.812   4.760  11.836  0.2661  3.0006 -0.5006
 7172TIP3   OH245710   3.289   4.298  13.490  0.1505 -0.4384 -0.6313
 7172TIP3    H145711   3.256   4.209  13.482  0.8710 -0.7506 -0.2515
 7172TIP3    H245712   3.363   4.302  13.430 -0.8896  0.4336 -1.9132
 7173TIP3   OH245713   6.326   6.889  11.682  0.2494 -0.2315 -0.1794
 7173TIP3    H145714   6.377   6.893  11.601 -0.2972  0.5785 -0.5059
 7173TIP3    H245715   6.311   6.981  11.705  0.0393 -0.4560  0.6129
 7174TIP3   OH245716   5.543   0.013  10.595  0.4653 -0.3075  0.2784
 7174TIP3    H145717   5.487  -0.063  10.581 -0.9434  0.7763 -0.3482
 7174TIP3    H245718   5.608  -0.016  10.658  0.3517 -2.1981 -0.4039
 7175TIP3   OH245719   2.996   4.365  12.778 -0.4080  0.0311  0.0382
 7175TIP3    H145720   3.074   4.416  12.801 -0.4125  1.4636 -2.7282
 7175TIP3    H245721   2.969   4.324  12.861  1.0285  2.5664  1.9066
 7176TIP3   OH245722   1.500   1.133  12.097  0.1072 -0.2520 -0.2131
 7176TIP3    H145723   1.421   1.106  12.143  0.8727 -0.2640  1.1370
 7176TIP3    H245724   1.517   1.222  12.127  1.5242 -0.8381  0.8218
 7177TIP3   OH245725   7.656   2.850  11.408 -0.0473 -0.3982  0.0306
 7177TIP3    H145726   7.726   2.869  11.471  0.9139  1.5076 -1.5190
 7177TIP3    H245727   7.658   2.754  11.400  1.1362 -0.5369  1.3951
 7178TIP3   OH245728   5.848   2.310  11.141 -0.4411  0.0694 -0.0776
 7178TIP3    H145729   5.871   2.293  11.232 -1.6000  1.9361  0.6241
 7178TIP3    H245730   5.844   2.406  11.135 -0.5645 -0.0221 -2.0547
 7179TIP3   OH245731   6.337   0.170  12.051 -0.5451 -0.0828  0.1568
 7179TIP3    H145732   6.367   0.226  12.123  0.8506  1.5526 -1.6016
 7179TIP3    H245733   6.267   0.220  12.010  0.4898  0.2694 -1.2356
 7180TIP3   OH245734   5.932   4.504  11.526 -0.4704  0.4395 -0.1810
 7180TIP3    H145735   5.954   4.432  11.585 -1.0850  1.3065  1.1661
 7180TIP3    H245736   6.009   4.560  11.525 -0.8332  0.9862  0.7100
 7181TIP3   OH245737   7.449   3.821  12.238 -0.8510  0.5945  0.1999
 7181TIP3    H145738   7.401   3.795  12.317  0.0480  2.1836  1.3354
 7181TIP3    H245739   7.464   3.739  12.191 -1.4090 -0.3958  1.6695
 7182TIP3   OH245740   5.404   4.205  11.383 -0.8379 -0.3928 -0.4495
 7182TIP3    H145741   5.442   4.254  11.456  2.4803  1.9681 -3.4207
 7182TIP3    H245742   5.328   4.257  11.357 -0.7207 -0.0081 -0.0387
 7183TIP3   OH245743   0.955   1.399  10.418 -0.3530  0.2492 -0.2188
 7183TIP3    H145744   0.964   1.489  10.387  1.1362 -0.1221 -0.9665
 7183TIP3    H245745   0.972   1.404  10.512  0.4496  0.6606 -0.3773
 7184TIP3   OH245746   0.218   3.749  11.720  0.2882  0.2243 -0.4800
 7184TIP3    H145747   0.238   3.693  11.795 -1.7175 -1.0014 -0.7814
 7184TIP3    H245748   0.266   3.830  11.737  1.9307 -0.9682  0.8084
 7185TIP3   OH245749   0.098   3.375  11.374  0.0146 -0.2161  0.3743
 7185TIP3    H145750   0.025   3.318  11.397  0.7649 -0.8803  1.1664
 7185TIP3    H245751   0.062   3.464  11.378 -1.0821 -0.5912 -0.5636
 7186TIP3   OH245752   6.450   7.424  11.788  0.2172  0.0623 -0.1387
 7186TIP3    H145753   6.449   7.378  11.872  0.1249 -0.0242 -0.1872
 7186TIP3    H245754   6.443   7.517  11.812 -1.3865 -0.0281 -0.1022
 7187TIP3   OH245755   7.427   7.273  11.864 -0.3270 -0.0072 -0.3621
 7187TIP3    H145756   7.463   7.355  11.832 -0.1870 -0.1535 -0.5807
 7187TIP3    H245757   7.359   7.299  11.927  1.8537  0.3044  2.0340
 7188TIP3   OH245758   2.219   7.139  12.148  0.6460  0.5255  0.1710
 7188TIP3    H145759   2.230   7.231  12.171 -1.2391  0.4262  1.6471
 7188TIP3    H245760   2.174   7.141  12.063  1.8604  0.9200 -0.4878
 7189TIP3   OH245761   1.924   5.118  10.990  0.3747 -0.4314  0.3545
 7189TIP3    H145762   1.923   5.039  11.044 -1.7419 -1.4015 -0.9943
 7189TIP3    H245763   1.864   5.178  11.034 -2.1424 -1.5920 -1.3036
 7190TIP3   OH245764   6.136   3.666  12.041 -0.1696 -0.6070 -0.1062
 7190TIP3    H145765   6.079   3.643  12.114 -0.4613  0.3878 -0.0059
 7190TIP3    H245766   6.180   3.747  12.069 -1.1962  0.4774 -1.4816
 7191TIP3   OH245767   3.900   0.331  12.566 -0.6932 -0.0934  0.9855
 7191TIP3    H145768   3.873   0.305  12.654  2.2985 -1.1099  1.7326
 7191TIP3    H245769   3.962   0.403  12.580  0.2485 -0.6301 -0.2074
 7192TIP3   OH245770   3.310   6.479  10.591  0.8958 -0.2591 -0.2666
 7192TIP3    H145771   3.294   6.462  10.498  1.0338  0.5537 -0.4457
 7192TIP3    H245772   3.397   6.519  10.593  1.4251 -1.3916  0.3425
 7193TIP3   OH245773   5.058   7.292  10.442  0.3570  0.1158  0.0624
 7193TIP3    H145774   5.067   7.385  10.421 -0.1336 -0.1876 -1.6237
 7193TIP3    H245775   5.074   7.287  10.536  2.4069  1.6151 -0.1595
 7194TIP3   OH245776   1.680   3.601  10.752  0.5250  0.0424  0.5095
 7194TIP3    H145777   1.740   3.620  10.680  1.7532 -0.8017  1.2716
 7194TIP3    H245778   1.680   3.681  10.805 -1.4158  1.1675 -1.0717
 7195TIP3   OH245779   4.959   0.136  12.695  0.2793 -0.0146  0.4184
 7195TIP3    H145780   4.947   0.212  12.751  1.5978 -0.1550  0.9381
 7195TIP3    H245781   4.936   0.166  12.607 -0.5112  0.5844  0.8203
 7196TIP3   OH245782   5.241   7.637  12.125 -0.1975 -0.2723  0.5321
 7196TIP3    H145783   5.211   7.584  12.051  0.0805  1.7324 -1.1232
 7196TIP3    H245784   5.255   7.575  12.196 -0.4350 -2.2937 -1.1124
 7197TIP3   OH245785   4.010   1.403  11.955 -0.0367 -0.0330  0.1376
 7197TIP3    H145786   3.929   1.393  12.004  0.0229  1.9172  0.7210
 7197TIP3    H245787   4.079   1.378  12.017 -0.1124 -0.4565  0.0551
 7198TIP3   OH245788   3.497   7.188  11.310  0.3871  0.0111 -0.2053
 7198TIP3    H145789   3.413   7.142  11.311 -0.5180  1.6049  1.2163
 7198TIP3    H245790   3.542   7.157  11.388  0.3096  0.5823  0.0683
 7199TIP3   OH245791   3.267   2.617  12.335  0.0565 -0.1840  0.0609
 7199TIP3    H145792   3.216   2.606  12.416  1.7368 -2.8364  0.9263
 7199TIP3    H245793   3.329   2.687  12.355  0.2902 -0.6442  1.0028
 7200TIP3   OH245794   3.378   6.200  10.752  0.1706  0.1643  0.4612
 7200TIP3    H145795   3.377   6.272  10.689  0.6556 -0.5259 -0.3589
 7200TIP3    H245796   3.440   6.228  10.819  2.0786 -0.3980 -0.9895
 7201TIP3   OH245797   5.183   4.279  11.974 -0.0506  0.5056 -0.8560
 7201TIP3    H145798   5.187   4.372  11.999 -1.8688  1.1702 -2.7500
 7201TIP3    H245799   5.241   4.273  11.898  0.8437 -0.1723 -0.1417
 7202TIP3   OH245800   0.188   7.625  12.661 -0.0031 -0.2405 -0.0833
 7202TIP3    H145801   0.165   7.611  12.569 -1.2533 -0.3618  0.2270
 7202TIP3    H245802   0.201   7.537  12.696 -0.4910 -0.2530  0.0783
 7203TIP3   OH245803   7.403   1.782  11.131  0.2877 -0.1716 -0.4431
 7203TIP3    H145804   7.354   1.779  11.049  1.1056 -1.1457 -0.9109
 7203TIP3    H245805   7.482   1.731  11.114 -0.5302 -2.3270  1.5937
 7204TIP3   OH245806   1.483   3.647  11.550 -0.0057 -0.5130  0.0685
 7204TIP3    H145807   1.510   3.603  11.469  0.3681 -1.9797  0.9517
 7204TIP3    H245808   1.424   3.584  11.593  0.4462 -0.1099  1.3269
 7205TIP3   OH245809   1.831   7.366  12.385 -0.5043 -0.4657 -0.2569
 7205TIP3    H145810   1.840   7.431  12.315 -1.4105 -0.1739 -0.1114
 7205TIP3    H245811   1.920   7.332  12.398  0.0585  1.0360 -0.0520
 7206TIP3   OH245812   5.031   6.382  10.484  0.7495  0.1810 -0.2390
 7206TIP3    H145813   5.063   6.400  10.396  2.0558 -1.5893 -0.1755
 7206TIP3    H245814   5.102   6.334  10.526 -1.1874 -2.1419  0.6060
 7207TIP3   OH245815   2.363   2.564  12.521 -0.3628  0.0813 -0.5997
 7207TIP3    H145816   2.312   2.522  12.452  0.6017 -0.4012 -1.0469
 7207TIP3    H245817   2.298   2.594  12.585 -1.2160 -0.1463 -1.3400
 7208TIP3   OH245818   2.387   1.886  10.866 -0.3570 -0.4165 -0.1734
 7208TIP3    H145819   2.412   1.948  10.798  0.9414 -1.4746 -0.7010
 7208TIP3    H245820   2.452   1.900  10.936  1.1728 -2.4393 -1.0974
 7209TIP3   OH245821   7.455   1.300  11.543  0.6411 -0.3134  0.1043
 7209TIP3    H145822   7.370   1.257  11.555 -0.6280  2.3282  1.4937
 7209TIP3    H245823   7.498   1.291  11.628  2.0966 -2.1498 -0.7598
 7210TIP3   OH245824   0.151   1.312  12.320 -0.0239  0.4133  0.4107
 7210TIP3    H145825   0.174   1.332  12.411 -0.1397 -2.2549  1.1046
 7210TIP3    H245826   0.056   1.320  12.317 -0.0435  0.2684  0.6047
 7211TIP3   OH245827   3.561   2.503  11.110 -0.0494 -0.3649 -0.4768
 7211TIP3    H145828   3.509   2.581  11.126 -0.1352 -0.0760 -1.9822
 7211TIP3    H245829   3.596   2.515  11.022  0.5264 -1.6946 -0.4568
 7212TIP3   OH245830   5.179   1.026  10.761  0.0030 -0.1747  0.1626
 7212TIP3    H145831   5.170   0.963  10.833  1.6645 -2.6649 -1.6675
 7212TIP3    H245832   5.109   1.003  10.700 -0.6539  1.1543  0.3751
 7213TIP3   OH245833   4.068   1.025  11.324 -0.4453 -0.8323  0.1094
 7213TIP3    H145834   4.049   0.995  11.235 -0.4834 -0.5492  0.0226
 7213TIP3    H245835   3.985   1.060  11.356 -0.4106 -0.8548  0.2288
 7214TIP3   OH245836   2.553   1.837  11.107 -1.1018 -0.4269  0.6031
 7214TIP3    H145837   2.518   1.749  11.098  1.2443 -1.2226 -3.3736
 7214TIP3    H245838   2.629   1.829  11.165  0.1161 -1.5120 -1.0512
 7215TIP3   OH245839   4.869   4.521  11.520 -0.2730  0.8926  0.1804
 7215TIP3    H145840   4.835   4.524  11.431  0.3483  0.5826 -0.0715
 7215TIP3    H245841   4.839   4.436  11.554  0.6056  0.4236 -0.1926
 7216TIP3   OH245842   0.107   1.690  11.779 -0.2995  0.3514  0.5302
 7216TIP3    H145843   0.163   1.646  11.843 -0.1603 -1.3875 -0.7290
 7216TIP3    H245844   0.076   1.620  11.721 -3.8901  1.1662  1.2036
 7217TIP3   OH245845   5.879   1.656  12.098  0.7682 -0.2062  0.0015
 7217TIP3    H145846   5.892   1.571  12.139  1.2709 -0.3843 -0.5097
 7217TIP3    H245847   5.880   1.718  12.171 -1.1895 -0.7607  0.5598
 7218TIP3   OH245848   7.451   4.284  12.456 -0.4229  0.4136  0.1945
 7218TIP3    H145849   7.448   4.364  12.509 -0.2765 -0.1317  1.0334
 7218TIP3    H245850   7.538   4.248  12.471  0.0823  0.8895 -1.3890
 7219TIP3   OH245851   4.272   1.021  11.555  0.4615 -0.0648 -0.6335
 7219TIP3    H145852   4.224   1.045  11.476 -1.0023 -0.5008  0.0978
 7219TIP3    H245853   4.272   1.100  11.608  1.3180  0.1842 -0.9826
 7220TIP3   OH245854   2.685   5.434  11.545  0.3553 -0.3328  0.4881
 7220TIP3    H145855   2.612   5.426  11.484 -1.1534  0.7282  2.0452
 7220TIP3    H245856   2.741   5.359  11.525 -1.7638 -1.8857 -0.0107
 7221TIP3   OH245857   3.800   2.737  12.961  0.1871  0.1469 -0.0340
 7221TIP3    H145858   3.827   2.804  13.024 -1.6656  1.6693 -0.7169
 7221TIP3    H245859   3.784   2.659  13.013  2.0304  0.3054  0.8528
 7222TIP3   OH245860   5.566   5.633  11.451 -0.4024 -0.3841 -0.1519
 7222TIP3    H145861   5.575   5.728  11.441  1.3589 -0.5553 -0.5035
 7222TIP3    H245862   5.612   5.613  11.532  0.8047 -1.1279 -0.9886
 7223TIP3   OH245863   5.332   0.195  10.658 -0.5882 -0.2195 -0.2959
 7223TIP3    H145864   5.404   0.145  10.620  0.1235  0.6479 -0.1110
 7223TIP3    H245865   5.351   0.198  10.751  0.4482  2.0289 -0.5198
 7224TIP3   OH245866   3.863   4.222  10.705  0.7893 -0.4658 -0.3371
 7224TIP3    H145867   3.879   4.316  10.716  0.9944 -0.2006 -2.5391
 7224TIP3    H245868   3.946   4.181  10.729  0.2961 -0.2385  1.9470
 7225TIP3   OH245869   7.517   7.111  13.034  0.0419  0.2204 -0.1689
 7225TIP3    H145870   7.557   7.165  13.103 -0.2820  1.2907 -0.7889
 7225TIP3    H245871   7.453   7.169  12.993 -1.2493 -1.0583 -0.0379
 7226TIP3   OH245872   3.840   1.115  11.466 -0.1871  0.3989 -0.3628
 7226TIP3    H145873   3.884   1.159  11.539 -0.7080  1.4438 -0.6577
 7226TIP3    H245874   3.782   1.052  11.508  0.3924  0.1461  0.0795
 7227TIP3   OH245875   5.692   4.553  13.003 -0.2961  0.3483  0.3329
 7227TIP3    H145876   5.733   4.470  13.030 -0.1629  0.0960 -0.6084
 7227TIP3    H245877   5.598   4.538  13.014 -0.3716 -0.4216 -1.0968
 7228TIP3   OH245878   3.542   4.991  12.970  0.1328 -0.3076 -0.2387
 7228TIP3    H145879   3.587   4.987  12.886 -0.0647 -0.0013 -0.3641
 7228TIP3    H245880   3.604   4.953  13.032  1.7314  2.5138  0.0712
 7229TIP3   OH245881   5.566   6.323  10.636  0.7443 -0.4232  0.0546
 7229TIP3    H145882   5.656   6.300  10.658  0.4591 -0.3957  1.3197
 7229TIP3    H245883   5.569   6.417  10.618  1.1912 -0.6642 -1.1954
 7230TIP3   OH245884   6.873   3.282  12.616  0.0055  0.3018  0.0615
 7230TIP3    H145885   6.881   3.236  12.533  0.7224 -0.1687  0.3755
 7230TIP3    H245886   6.929   3.232  12.676  0.4910  1.3450  0.5118
 7231TIP3   OH245887   5.476   5.408  11.062  0.0313  0.2797  0.6914
 7231TIP3    H145888   5.503   5.485  11.012 -1.8082  0.2299 -0.4545
 7231TIP3    H245889   5.409   5.440  11.122 -0.7547 -0.3850  0.2028
 7232TIP3   OH245890   0.702   4.863  12.413 -0.2069  0.5672  0.0754
 7232TIP3    H145891   0.784   4.849  12.365  0.3982  0.1747  1.1924
 7232TIP3    H245892   0.702   4.795  12.480 -2.7689 -1.1988 -1.5750
 7233TIP3   OH245893   2.958   5.774  10.710  0.1088  0.7060 -0.2221
 7233TIP3    H145894   2.886   5.834  10.728  0.1523  1.4699 -2.3128
 7233TIP3    H245895   3.037   5.826  10.724  0.2158  0.3492  0.5108
 7234TIP3   OH245896   2.413   7.435  12.069 -0.0649  0.7414  0.1764
 7234TIP3    H145897   2.462   7.465  12.145 -0.0607  2.7197 -0.5455
 7234TIP3    H245898   2.333   7.488  12.068  0.3021  1.3478 -1.6078
 7235TIP3   OH245899   2.090   3.859  13.034 -0.2892 -0.0160  0.5570
 7235TIP3    H145900   2.125   3.782  13.079 -1.3195 -0.4976  0.5475
 7235TIP3    H245901   2.017   3.888  13.088  0.1424  1.0238  0.6083
 7236TIP3   OH245902   0.723   5.432  11.553  0.2823 -0.4541  0.3378
 7236TIP3    H145903   0.791   5.392  11.498 -0.8734  0.9544 -2.3163
 7236TIP3    H245904   0.759   5.517  11.578  0.4607 -0.7346  1.0481
 7237TIP3   OH245905   0.864   1.127  10.461  0.4637  0.0915 -0.1787
 7237TIP3    H145906   0.906   1.176  10.390  1.0169  0.2151  0.2262
 7237TIP3    H245907   0.870   1.186  10.537  1.1139 -0.5818  0.3070
 7238TIP3   OH245908   6.210   1.144  13.244 -0.6602  0.6340  0.0937
 7238TIP3    H145909   6.270   1.110  13.177  0.9273  1.6616  0.9208
 7238TIP3    H245910   6.216   1.239  13.236  0.7254  0.8444  2.5738
 7239TIP3   OH245911   2.938   1.291  10.660 -0.1597 -0.0265  0.0118
 7239TIP3    H145912   2.938   1.318  10.569 -1.3631 -0.6085 -0.1909
 7239TIP3    H245913   2.906   1.368  10.708  0.9216  0.4353  0.0139
 7240TIP3   OH245914   1.445   4.952  10.381  0.6447  0.2150  0.5153
 7240TIP3    H145915   1.508   4.979  10.314  1.1101  0.4727  1.0594
 7240TIP3    H245916   1.360   4.966  10.339  0.8718 -2.9868 -1.3918
 7241TIP3   OH245917   3.478   2.599  13.118 -0.5731  0.0712 -0.9462
 7241TIP3    H145918   3.564   2.556  13.113 -0.7370 -0.1510 -1.8964
 7241TIP3    H245919   3.419   2.542  13.070 -1.5810 -0.4952  0.8516
 7242TIP3   OH245920   0.413   1.104  10.813  0.6074 -0.0520 -0.4962
 7242TIP3    H145921   0.473   1.110  10.738  0.6859  0.4182 -0.4018
 7242TIP3    H245922   0.470   1.111  10.890  0.4435  0.3680 -0.4052
 7243TIP3   OH245923   3.623   5.880  11.914 -0.0941 -0.0710  0.3117
 7243TIP3    H145924   3.618   5.807  11.852 -3.1910 -0.5789  0.9822
 7243TIP3    H245925   3.547   5.934  11.894  0.1819  1.0599  2.1037
 7244TIP3   OH245926   3.362   3.148  11.728  0.6438  0.2050 -0.0808
 7244TIP3    H145927   3.350   3.146  11.633  1.1377 -1.6147 -0.1438
 7244TIP3    H245928   3.442   3.199  11.741  0.3211  0.8573 -0.5935
 7245TIP3   OH245929   0.255   1.779  12.030  0.2361 -0.0188  0.1337
 7245TIP3    H145930   0.344   1.752  12.052  0.5594  0.3429 -0.6825
 7245TIP3    H245931   0.211   1.698  12.004  0.3069 -0.2066  0.5855
 7246TIP3   OH245932   6.667   4.818  12.576 -0.3220  0.1370 -0.3567
 7246TIP3    H145933   6.629   4.766  12.646 -3.6052  0.1543 -1.9309
 7246TIP3    H245934   6.699   4.897  12.619 -0.7309 -0.5660  1.3029
 7247TIP3   OH245935   6.067   4.124  12.160  0.2356  0.8047  0.3052
 7247TIP3    H145936   5.987   4.072  12.165 -0.1557  1.4227  0.6256
 7247TIP3    H245937   6.078   4.143  12.067 -0.3919  1.3173  0.3275
 7248TIP3   OH245938   3.973   3.056  11.365  0.1895 -0.2745  0.7038
 7248TIP3    H145939   3.926   3.007  11.298 -0.4723  0.6895  0.4418
 7248TIP3    H245940   3.924   3.041  11.446  0.6639 -0.9812  0.8674
 7249TIP3   OH245941   1.691   0.466  11.216 -0.1425  0.1725  0.0266
 7249TIP3    H145942   1.722   0.388  11.262  3.4147 -0.1942 -2.5462
 7249TIP3    H245943   1.738   0.538  11.258  0.7645  0.2049 -1.0118
 7250TIP3   OH245944   2.195   1.891  11.258 -0.3003 -0.1743 -0.6632
 7250TIP3    H145945   2.165   1.807  11.293 -1.1269 -0.7159 -2.4948
 7250TIP3    H245946   2.173   1.887  11.165  0.2092  1.8411 -0.9269
 7251TIP3   OH245947   3.340   4.602  12.889  0.7698 -0.1662  0.3256
 7251TIP3    H145948   3.251   4.633  12.907  1.3083  1.3683  0.5451
 7251TIP3    H245949   3.364   4.645  12.807  1.8766  0.7620  1.0974
 7252TIP3   OH245950   6.232   4.430  10.812 -0.8099 -0.2154 -0.8477
 7252TIP3    H145951   6.208   4.368  10.881 -0.2495  0.1583 -0.2976
 7252TIP3    H245952   6.285   4.496  10.857  0.7473 -0.6982 -1.8742
 7253TIP3   OH245953   2.432   1.456  11.596  0.8214 -0.3971 -0.1557
 7253TIP3    H145954   2.456   1.366  11.617 -0.0990 -0.8769 -1.0520
 7253TIP3    H245955   2.379   1.449  11.516 -2.6639  0.5029  1.8653
 7254TIP3   OH245956   4.013   6.587  11.095 -0.7441  0.2178 -0.0578
 7254TIP3    H145957   4.107   6.574  11.102 -0.6467  0.6542 -0.5342
 7254TIP3    H245958   3.986   6.613  11.183 -0.2617  1.0683 -0.1525
 7255TIP3   OH245959   4.291   1.037  12.849 -0.1610  0.1450 -0.3840
 7255TIP3    H145960   4.239   0.956  12.850  1.2207 -0.7716  0.8287
 7255TIP3    H245961   4.228   1.106  12.866 -1.4217 -0.6224 -1.6888
 7256TIP3   OH245962   0.729   7.155  11.627  0.6620 -0.0949 -0.2931
 7256TIP3    H145963   0.788   7.202  11.568  1.3249 -0.0476  0.4008
 7256TIP3    H245964   0.776   7.075  11.651  0.1523 -0.4026 -0.2906
 7257TIP3   OH245965   0.143   5.361  10.905  0.2349  0.1255  0.0463
 7257TIP3    H145966   0.144   5.375  10.810 -0.1698 -1.0964 -0.1563
 7257TIP3    H245967   0.077   5.422  10.938 -0.4762 -0.2643 -0.6171
 7258TIP3   OH245968   6.738   5.071  11.298 -0.0496 -0.3550  0.1605
 7258TIP3    H145969   6.799   5.012  11.341 -1.1000 -0.4268  1.6094
 7258TIP3    H245970   6.661   5.072  11.354 -0.8183  0.8781 -0.8509
 7259TIP3   OH245971   2.253   0.928  12.584  0.1252 -0.0367 -0.2560
 7259TIP3    H145972   2.326   0.914  12.524  1.0540 -0.5250  0.9397
 7259TIP3    H245973   2.257   1.022  12.606  1.9136 -0.4802  1.6176
 7260TIP3   OH245974   6.015   3.949  11.568 -0.3904 -0.2338  0.2122
 7260TIP3    H145975   6.058   3.953  11.654 -0.6227 -0.1013  0.3216
 7260TIP3    H245976   5.949   4.019  11.571  0.0792  0.2382 -0.3345
 7261TIP3   OH245977   2.118   4.556  13.257  0.0845 -0.4297  0.1784
 7261TIP3    H145978   2.070   4.638  13.242 -0.4698 -0.2003  2.6221
 7261TIP3    H245979   2.068   4.490  13.209 -2.1747 -0.0077  1.7599
 7262TIP3   OH245980   1.811   3.393  10.890  0.0830  0.2367 -0.4804
 7262TIP3    H145981   1.833   3.342  10.812  0.6438  0.1723 -0.2846
 7262TIP3    H245982   1.730   3.439  10.867  0.6159  0.7513 -1.3485
 7263TIP3   OH245983   6.886   0.993  11.701 -0.1944 -0.4064  0.3762
 7263TIP3    H145984   6.916   0.958  11.785  1.2007 -2.8981 -1.0692
 7263TIP3    H245985   6.819   0.932  11.671  1.5125 -1.3701 -1.7096
 7264TIP3   OH245986   0.320   6.270  11.363  0.3923  0.0264 -0.1762
 7264TIP3    H145987   0.359   6.242  11.446  1.1828  1.4310 -0.0352
 7264TIP3    H245988   0.310   6.365  11.373  0.1078  0.1580 -1.5367
 7265TIP3   OH245989   3.665   3.253  19.096  0.3679  0.1109 -0.6019
 7265TIP3    H145990   3.624   3.330  19.135  2.1783  0.2879  1.1612
 7265TIP3    H245991   3.691   3.281  19.008  1.8836  1.9140  0.3419
 7266TIP3   OH245992   2.414   6.599  11.308 -0.1912  0.2106 -0.2170
 7266TIP3    H145993   2.378   6.687  11.317 -1.5237 -0.2532 -0.7147
 7266TIP3    H245994   2.496   6.611  11.260  0.5344  1.3429  1.2527
 7267TIP3   OH245995   4.610   1.781  11.591  0.4182 -0.0325 -0.3754
 7267TIP3    H145996   4.619   1.784  11.686 -0.6979  0.8298 -0.2731
 7267TIP3    H245997   4.680   1.723  11.562 -0.1774 -1.5795  1.0915
 7268TIP3   OH245998   6.607   1.092  11.500  0.0847  0.1224 -0.3999
 7268TIP3    H145999   6.618   0.998  11.518  2.3905  0.4484  0.2097
 7268TIP3    H246000   6.583   1.095  11.407 -1.4747 -1.0982 -0.0861
 7269TIP3   OH246001   5.180   0.563  11.221  0.2762 -0.2228  0.1743
 7269TIP3    H146002   5.263   0.610  11.232  0.2477 -0.0492 -0.3250
 7269TIP3    H246003   5.113   0.630  11.230  0.2480 -0.0789 -0.9311
 7270TIP3   OH246004   2.909   7.614  10.370 -0.0465 -0.2304  0.1043
 7270TIP3    H146005   2.839   7.559  10.336  2.2861 -2.2685 -1.8043
 7270TIP3    H246006   2.926   7.580  10.458 -0.7124 -0.4639  0.1464
 7271TIP3   OH246007   0.013   0.808  12.636  0.0969 -0.3712  0.1877
 7271TIP3    H146008   0.074   0.819  12.563  1.2320  1.4750  1.3135
 7271TIP3    H246009   0.060   0.755  12.699  0.0949  0.0711  0.5702
 7272TIP3   OH246010   1.387   1.820  10.203 -0.1295  0.1719 -0.0666
 7272TIP3    H146011   1.342   1.894  10.162 -2.0531 -0.6166  0.5021
 7272TIP3    H246012   1.466   1.857  10.240 -0.0948  1.5709 -1.4381
 7273TIP3   OH246013   1.247   3.834  12.747  0.1607 -0.0639 -0.6063
 7273TIP3    H146014   1.176   3.897  12.759  1.6972  1.6975 -0.3202
 7273TIP3    H246015   1.251   3.786  12.830 -0.7439 -0.2609 -0.6704
 7274TIP3   OH246016   2.214   4.576  10.493  0.3513 -0.1718  0.1699
 7274TIP3    H146017   2.157   4.652  10.504  0.3360 -0.4113  2.0900
 7274TIP3    H246018   2.190   4.540  10.408 -1.6202  0.3488  0.4592
 7275TIP3   OH246019   6.908   4.227  11.958  0.2863 -0.3659  0.0539
 7275TIP3    H146020   6.978   4.163  11.956  0.4668 -0.3877  2.7184
 7275TIP3    H246021   6.867   4.214  12.044 -2.4799  0.1874 -1.0710
 7276TIP3   OH246022   4.212   1.231  10.899  0.0785 -0.4805 -0.0043
 7276TIP3    H146023   4.248   1.155  10.853  0.1724 -0.1291 -0.5214
 7276TIP3    H246024   4.126   1.246  10.859  0.9007  0.9350 -1.3847
 7277TIP3   OH246025   2.228   1.376  12.819 -0.6763  0.0941 -0.1261
 7277TIP3    H146026   2.205   1.468  12.809 -2.7365 -0.3623 -0.0001
 7277TIP3    H246027   2.296   1.376  12.887 -1.0659  1.4702  0.3038
 7278TIP3   OH246028   1.340   5.763  11.056 -0.0636 -0.9064 -0.0450
 7278TIP3    H146029   1.282   5.830  11.091 -0.9404 -1.9230  0.5429
 7278TIP3    H246030   1.378   5.801  10.977 -0.3421  0.3541  0.4173
 7279TIP3   OH246031   1.468   4.496  12.364 -0.4826 -0.0827  0.5963
 7279TIP3    H146032   1.454   4.482  12.458  0.4781  1.1968  0.9643
 7279TIP3    H246033   1.499   4.412  12.332 -0.5627 -0.4672  1.4832
 7280TIP3   OH246034   4.625   4.311  10.751 -0.0677 -0.2987  0.0761
 7280TIP3    H146035   4.699   4.298  10.692 -1.0547 -1.2377 -1.0353
 7280TIP3    H246036   4.572   4.231  10.740 -1.9517  0.9269 -0.2852
 7281TIP3   OH246037   1.009   6.819  10.847 -0.3006 -0.0791 -0.4508
 7281TIP3    H146038   0.974   6.898  10.807 -0.6117  0.5490  1.0009
 7281TIP3    H246039   1.103   6.822  10.827 -0.3126  0.6488 -0.4283
 7282TIP3   OH246040   6.819   1.761  13.077 -0.2699  0.0969  0.0844
 7282TIP3    H146041   6.875   1.833  13.047 -0.0876 -0.2130 -0.3316
 7282TIP3    H246042   6.730   1.791  13.059 -0.1566 -0.2714 -1.2626
 7283TIP3   OH246043   3.151   5.009  13.359 -0.1462 -0.4410 -0.4213
 7283TIP3    H146044   3.224   5.054  13.316  0.0455 -0.9668 -0.6613
 7283TIP3    H246045   3.172   4.916  13.350 -1.0658 -0.6217 -0.8903
 7284TIP3   OH246046   6.562   0.016  10.797  0.1167 -0.3952  0.3150
 7284TIP3    H146047   6.526  -0.071  10.781 -0.9794 -0.1461  1.3038
 7284TIP3    H246048   6.646   0.017  10.750 -0.4677 -1.5186 -0.7932
 7285TIP3   OH246049   1.915   1.183  12.045 -0.1702 -0.5973  0.0511
 7285TIP3    H146050   1.882   1.243  12.112 -1.8861  0.0996 -1.3223
 7285TIP3    H246051   1.980   1.129  12.090  0.4708  1.4098  1.6574
 7286TIP3   OH246052   2.501   2.103  12.837  0.4403  0.4022 -0.2244
 7286TIP3    H146053   2.460   2.157  12.904 -1.8498  0.1957 -1.3740
 7286TIP3    H246054   2.499   2.157  12.758  0.8688 -0.2580 -0.6957
 7287TIP3   OH246055   4.436   0.390  12.760 -0.2084  0.4408  0.7038
 7287TIP3    H146056   4.465   0.416  12.672  0.2261 -3.5858 -0.5617
 7287TIP3    H246057   4.361   0.446  12.778 -0.7195  1.0110 -2.5307
 7288TIP3   OH246058   0.523   2.495  12.049 -0.0814 -0.5705  0.2356
 7288TIP3    H146059   0.530   2.444  12.129  2.1700  0.0809  0.5204
 7288TIP3    H246060   0.603   2.475  12.001 -0.7132  0.1740 -1.1904
 7289TIP3   OH246061   4.237   0.790  11.355 -0.1934 -0.0804 -0.0665
 7289TIP3    H146062   4.197   0.728  11.416  1.2566  0.7088  1.8149
 7289TIP3    H246063   4.198   0.874  11.379  0.8414  0.3296  0.2149
 7290TIP3   OH246064   4.986   4.175  11.825  0.8669 -0.1442 -0.4829
 7290TIP3    H146065   5.047   4.209  11.890  0.3789  1.9291 -1.0511
 7290TIP3    H246066   5.040   4.158  11.748  1.5695 -3.2104  0.5116
 7291TIP3   OH246067   4.064   6.259  12.139  0.1185 -0.0450 -0.0165
 7291TIP3    H146068   4.160   6.263  12.143  0.0818 -0.0608  1.2592
 7291TIP3    H246069   4.040   6.196  12.207 -0.7505 -0.9072 -1.0830
 7292TIP3   OH246070   4.636   5.360  11.610  0.0565 -0.1129  0.0293
 7292TIP3    H146071   4.678   5.287  11.656 -0.5661 -0.8509 -0.5510
 7292TIP3    H246072   4.692   5.435  11.629  0.7883 -0.7629  0.5254
 7293TIP3   OH246073   7.364   7.348  12.471 -0.1538  0.3088 -0.0975
 7293TIP3    H146074   7.449   7.343  12.513  0.4638 -0.0948 -1.3323
 7293TIP3    H246075   7.307   7.292  12.524  0.3490  0.5437  0.7064
 7294TIP3   OH246076   1.158   5.842  12.149 -0.1556 -0.1501  0.0027
 7294TIP3    H146077   1.157   5.845  12.244 -0.3388  0.4977 -0.0200
 7294TIP3    H246078   1.145   5.932  12.121  1.1628 -0.1378 -0.6354
 7295TIP3   OH246079   2.688   0.651  13.306  0.8173 -0.0834  0.2813
 7295TIP3    H146080   2.632   0.728  13.299 -0.6854 -1.2992 -2.5327
 7295TIP3    H246081   2.649   0.600  13.378 -1.3597 -0.5151 -1.0846
 7296TIP3   OH246082   0.821   0.680  10.591  0.3178 -0.3678  0.0810
 7296TIP3    H146083   0.908   0.719  10.595 -0.1601  0.6749  0.5897
 7296TIP3    H246084   0.837   0.588  10.571  1.4774  0.0322 -0.9794
 7297TIP3   OH246085   6.512   4.078  13.253 -0.4116  0.1171 -0.0359
 7297TIP3    H146086   6.555   4.035  13.179  0.2702 -0.9476  0.9377
 7297TIP3    H246087   6.424   4.041  13.253 -0.0930 -0.6814  0.2814
 7298TIP3   OH246088   2.150   5.372  12.379 -0.6285 -0.1669 -0.0927
 7298TIP3    H146089   2.148   5.439  12.311 -1.0518 -0.4135 -0.3240
 7298TIP3    H246090   2.094   5.407  12.449 -0.3371  0.0068  0.0531
 7299TIP3   OH246091   1.548   2.874  11.216  0.2461 -0.1219 -0.1247
 7299TIP3    H146092   1.531   2.960  11.255  1.3052  1.0236 -2.0201
 7299TIP3    H246093   1.511   2.880  11.128 -0.5828 -2.0158  0.0568
 7300TIP3   OH246094   6.323   6.666  10.896 -0.0999  0.6057  0.3449
 7300TIP3    H146095   6.408   6.710  10.887 -0.2808  1.0488  0.7402
 7300TIP3    H246096   6.269   6.704  10.827  0.9082 -1.9307 -2.0187
 7301TIP3   OH246097   0.454   5.725  10.250  0.5866  0.6799 -0.8707
 7301TIP3    H146098   0.482   5.812  10.279 -0.6010  0.6024  0.6679
 7301TIP3    H246099   0.532   5.670  10.258  0.5784  0.9125  1.2966
 7302TIP3   OH246100   3.639   2.739  12.124  0.1162 -0.6323 -0.3696
 7302TIP3    H146101   3.700   2.790  12.071  0.4018 -0.1737  0.3868
 7302TIP3    H246102   3.608   2.670  12.065  0.0587  0.1458 -1.2675
 7303TIP3   OH246103   4.528   1.675  11.167  0.6524  0.3667  0.1662
 7303TIP3    H146104   4.433   1.673  11.151  1.0017  1.1540 -2.6173
 7303TIP3    H246105   4.561   1.596  11.125  1.2520  0.0535  1.1896
 7304TIP3   OH246106   1.363   5.758  10.450 -0.3801 -0.1493 -0.1571
 7304TIP3    H146107   1.357   5.852  10.468  3.2330 -0.1869  2.5140
 7304TIP3    H246108   1.272   5.728  10.445 -1.6804  3.1229  1.2386
 7305TIP3   OH246109   4.748   5.715  12.495 -0.7451  0.0295  0.5233
 7305TIP3    H146110   4.826   5.764  12.469 -1.2794  1.1273  0.9264
 7305TIP3    H246111   4.759   5.700  12.589 -2.5073  3.1536  1.3685
 7306TIP3   OH246112   5.010   6.759  10.989 -0.8022 -0.1109  0.0766
 7306TIP3    H146113   5.035   6.719  10.906  1.6389 -2.1912  1.6506
 7306TIP3    H246114   5.072   6.830  11.002  0.9961 -1.8083  1.4622
 7307TIP3   OH246115   1.634   1.934  10.244 -0.5050  0.4709  0.3328
 7307TIP3    H146116   1.667   1.952  10.156  0.7598 -1.6918  0.2951
 7307TIP3    H246117   1.649   2.016  10.292  1.2344  0.8680 -0.7921
 7308TIP3   OH246118   6.283   2.935  11.479 -0.2346 -0.1466 -0.2077
 7308TIP3    H146119   6.214   2.883  11.436 -1.2618  0.2201  0.9267
 7308TIP3    H246120   6.334   2.871  11.528 -0.7709 -0.2538  0.2304
 7309TIP3   OH246121   7.479   6.783  11.066  0.2383  0.1621 -0.0831
 7309TIP3    H146122   7.447   6.861  11.021 -2.2685  1.3537  3.2675
 7309TIP3    H246123   7.554   6.814  11.117 -2.2883  1.3781  3.3011
 7310TIP3   OH246124   4.067   6.028  11.464  0.9354  0.3122  0.0783
 7310TIP3    H146125   4.077   6.090  11.537  0.1482 -0.4072  0.8204
 7310TIP3    H246126   4.069   5.942  11.505 -2.3107 -0.0603 -0.3497
 7311TIP3   OH246127   5.727   6.228  11.044  0.0310  0.1321 -0.4634
 7311TIP3    H146128   5.653   6.201  11.099 -0.9677  2.4264 -0.5699
 7311TIP3    H246129   5.795   6.253  11.106 -0.5055  1.1455 -0.2525
 7312TIP3   OH246130   4.076   2.309  12.435 -0.3049  0.1604  0.0026
 7312TIP3    H146131   4.020   2.297  12.358 -1.7516  2.0807  0.6588
 7312TIP3    H246132   4.141   2.373  12.408  0.4016 -0.6274 -0.1849
 7313TIP3   OH246133   1.176   0.881  11.926 -0.2800 -0.0785 -0.1647
 7313TIP3    H146134   1.247   0.941  11.901 -0.4892 -0.0795 -0.7833
 7313TIP3    H246135   1.116   0.883  11.851 -0.3325 -0.9919 -0.1593
 7314TIP3   OH246136   2.923   4.160  12.966 -0.3836  0.0869  0.1340
 7314TIP3    H146137   2.946   4.125  13.051 -1.7412  0.8031  0.8262
 7314TIP3    H246138   2.916   4.083  12.909 -0.4891 -0.4943  0.9156
 7315TIP3   OH246139   6.760   2.428  11.537  0.0545 -0.5279 -0.3568
 7315TIP3    H146140   6.838   2.377  11.557 -0.5812 -1.2231  0.3952
 7315TIP3    H246141   6.763   2.440  11.442  0.8363 -0.9231 -0.3868
 7316TIP3   OH246142   4.682   6.697  10.614 -0.1454  0.0279 -0.3222
 7316TIP3    H146143   4.729   6.748  10.680 -0.2216  0.5788 -0.6915
 7316TIP3    H246144   4.743   6.689  10.541 -0.3978  0.2072 -0.5537
 7317TIP3   OH246145   2.111   1.521  10.933  0.4004 -0.2067 -0.1586
 7317TIP3    H146146   2.027   1.530  10.978 -0.0403 -0.7286 -0.8767
 7317TIP3    H246147   2.101   1.571  10.852  0.0536 -1.9509 -1.2364
 7318TIP3   OH246148   0.798   0.394  12.089  0.2465 -0.0504  0.0785
 7318TIP3    H146149   0.890   0.367  12.084  0.8532  1.2067  2.5419
 7318TIP3    H246150   0.768   0.360  12.173 -1.3069  0.2542 -0.3278
 7319TIP3   OH246151   3.381   6.978  12.018 -0.2451  0.8022  0.0229
 7319TIP3    H146152   3.310   6.955  11.958 -0.0708 -0.8345  0.4109
 7319TIP3    H246153   3.455   6.998  11.960 -0.8031  1.8794 -0.3593
 7320TIP3   OH246154   5.703   4.547  10.818  0.6753 -0.1856  0.2128
 7320TIP3    H146155   5.730   4.482  10.753  0.0003 -1.6101  1.2921
 7320TIP3    H246156   5.742   4.629  10.788 -0.3614 -0.5957 -2.4681
 7321TIP3   OH246157   5.349   4.675  11.591 -0.1484  0.1090 -0.4589
 7321TIP3    H146158   5.254   4.676  11.601 -0.1628 -2.2050  0.3553
 7321TIP3    H246159   5.364   4.683  11.497 -1.0653  1.5779 -0.5058
 7322TIP3   OH246160   3.900   4.954  10.939 -0.1632 -0.1446 -0.1318
 7322TIP3    H146161   3.930   5.029  10.888  1.3904 -1.4257 -1.1708
 7322TIP3    H246162   3.878   4.887  10.873  1.1323 -1.5551  0.8122
 7323TIP3   OH246163   7.234   1.620  11.421  0.2815  0.0853  0.4480
 7323TIP3    H146164   7.314   1.581  11.385  0.7138  0.3343  1.1160
 7323TIP3    H246165   7.183   1.546  11.453 -0.4677 -0.2194 -1.3305
 7324TIP3   OH246166   6.116   2.521  11.005 -0.3307 -0.4836  0.1992
 7324TIP3    H146167   6.163   2.558  11.079  0.3367  0.9271 -0.8775
 7324TIP3    H246168   6.063   2.594  10.971  0.7185 -0.5666 -1.7477
 7325TIP3   OH246169   7.465   6.057  13.146  0.6217  0.4656  0.1495
 7325TIP3    H146170   7.448   6.146  13.117 -0.9879  0.9729  2.3695
 7325TIP3    H246171   7.392   6.006  13.112  0.5238  0.3981  0.4528
 7326TIP3   OH246172   1.638   6.767  10.957 -0.6627 -0.3544 -0.7950
 7326TIP3    H146173   1.569   6.833  10.948 -0.1750  0.1473 -0.9153
 7326TIP3    H246174   1.700   6.806  11.019  0.9257  0.4305 -2.7523
 7327TIP3   OH246175   1.801   3.602  10.522  0.0625 -0.2482 -0.3512
 7327TIP3    H146176   1.882   3.552  10.518 -1.4587 -2.9165 -0.8018
 7327TIP3    H246177   1.819   3.682  10.473  2.1418 -1.2125 -1.2679
 7328TIP3   OH246178   4.003   0.160  12.370  0.2788 -0.0014 -0.4801
 7328TIP3    H146179   3.939   0.207  12.424  0.1804 -0.5254 -0.1362
 7328TIP3    H246180   4.070   0.226  12.351 -0.3039  0.5255 -0.7579
 7329TIP3   OH246181   6.333   6.260  11.999  0.6698 -0.1005 -0.0779
 7329TIP3    H146182   6.390   6.332  12.028  0.1356  1.1038 -1.9091
 7329TIP3    H246183   6.330   6.202  12.075 -0.7523  2.8998  2.4311
 7330TIP3   OH246184   4.929   3.826  11.221 -0.0880  0.1390 -0.6197
 7330TIP3    H146185   4.938   3.806  11.128  1.0739 -1.5076 -0.1935
 7330TIP3    H246186   4.939   3.921  11.226  0.3534  0.1993 -2.1188
 7331TIP3   OH246187   4.708   5.153  11.423 -0.4123 -0.3207 -0.4155
 7331TIP3    H146188   4.682   5.100  11.498 -1.0058 -1.4388 -1.3862
 7331TIP3    H246189   4.627   5.193  11.392 -0.1544  0.2115 -0.4176
 7332TIP3   OH246190   0.886   5.720  12.737 -0.1249 -0.4253 -0.6392
 7332TIP3    H146191   0.829   5.764  12.674  2.4120  1.4754 -1.8000
 7332TIP3    H246192   0.918   5.791  12.794 -1.1938 -1.8819  1.9249
 7333TIP3   OH246193   6.212   1.449  12.409 -0.3868 -0.5267 -0.0220
 7333TIP3    H146194   6.252   1.370  12.375 -0.6066 -0.2120 -1.0450
 7333TIP3    H246195   6.118   1.435  12.400 -0.4921 -0.7998  1.3095
 7334TIP3   OH246196   0.315   2.927  11.053 -0.1986 -0.1054  0.0714
 7334TIP3    H146197   0.338   2.837  11.077  1.7653 -0.3389 -2.2922
 7334TIP3    H246198   0.399   2.971  11.041 -0.9646  0.7708 -3.1014
 7335TIP3   OH246199   5.518   4.964  10.725 -0.5082 -0.3697 -0.4727
 7335TIP3    H146200   5.577   5.038  10.710  0.7294 -1.4335 -1.0648
 7335TIP3    H246201   5.431   4.998  10.704 -0.0534  1.0865 -0.1144
 7336TIP3   OH246202   4.657   0.691  10.687  0.0697  0.0826 -0.4345
 7336TIP3    H146203   4.602   0.739  10.748  0.3152  0.1843 -0.2896
 7336TIP3    H246204   4.742   0.686  10.730  0.1273 -0.2192 -0.5825
 7337TIP3   OH246205   5.273   4.201  11.059  0.0773 -0.0060  0.2471
 7337TIP3    H146206   5.203   4.191  11.123 -0.7451  1.2205 -0.4124
 7337TIP3    H246207   5.267   4.124  11.003 -0.6413  0.0038  0.3038
 7338TIP3   OH246208   7.203   5.025  13.075  0.1278  0.5326 -0.3898
 7338TIP3    H146209   7.129   5.018  13.136 -1.9639 -1.9040 -2.9814
 7338TIP3    H246210   7.194   5.113  13.037  0.4370  1.4043  1.4158
 7339TIP3   OH246211   6.572   2.086  10.785  0.2719  0.4653 -0.1518
 7339TIP3    H146212   6.535   2.159  10.835 -0.3862  1.0068 -1.3937
 7339TIP3    H246213   6.605   2.125  10.704 -0.2470 -0.6135 -0.9177
 7340TIP3   OH246214   6.980   1.113  11.471 -0.0838  0.5362 -0.2540
 7340TIP3    H146215   6.952   1.088  11.559 -1.0885  1.6959 -0.2018
 7340TIP3    H246216   6.918   1.068  11.413  0.8254 -0.5491 -0.4129
 7341TIP3   OH246217   5.913   1.862  13.267 -0.0107 -0.6069  0.3381
 7341TIP3    H146218   5.827   1.905  13.263 -0.9884 -2.3260  1.5060
 7341TIP3    H246219   5.949   1.873  13.179 -1.1455  0.6794 -0.0105
 7342TIP3   OH246220   5.901   1.149  12.239 -0.4556  0.4129  0.2241
 7342TIP3    H146221   5.874   1.092  12.310 -0.5185  0.5600  0.3193
 7342TIP3    H246222   5.878   1.101  12.159 -1.4407  0.7428  0.3008
 7343TIP3   OH246223   0.743   3.021  11.080 -0.1588 -0.0665 -0.0535
 7343TIP3    H146224   0.699   3.086  11.135 -0.0672 -1.4490  1.7313
 7343TIP3    H246225   0.732   3.054  10.991 -2.1015  1.2287  0.5976
 7344TIP3   OH246226   5.723   0.479  11.044 -0.0336 -0.2802 -0.7237
 7344TIP3    H146227   5.700   0.569  11.020 -2.8081 -1.0051 -1.0758
 7344TIP3    H246228   5.670   0.461  11.122  0.6702 -1.5572 -0.5235
 7345TIP3   OH246229   6.634   5.097  13.257 -0.8222 -0.0104 -0.2526
 7345TIP3    H146230   6.625   5.075  13.164 -1.7033  0.2649 -0.2402
 7345TIP3    H246231   6.637   5.013  13.302  1.1213 -0.2011 -0.6345
 7346TIP3   OH246232   0.937   5.715  11.792 -0.2106 -0.2062  0.2463
 7346TIP3    H146233   0.998   5.644  11.811  1.2963  0.8901 -0.3317
 7346TIP3    H246234   0.899   5.737  11.877  1.6361  0.3474  0.9836
 7347TIP3   OH246235   0.212   3.419  10.937 -0.0409  0.2235  0.1167
 7347TIP3    H146236   0.256   3.415  11.022 -2.0316 -0.4539  1.1599
 7347TIP3    H246237   0.160   3.499  10.940 -1.3696 -0.6277  0.1844
 7348TIP3   OH246238   3.804   7.505  13.205  0.0927  0.0912 -0.5760
 7348TIP3    H146239   3.814   7.432  13.145  0.1142  1.7296 -2.6759
 7348TIP3    H246240   3.870   7.489  13.273  0.9830 -1.1507 -1.6912
 7349TIP3   OH246241   2.639   5.206  13.475 -0.3659  0.7110  0.2664
 7349TIP3    H146242   2.729   5.179  13.453 -0.3596  0.4920  0.5518
 7349TIP3    H246243   2.639   5.301  13.461  0.5293  1.0739  2.2478
 7350TIP3   OH246244   2.209   3.647  11.549 -0.6597  0.1838 -0.0165
 7350TIP3    H146245   2.231   3.736  11.522  2.6899 -1.1579 -2.4192
 7350TIP3    H246246   2.128   3.626  11.502  0.1691  0.9770 -1.8516
 7351TIP3   OH246247   6.194   2.487  12.250 -1.0663 -0.6463 -0.6100
 7351TIP3    H146248   6.192   2.490  12.154  0.8045 -2.1181 -0.7514
 7351TIP3    H246249   6.287   2.481  12.272 -1.4475 -0.0188  1.3289
 7352TIP3   OH246250   2.730   3.020  12.779 -0.2713  0.2577  0.8049
 7352TIP3    H146251   2.781   3.011  12.699 -0.0804  0.1617  0.9369
 7352TIP3    H246252   2.639   3.008  12.751 -0.0649 -1.9689  0.9217
 7353TIP3   OH246253   6.961   5.504  11.934  0.5564 -0.0783  0.3455
 7353TIP3    H146254   6.946   5.541  11.847  0.5170  2.0044  1.1796
 7353TIP3    H246255   7.032   5.441  11.922  0.2589 -0.1404 -1.2579
 7354TIP3   OH246256   2.200   2.532  12.886  0.5434  0.5591 -0.8075
 7354TIP3    H146257   2.153   2.450  12.902 -0.4723  1.4284  0.9229
 7354TIP3    H246258   2.149   2.576  12.817 -0.5397  0.9598  0.2210
 7355TIP3   OH246259   6.272   1.075  10.581  0.1628 -0.1367 -0.4137
 7355TIP3    H146260   6.353   1.028  10.559  0.1397 -0.7566  0.7762
 7355TIP3    H246261   6.287   1.164  10.549  1.2200 -0.3082 -0.4270
 7356TIP3   OH246262   6.002   5.360  12.685  0.1572 -0.7455 -0.0519
 7356TIP3    H146263   6.014   5.362  12.590  1.1606  0.2431  0.0655
 7356TIP3    H246264   6.081   5.402  12.720 -2.0749  3.0625  1.0100
 7357TIP3   OH246265   2.451   0.357  12.543  0.0564 -0.0496  0.1210
 7357TIP3    H146266   2.535   0.394  12.569  0.3546 -0.2034 -0.5975
 7357TIP3    H246267   2.417   0.315  12.622 -0.3543  1.8586  1.0114
 7358TIP3   OH246268   4.703   6.651  11.409 -0.3552 -0.1245  0.3648
 7358TIP3    H146269   4.630   6.679  11.464 -0.9766 -0.3270 -0.3311
 7358TIP3    H246270   4.734   6.731  11.367 -0.6646 -0.1353  0.1047
 7359TIP3   OH246271   3.674   0.092  10.678 -0.1828  0.1988 -0.5295
 7359TIP3    H146272   3.587   0.104  10.714  0.0193  0.4209 -0.1032
 7359TIP3    H246273   3.660   0.079  10.584 -0.5367  2.4844 -0.8593
 7360TIP3   OH246274   6.548   6.322  12.199  0.4937  0.3376  0.3637
 7360TIP3    H146275   6.548   6.324  12.294  0.6279 -0.2398  0.3809
 7360TIP3    H246276   6.506   6.239  12.177 -2.1331  1.6880 -0.1236
 7361TIP3   OH246277   4.905   1.409  12.155 -0.5269  0.4803 -0.2335
 7361TIP3    H146278   4.979   1.468  12.167  0.2921 -0.5229 -0.3154
 7361TIP3    H246279   4.907   1.386  12.062 -0.6497  0.0666 -0.1353
 7362TIP3   OH246280   7.465   6.901  12.639  0.4717  0.3034  0.6244
 7362TIP3    H146281   7.536   6.847  12.604  1.3693  1.1138  1.1571
 7362TIP3    H246282   7.463   6.978  12.583 -0.1415  0.1945  0.4836
 7363TIP3   OH246283   5.889   2.111  13.066  0.0207  0.5280  0.2262
 7363TIP3    H146284   5.831   2.121  12.991  0.8208  0.9522 -0.3519
 7363TIP3    H246285   5.951   2.043  13.039  1.1441  1.6209 -0.0594
 7364TIP3   OH246286   3.366   7.096  12.274 -0.2019 -0.1682  0.4729
 7364TIP3    H146287   3.382   7.093  12.179  0.6397 -1.2393  0.6367
 7364TIP3    H246288   3.453   7.093  12.313 -0.6137 -1.8740  1.3098
 7365TIP3   OH246289   5.138   3.771  10.443  0.1830 -0.3859 -0.2952
 7365TIP3    H146290   5.054   3.816  10.449 -1.1316 -2.8807  2.3695
 7365TIP3    H246291   5.196   3.821  10.501 -0.3766 -0.4668  0.3356
 7366TIP3   OH246292   2.957   0.356  11.196  0.1087  1.0892  0.2090
 7366TIP3    H146293   2.987   0.324  11.281 -0.7079 -0.3280 -0.0015
 7366TIP3    H246294   2.871   0.395  11.214 -0.0395  0.8409  0.0432
 7367TIP3   OH246295   5.725   3.900  11.478 -0.4656 -0.0803 -0.2566
 7367TIP3    H146296   5.757   3.989  11.460 -1.3949  0.3561  0.2165
 7367TIP3    H246297   5.747   3.885  11.570 -0.3466 -0.3308 -0.3251
 7368TIP3   OH246298   3.944   6.177  10.711 -0.0260  0.3986  0.2365
 7368TIP3    H146299   3.988   6.099  10.743 -0.4457  0.0813  0.0547
 7368TIP3    H246300   3.872   6.192  10.773  0.8172  1.3960  1.0079
 7369TIP3   OH246301   2.383   5.667  12.613  0.0812 -0.2630 -0.0599
 7369TIP3    H146302   2.324   5.599  12.581  1.4566 -0.6194 -2.0406
 7369TIP3    H246303   2.351   5.687  12.701 -1.5601 -2.0548 -0.1763
 7370TIP3   OH246304   0.141   4.703  10.911  0.0831 -0.3545  0.6372
 7370TIP3    H146305   0.190   4.760  10.970 -0.0013 -1.1896  1.5429
 7370TIP3    H246306   0.205   4.678  10.844  0.1610  0.6597  0.3206
 7371TIP3   OH246307   4.193   3.882  11.994 -0.5590  0.6186 -0.3448
 7371TIP3    H146308   4.235   3.880  12.081 -1.3072  2.0741  0.0714
 7371TIP3    H246309   4.233   3.809  11.947  0.2354  0.1130  1.0554
 7372TIP3   OH246310   1.314   2.103  10.296 -0.0162 -0.2577  0.0017
 7372TIP3    H146311   1.235   2.125  10.247 -1.2217  0.2062  2.0611
 7372TIP3    H246312   1.380   2.165  10.265 -1.3908  1.5661  0.5734
 7373TIP3   OH246313   1.541   3.423  12.656 -0.1444  0.1255  0.1752
 7373TIP3    H146314   1.561   3.442  12.564 -0.8239  1.0460  0.1899
 7373TIP3    H246315   1.622   3.388  12.692 -0.0692 -0.8953 -0.9404
 7374TIP3   OH246316   3.890   2.846  11.599  0.0623 -0.0594  0.7544
 7374TIP3    H146317   3.929   2.801  11.673 -2.2484 -1.3330  1.2959
 7374TIP3    H246318   3.830   2.909  11.639 -3.6431 -2.9015  0.2204
 7375TIP3   OH246319   0.302   6.933  12.685 -0.1498 -0.2163 -0.8126
 7375TIP3    H146320   0.375   6.902  12.739 -0.7119  0.5633  0.4163
 7375TIP3    H246321   0.329   7.021  12.657 -0.5561  0.0125 -0.4798
 7376TIP3   OH246322   7.447   7.037  11.232  0.4589 -0.2689  0.0904
 7376TIP3    H146323   7.396   7.118  11.233 -0.6591 -0.9543  0.3651
 7376TIP3    H246324   7.440   7.005  11.142  1.6711  0.3934 -0.2588
 7377TIP3   OH246325   4.011   2.351  11.011 -0.6930 -0.2761  0.2316
 7377TIP3    H146326   4.073   2.415  11.044  0.5647 -1.1893 -0.2950
 7377TIP3    H246327   3.993   2.293  11.085 -0.4039 -0.4020  0.2024
 7378TIP3   OH246328   4.571   0.958  10.883 -0.2668 -0.5350  0.4153
 7378TIP3    H146329   4.596   0.931  10.971  0.6224  0.6865  0.5504
 7378TIP3    H246330   4.653   0.972  10.837 -0.7195 -0.5321 -0.4179
 7379TIP3   OH246331   7.338   4.849  10.481  0.3414 -0.1681  0.2959
 7379TIP3    H146332   7.269   4.810  10.536  0.4129  0.1023  0.5826
 7379TIP3    H246333   7.417   4.844  10.534  0.5931 -0.6807 -0.1229
 7380TIP3   OH246334   7.401   2.066  10.369  0.5212  0.7215 -0.6922
 7380TIP3    H146335   7.366   2.008  10.436  0.0174  1.3564 -0.3896
 7380TIP3    H246336   7.384   2.021  10.286  2.5122 -0.7948 -0.3572
 7381TIP3   OH246337   4.411   3.249  12.279 -0.4880 -0.4472  0.3035
 7381TIP3    H146338   4.432   3.285  12.193  1.1068  0.7170  1.1275
 7381TIP3    H246339   4.322   3.280  12.297  0.8037  3.3720  0.9865
 7382TIP3   OH246340   1.014   5.801  10.768  0.0727 -0.2754 -0.0598
 7382TIP3    H146341   0.933   5.852  10.781 -0.0978 -0.1911 -1.3909
 7382TIP3    H246342   1.012   5.737  10.839 -1.2499 -0.3807 -0.1537
 7383TIP3   OH246343   0.214   6.854  10.444  0.0718 -0.2991  0.4248
 7383TIP3    H146344   0.122   6.842  10.466  0.2347 -1.8454  0.3606
 7383TIP3    H246345   0.239   6.936  10.487 -1.2581  0.0182  0.6292
 7384TIP3   OH246346   6.984   1.852  10.930 -0.4372  0.2453 -0.7760
 7384TIP3    H146347   6.940   1.786  10.983  0.9152  0.6747  0.9944
 7384TIP3    H246348   7.077   1.840  10.950  0.0902  0.8130 -2.6654
 7385TIP3   OH246349   5.697   0.229  11.222  0.0839  0.2367  0.1920
 7385TIP3    H146350   5.755   0.177  11.165  0.2075  0.9232 -0.3260
 7385TIP3    H246351   5.757   0.280  11.276  0.0062  1.7868 -1.1149
 7386TIP3   OH246352   4.134   2.179  11.654 -0.2294  0.6374 -0.1440
 7386TIP3    H146353   4.095   2.241  11.716 -0.5365  0.0319  0.2723
 7386TIP3    H246354   4.068   2.111  11.643  0.0082  0.5088 -0.7957
 7387TIP3   OH246355   1.716   5.349  11.074 -0.0617 -0.1602 -0.5750
 7387TIP3    H146356   1.631   5.387  11.056  0.0371  0.9220  1.0154
 7387TIP3    H246357   1.777   5.396  11.017 -0.3694 -0.0946 -0.8480
 7388TIP3   OH246358   4.398   6.140  12.996  0.0304 -0.4936 -0.3100
 7388TIP3    H146359   4.351   6.094  12.926 -1.7737 -1.7856  1.6247
 7388TIP3    H246360   4.332   6.197  13.036  1.6866  2.2898 -1.2470
 7389TIP3   OH246361   6.009   4.974  11.881  0.0567 -0.2539 -0.1380
 7389TIP3    H146362   6.102   4.956  11.890  0.2226  0.7799  0.2544
 7389TIP3    H246363   5.998   5.004  11.791  0.4327  1.5103  0.3812
 7390TIP3   OH246364   1.416   4.477  10.690 -0.0705  0.7540 -0.3526
 7390TIP3    H146365   1.369   4.396  10.674 -0.0558 -0.6689  5.0476
 7390TIP3    H246366   1.508   4.455  10.671 -0.0761 -0.5577  0.9658
 7391TIP3   OH246367   6.324   5.466  10.700  0.0391  0.1104  0.1668
 7391TIP3    H146368   6.400   5.418  10.666  0.0316  0.9077 -1.0503
 7391TIP3    H246369   6.353   5.557  10.703 -0.9712  0.4833 -0.7013
 7392TIP3   OH246370   1.311   0.120  12.089  0.1997 -0.0793 -0.0481
 7392TIP3    H146371   1.242   0.054  12.078 -1.3774  1.2531  1.2880
 7392TIP3    H246372   1.264   0.203  12.094  2.1328  1.2589 -2.0086
 7393TIP3   OH246373   5.588   1.536  11.102  0.6424 -0.0511 -0.3851
 7393TIP3    H146374   5.621   1.563  11.187 -0.3855 -0.7808  0.2723
 7393TIP3    H246375   5.659   1.486  11.062  1.2641  0.6164 -0.1236
 7394TIP3   OH246376   1.443   5.487  11.041  0.1847 -0.1235 -0.5526
 7394TIP3    H146377   1.349   5.479  11.022 -0.6365 -0.8831  3.0697
 7394TIP3    H246378   1.452   5.574  11.080  0.8353 -0.3062 -0.2758
 7395TIP3   OH246379   4.940   0.974  11.565  0.4786  0.0382  0.1219
 7395TIP3    H146380   4.978   1.048  11.519 -0.8114 -0.7000 -2.3292
 7395TIP3    H246381   4.975   0.897  11.520  0.0261 -0.7856  1.1313
 7396TIP3   OH246382   7.625   3.686  11.966 -0.6070  0.0014 -0.5440
 7396TIP3    H146383   7.699   3.625  11.961 -0.4029  0.2860 -1.0608
 7396TIP3    H246384   7.665   3.772  11.978 -0.8945  0.0457  0.1384
 7397TIP3   OH246385   7.190   2.091  11.587 -0.1372  0.7397  0.2429
 7397TIP3    H146386   7.130   2.152  11.545 -2.5263 -2.4854 -1.4468
 7397TIP3    H246387   7.243   2.056  11.516 -0.5034 -0.8867  0.7331
 7398TIP3   OH246388   7.022   4.722  11.896 -0.2697 -0.6155 -0.5409
 7398TIP3    H146389   7.023   4.641  11.844  2.4240  0.2106 -1.9959
 7398TIP3    H246390   6.954   4.776  11.856 -0.7362 -1.4153 -0.8344
 7399TIP3   OH246391   3.814   1.687  12.157  0.0862 -0.2708  0.6455
 7399TIP3    H146392   3.749   1.616  12.154  0.6115 -0.7202 -0.6303
 7399TIP3    H246393   3.885   1.652  12.211  0.5191 -0.8876 -0.3026
 7400TIP3   OH246394   7.484   4.071  10.691 -0.5097 -0.5940 -0.0442
 7400TIP3    H146395   7.417   4.138  10.703 -0.2762 -0.3568 -0.0499
 7400TIP3    H246396   7.510   4.080  10.599  0.9087  0.6275  0.4372
 7401TIP3   OH246397   0.156   4.809  10.560 -0.6561 -0.2358  0.1432
 7401TIP3    H146398   0.153   4.856  10.644 -0.1770  1.6243 -0.8279
 7401TIP3    H246399   0.102   4.862  10.501 -0.9396 -1.4878 -0.7647
 7402TIP3   OH246400   2.084   5.218  11.272  0.1577 -0.1990  0.0299
 7402TIP3    H146401   2.125   5.153  11.214  1.0655  0.6744 -0.3477
 7402TIP3    H246402   2.080   5.175  11.357  0.9049 -0.7008 -0.1727
 7403TIP3   OH246403   6.622   3.872  10.983  0.5504 -0.3945 -0.4079
 7403TIP3    H146404   6.693   3.897  10.923 -1.3143 -0.3389 -2.7720
 7403TIP3    H246405   6.577   3.801  10.938 -1.2789  0.0013  0.6711
 7404TIP3   OH246406   5.567   7.281  10.657 -0.0559 -0.0612  0.0662
 7404TIP3    H146407   5.512   7.203  10.671  0.9578 -1.1459 -1.5565
 7404TIP3    H246408   5.505   7.353  10.649 -1.5055 -1.4502 -3.2637
 7405TIP3   OH246409   0.677   5.099  12.634 -0.0516 -0.1513  0.1560
 7405TIP3    H146410   0.643   5.020  12.676  1.5053 -0.7361  0.3807
 7405TIP3    H246411   0.747   5.130  12.692  2.0551 -0.8919 -1.8200
 7406TIP3   OH246412   0.857   2.965  10.550 -0.2232 -0.1026  0.3915
 7406TIP3    H146413   0.854   3.054  10.514  1.0085  0.6023  1.8848
 7406TIP3    H246414   0.835   2.908  10.476 -1.1733  1.4365 -0.5692
 7407TIP3   OH246415   5.263   3.523  10.416  0.5103  0.2932  0.3717
 7407TIP3    H146416   5.304   3.510  10.331  0.3750  1.3686  0.1253
 7407TIP3    H246417   5.208   3.600  10.405  0.3081  0.3122  1.3711
 7408TIP3   OH246418   2.620   2.567  12.448 -0.7228 -0.0724 -0.1250
 7408TIP3    H146419   2.532   2.585  12.480 -0.9184 -2.2760  0.7897
 7408TIP3    H246420   2.666   2.532  12.525  0.4387 -0.5085 -0.9936
 7409TIP3   OH246421   4.015   5.193  10.831  0.0936 -0.5518  0.6628
 7409TIP3    H146422   4.020   5.197  10.736  0.7011  0.9980  0.7472
 7409TIP3    H246423   4.104   5.175  10.860  0.3729  1.2264  1.0125
 7410TIP3   OH246424   5.293   3.253  10.534 -0.3394 -0.1021  0.4794
 7410TIP3    H146425   5.227   3.200  10.578 -0.3409 -0.4482  0.0660
 7410TIP3    H246426   5.244   3.326  10.495 -0.4896 -0.3832  0.1338
 7411TIP3   OH246427   3.705   3.731  13.489  0.3811  0.7094 -0.5213
 7411TIP3    H146428   3.668   3.789  13.555  0.6907  0.7647 -0.3922
 7411TIP3    H246429   3.651   3.652  13.493  0.6410  0.5529  0.0880
 7412TIP3   OH246430   2.233   7.420  12.635  0.3792  0.1023 -0.5218
 7412TIP3    H146431   2.234   7.515  12.622  0.8923  0.1874  0.1211
 7412TIP3    H246432   2.159   7.404  12.694  0.3041  0.0956 -0.6151
 7413TIP3   OH246433   3.232   4.875  11.942 -0.4699  0.3330 -0.1961
 7413TIP3    H146434   3.146   4.873  11.899 -1.2621 -0.0199  1.3596
 7413TIP3    H246435   3.245   4.967  11.966 -0.9852  0.1747  0.6892
 7414TIP3   OH246436   2.542   6.472  10.848 -0.7439 -0.1372 -0.2214
 7414TIP3    H146437   2.488   6.394  10.862  1.2605 -1.6247 -0.3043
 7414TIP3    H246438   2.628   6.448  10.882 -0.1006  2.1298 -0.0898
 7415TIP3   OH246439   1.613   5.763  12.589 -0.7214 -0.0755 -0.5430
 7415TIP3    H146440   1.591   5.747  12.680 -0.7309  1.1317 -0.3073
 7415TIP3    H246441   1.616   5.676  12.549  2.1897 -0.9286  1.2402
 7416TIP3   OH246442   1.037   6.082  10.944  0.0972  0.2353  0.2376
 7416TIP3    H146443   1.004   6.172  10.941 -0.2888  0.0898  0.0551
 7416TIP3    H246444   0.960   6.027  10.930 -0.0009 -0.1998  2.1678
 7417TIP3   OH246445   3.494   6.708  10.844 -0.0917 -0.3229  0.4573
 7417TIP3    H146446   3.472   6.699  10.752  0.4806  2.0868 -0.0045
 7417TIP3    H246447   3.410   6.727  10.887 -0.1424  0.2901  0.1114
 7418TIP3   OH246448   7.491   3.369  11.649  0.6271 -0.6205 -0.2687
 7418TIP3    H146449   7.542   3.322  11.583  0.5106 -0.6240 -0.3562
 7418TIP3    H246450   7.445   3.437  11.600  0.3515 -0.7760 -0.2292
 7419TIP3   OH246451   6.054   6.812  13.230 -0.5929  0.0101  0.1810
 7419TIP3    H146452   6.030   6.869  13.157  1.3337  1.1704  0.3667
 7419TIP3    H246453   6.134   6.769  13.201  0.1647  0.4292  1.5331
 7420TIP3   OH246454   0.859   0.707  12.345  0.4880 -0.2886 -1.1830
 7420TIP3    H146455   0.904   0.776  12.295  2.2511  1.1535  2.1175
 7420TIP3    H246456   0.919   0.632  12.342  0.1310 -0.5675 -1.9170
 7421TIP3   OH246457   5.381   3.580  10.674 -0.6162 -0.7018  0.2559
 7421TIP3    H146458   5.424   3.496  10.687  1.8887  0.1201 -1.8427
 7421TIP3    H246459   5.340   3.573  10.588  0.0105  0.3198 -0.1506
 7422TIP3   OH246460   1.751   6.403  10.664 -0.1072  0.0052  0.0273
 7422TIP3    H146461   1.839   6.374  10.641  1.8143  0.0336  5.6197
 7422TIP3    H246462   1.700   6.322  10.671  0.9659 -0.5941  1.3634
 7423TIP3   OH246463   7.628   0.772  10.731 -0.5802 -0.2474 -0.2386
 7423TIP3    H146464   7.720   0.746  10.738 -0.8802 -0.8768  1.9445
 7423TIP3    H246465   7.629   0.867  10.742 -0.3343 -0.4637  1.9946
 7424TIP3   OH246466   1.027   3.171  13.286  0.1063 -1.0479  0.0832
 7424TIP3    H146467   1.114   3.131  13.273  1.2155  1.1422  0.3191
 7424TIP3    H246468   0.988   3.171  13.198  1.7607  0.8847 -0.7472
 7425TIP3   OH246469   5.019   4.129  11.125 -0.6952 -0.2850  0.2301
 7425TIP3    H146470   4.967   4.174  11.059 -0.6103 -1.7704 -0.9130
 7425TIP3    H246471   4.981   4.155  11.209 -1.2708  1.0657 -0.4322
 7426TIP3   OH246472   1.043   2.822  13.488 -0.0725 -0.0750  0.1230
 7426TIP3    H146473   1.010   2.882  13.421 -0.2927 -1.1093 -0.7249
 7426TIP3    H246474   1.135   2.848  13.500  0.2082 -0.3905 -1.1941
 7427TIP3   OH246475   1.730   0.725  10.731  0.1396  0.2113  0.3862
 7427TIP3    H146476   1.635   0.719  10.740 -0.1208  1.2005 -1.3660
 7427TIP3    H246477   1.747   0.711  10.638  1.4461  2.6866  0.1754
 7428TIP3   OH246478   3.537   5.482  11.239 -0.2398 -0.2763  0.1044
 7428TIP3    H146479   3.530   5.525  11.154  1.2083  1.4916  0.8003
 7428TIP3    H246480   3.477   5.531  11.296  0.5507  0.1297  0.6221
 7429TIP3   OH246481   3.790   3.934  13.342 -0.4745  0.3022  1.0520
 7429TIP3    H146482   3.722   3.994  13.374 -1.7353 -1.5842  2.0953
 7429TIP3    H246483   3.761   3.847  13.371  0.0353 -1.1775 -2.3559
 7430TIP3   OH246484   1.493   2.419  10.529 -0.0203  0.0388  0.2113
 7430TIP3    H146485   1.573   2.445  10.482 -0.0789 -0.1542  0.0061
 7430TIP3    H246486   1.523   2.400  10.617  0.2267 -0.4252  0.0289
 7431TIP3   OH246487   6.532   0.955  10.557  0.9669  0.4282 -0.1716
 7431TIP3    H146488   6.583   1.034  10.546  2.0094 -0.3745 -1.3781
 7431TIP3    H246489   6.583   0.901  10.617  1.2176 -0.0835 -0.8264
 7432TIP3   OH246490   0.825   1.813  12.085 -0.0985  0.1807  0.1960
 7432TIP3    H146491   0.844   1.763  12.165 -0.4974 -0.1666  0.0762
 7432TIP3    H246492   0.907   1.812  12.036 -1.0639 -3.8293 -1.7124
 7433TIP3   OH246493   4.330   6.276  11.428  0.1301  0.6207 -0.4147
 7433TIP3    H146494   4.282   6.218  11.369  0.1403 -0.5113  0.6532
 7433TIP3    H246495   4.275   6.354  11.435 -1.2402 -0.3641  0.2306
 7434TIP3   OH246496   3.079   2.254  11.652  0.2240 -0.3243  0.7482
 7434TIP3    H146497   3.121   2.337  11.631  0.8275 -0.3995  1.6144
 7434TIP3    H246498   3.119   2.191  11.592  1.8675 -0.5225  1.9925
 7435TIP3   OH246499   7.356   6.084  12.562  0.7119  0.3898 -0.3099
 7435TIP3    H146500   7.390   6.135  12.636  0.6261  0.5865 -0.4056
 7435TIP3    H246501   7.324   6.003  12.602 -0.3536  0.9569  0.0229
 7436TIP3   OH246502   2.343   2.319  11.487 -0.3580  0.0946 -0.3190
 7436TIP3    H146503   2.253   2.296  11.465 -0.2823 -0.0280 -0.5132
 7436TIP3    H246504   2.377   2.242  11.533 -0.7343  0.6303  0.8819
 7437TIP3   OH246505   5.185   3.405  11.666 -0.5126  0.3159  0.2613
 7437TIP3    H146506   5.188   3.473  11.598 -0.7040 -0.9573 -1.0821
 7437TIP3    H246507   5.095   3.408  11.698 -0.0984  1.7518  1.3760
 7438TIP3   OH246508   7.049   7.542  11.170  0.6486 -0.2787  0.4208
 7438TIP3    H146509   7.089   7.481  11.232 -0.1774  0.7930  2.0767
 7438TIP3    H246510   7.018   7.615  11.224 -1.9566 -0.2326 -0.9652
 7439TIP3   OH246511   7.673   6.667  13.356  0.2321 -0.0204  0.4868
 7439TIP3    H146512   7.683   6.759  13.332  0.5599  0.0223  0.7835
 7439TIP3    H246513   7.612   6.632  13.291 -1.3227  0.8218  1.4275
 7440TIP3   OH246514   2.661   6.643  10.395 -0.3781 -0.1169  0.0256
 7440TIP3    H146515   2.625   6.675  10.479 -0.0876  1.3564 -0.3789
 7440TIP3    H246516   2.755   6.660  10.402 -0.3153 -0.2698 -0.4850
 7441TIP3   OH246517   2.965   0.825  10.588  0.0802 -0.0458 -0.1063
 7441TIP3    H146518   3.043   0.796  10.541  1.5512  0.8285  1.6309
 7441TIP3    H246519   2.907   0.860  10.521 -0.4164 -3.8323 -1.9091
 7442TIP3   OH246520   4.088   4.056  11.574 -0.3069 -0.5485 -0.4661
 7442TIP3    H146521   4.067   4.049  11.667  0.6708 -1.1800 -0.2786
 7442TIP3    H246522   4.168   4.005  11.564  1.0358  1.5934 -1.1947
 7443TIP3   OH246523   1.941   2.020  12.352 -0.1436 -0.1598 -0.7287
 7443TIP3    H146524   1.973   2.036  12.441  0.0082  0.9773 -0.9794
 7443TIP3    H246525   1.997   1.949  12.319 -0.7945 -1.2258  0.3813
 7444TIP3   OH246526   2.633   2.360  11.476 -0.5904  0.2951  0.0070
 7444TIP3    H146527   2.538   2.367  11.466 -0.6831 -0.2332  0.4746
 7444TIP3    H246528   2.661   2.308  11.400 -0.2708  2.9033 -1.7993
 7445TIP3   OH246529   1.780   4.219  12.656  0.3163 -0.1231  0.9824
 7445TIP3    H146530   1.705   4.231  12.714  0.0523  1.4144  0.3667
 7445TIP3    H246531   1.856   4.229  12.714  0.0521  0.1577  1.2855
 7446TIP3   OH246532   0.416   1.993  11.836  0.3217 -0.0503 -0.1739
 7446TIP3    H146533   0.460   1.920  11.794  0.0535 -0.0691 -0.4275
 7446TIP3    H246534   0.364   1.953  11.905 -0.6691 -0.2344 -0.9927
 7447TIP3   OH246535   4.779   2.008  11.563  0.0161  0.2541 -0.3577
 7447TIP3    H146536   4.860   1.957  11.565 -0.9289 -1.4305 -1.9912
 7447TIP3    H246537   4.709   1.942  11.570 -1.2609  1.6939  1.5474
 7448TIP3   OH246538   4.421   1.659  10.813 -0.0440 -0.3026 -0.0784
 7448TIP3    H146539   4.400   1.624  10.726  1.2090  0.1546 -0.5881
 7448TIP3    H246540   4.374   1.602  10.874 -1.4658 -0.2564 -1.0668
 7449TIP3   OH246541   6.571   4.441  10.909  0.4305 -0.5160 -0.0460
 7449TIP3    H146542   6.624   4.374  10.952  1.3209 -1.1217 -1.9594
 7449TIP3    H246543   6.508   4.393  10.856 -2.4737  0.1824  2.4780
 7450TIP3   OH246544   4.210   0.598  11.013  0.2190  0.3647 -0.2137
 7450TIP3    H146545   4.237   0.512  11.044  2.3981  0.4970 -1.4761
 7450TIP3    H246546   4.137   0.580  10.954 -0.0156 -0.4969  0.3178
 7451TIP3   OH246547   3.023   2.226  11.031  0.1651  0.4760  0.1242
 7451TIP3    H146548   3.098   2.286  11.029  0.0894  0.6286 -2.9245
 7451TIP3    H246549   2.952   2.276  10.990 -0.7445 -0.6969  0.2264
 7452TIP3   OH246550   1.341   6.911  12.685  0.5614 -0.1563  0.2152
 7452TIP3    H146551   1.399   6.838  12.706  0.0669 -0.3841  0.8342
 7452TIP3    H246552   1.280   6.915  12.759  0.1293  0.4193 -0.1643
 7453TIP3   OH246553   0.733   4.287  11.440 -0.8571 -0.0940  0.2688
 7453TIP3    H146554   0.683   4.356  11.395 -1.3460 -1.0482 -0.7131
 7453TIP3    H246555   0.813   4.330  11.468 -1.5451  1.0933  0.4721
 7454TIP3   OH246556   0.674   7.091  10.842  0.1288  0.1151 -0.2525
 7454TIP3    H146557   0.764   7.098  10.809  0.7129  0.9790  1.4111
 7454TIP3    H246558   0.653   6.998  10.835  1.4598 -0.2304  0.0900
 7455TIP3   OH246559   2.033   2.028  12.619 -0.4012 -0.0718 -0.0131
 7455TIP3    H146560   1.948   2.050  12.658 -0.2441  1.1741 -0.3285
 7455TIP3    H246561   2.080   2.111  12.616  0.9643 -0.7936  0.4414
 7456TIP3   OH246562   0.322   5.461  12.577  0.1565 -0.0258  0.1030
 7456TIP3    H146563   0.247   5.445  12.634 -0.4004 -2.3324 -1.1260
 7456TIP3    H246564   0.399   5.449  12.634 -0.3948 -0.1886  0.8311
 7457TIP3   OH246565   7.510   2.562  10.387 -0.2386  0.2307 -0.1671
 7457TIP3    H146566   7.566   2.573  10.311  0.2107  0.1049  0.1408
 7457TIP3    H246567   7.471   2.649  10.401 -0.2602  0.2735 -0.4872
 7458TIP3   OH246568   5.146   5.556  11.259 -0.4759 -0.6838  0.3785
 7458TIP3    H146569   5.233   5.589  11.240 -1.2015  1.1967  0.0686
 7458TIP3    H246570   5.155   5.461  11.260  1.6249 -0.5110  0.7041
 7459TIP3   OH246571   3.446   4.552  12.062 -0.4065 -0.2384  0.3806
 7459TIP3    H146572   3.440   4.516  12.151 -0.7026  0.0977  0.4983
 7459TIP3    H246573   3.537   4.582  12.055 -0.4807  0.0741  0.7058
 7460TIP3   OH246574   0.348   0.763  11.654  0.6862  0.3794  0.0056
 7460TIP3    H146575   0.305   0.796  11.575  0.3985 -0.2230 -0.0982
 7460TIP3    H246576   0.292   0.791  11.726  0.7097  0.5452 -0.0415
 7461TIP3   OH246577   4.190   0.386  12.424 -0.5574 -0.1024 -0.4120
 7461TIP3    H146578   4.280   0.407  12.451  0.0551  0.8807 -2.9081
 7461TIP3    H246579   4.137   0.411  12.500  1.2268 -0.6201  1.1093
 7462TIP3   OH246580   3.379   3.662  13.539 -0.1663  0.0536  0.2370
 7462TIP3    H146581   3.290   3.637  13.563  0.0084 -1.6759 -0.7451
 7462TIP3    H246582   3.422   3.579  13.517 -0.3133  1.1162 -6.0362
 7463TIP3   OH246583   2.860   1.146  11.094  0.8154  0.0783 -0.1518
 7463TIP3    H146584   2.798   1.103  11.153  0.4324  0.2965 -0.3921
 7463TIP3    H246585   2.893   1.221  11.144 -0.5787  1.1022 -0.7026
 7464TIP3   OH246586   7.005   3.991  11.559  0.7071 -0.4265 -0.2828
 7464TIP3    H146587   7.095   4.011  11.585  0.1726  0.2349  1.2043
 7464TIP3    H246588   6.963   3.961  11.640  0.1346 -2.8555 -1.4011
 7465TIP3   OH246589   1.754   5.219  12.056 -0.1246  0.2556  0.2324
 7465TIP3    H146590   1.796   5.133  12.056 -0.1747  0.1506 -2.4421
 7465TIP3    H246591   1.823   5.279  12.084  0.3937 -0.4718  0.5595
 7466TIP3   OH246592   2.108   1.782  11.998  0.0897  0.3057 -0.4053
 7466TIP3    H146593   2.017   1.765  11.973  0.2328  0.5838 -1.1650
 7466TIP3    H246594   2.138   1.847  11.935  0.5519  0.8856  0.4007
 7467TIP3   OH246595   6.685   7.118  10.875 -0.1300 -0.1670 -1.0868
 7467TIP3    H146596   6.633   7.177  10.929 -0.5556 -0.7220 -0.8846
 7467TIP3    H246597   6.703   7.043  10.932  0.3365 -0.2722 -1.3669
 7468TIP3   OH246598   5.367   4.260  11.770 -0.1125 -0.0331 -0.1057
 7468TIP3    H146599   5.327   4.185  11.726 -0.6685  1.2653 -1.9108
 7468TIP3    H246600   5.420   4.302  11.702 -0.5572  1.7444  0.6018
 7469TIP3   OH246601   1.885   1.949  11.283 -0.1968  0.4194 -0.1412
 7469TIP3    H146602   1.794   1.978  11.280 -0.4459 -0.3277 -0.1388
 7469TIP3    H246603   1.896   1.912  11.371 -0.2661 -0.6134 -0.5436
 7470TIP3   OH246604   0.165   1.156  10.904  0.2849 -0.2066 -0.3173
 7470TIP3    H146605   0.097   1.181  10.841  0.1825  0.2031 -0.0550
 7470TIP3    H246606   0.233   1.114  10.852  0.0291 -0.2116 -0.6468
 7471TIP3   OH246607   0.690   2.189  11.844 -0.0336  0.5187 -0.3766
 7471TIP3    H146608   0.691   2.111  11.788  2.3074  0.8374 -0.8792
 7471TIP3    H246609   0.782   2.208  11.860 -0.6133  1.4703  2.2092
 7472TIP3   OH246610   3.461   4.151  11.184  0.2601 -0.2195 -0.1144
 7472TIP3    H146611   3.554   4.134  11.199  0.4085 -0.3698 -1.1165
 7472TIP3    H246612   3.460   4.218  11.116 -0.3647  0.1752  0.2778
 7473TIP3   OH246613   1.624   4.780  11.511  0.2888  0.2064 -0.0118
 7473TIP3    H146614   1.626   4.713  11.442  0.5145  0.9432 -0.7287
 7473TIP3    H246615   1.705   4.767  11.559  1.2742  1.1818 -1.3412
 7474TIP3   OH246616   4.663   4.360  12.480  0.2023 -0.5024  0.1320
 7474TIP3    H146617   4.673   4.276  12.525 -0.8864  0.4255  2.2172
 7474TIP3    H246618   4.751   4.397  12.480  0.2831 -0.6589  1.2612
 7475TIP3   OH246619   7.488   7.561  10.787 -0.9972  0.2035 -0.1785
 7475TIP3    H146620   7.480   7.656  10.780 -0.9475  0.4196  2.0864
 7475TIP3    H246621   7.582   7.545  10.777 -0.9947  0.3863 -0.4743
 7476TIP3   OH246622   6.903   4.635  10.657 -0.9047  0.1169 -0.2211
 7476TIP3    H146623   6.817   4.634  10.700 -1.0832 -1.3952 -0.5679
 7476TIP3    H246624   6.882   4.628  10.564 -0.4933  2.7017 -0.5915
 7477TIP3   OH246625   4.219   4.992  10.702  0.3469 -0.0667 -0.3841
 7477TIP3    H146626   4.200   4.901  10.725  1.0803 -0.0570  0.3246
 7477TIP3    H246627   4.314   4.999  10.711  0.2078  1.0010  0.4820
 7478TIP3   OH246628   1.462   1.793  12.984 -0.3147 -0.6280 -0.5434
 7478TIP3    H146629   1.505   1.850  13.048 -0.7638 -1.0635  0.1706
 7478TIP3    H246630   1.503   1.707  12.996 -2.0578 -1.3432  0.9413
 7479TIP3   OH246631   2.738   0.553  16.768  0.4028  0.1803 -0.3141
 7479TIP3    H146632   2.770   0.637  16.801  0.4114  0.3364 -0.7193
 7479TIP3    H246633   2.648   0.571  16.741  0.3525  0.0205 -0.2508
 7480TIP3   OH246634   5.399   3.408  11.897 -0.3743  0.8841 -0.7410
 7480TIP3    H146635   5.363   3.446  11.977  0.7892  0.9899 -0.2533
 7480TIP3    H246636   5.354   3.453  11.826 -1.3842  0.8264 -0.1599
 7481TIP3   OH246637   2.384   7.261  10.849 -0.7178 -0.0473  0.1998
 7481TIP3    H146638   2.416   7.281  10.761 -1.5511  1.0520  0.1175
 7481TIP3    H246639   2.435   7.318  10.907  0.8298 -1.7668  0.6356
 7482TIP3   OH246640   1.335   0.408  12.691  0.0177  0.0308 -0.4911
 7482TIP3    H146641   1.345   0.375  12.780 -1.0537 -0.8501 -0.6701
 7482TIP3    H246642   1.357   0.333  12.635  2.5926  1.1038 -1.0516
 7483TIP3   OH246643   4.662   2.850  10.631  0.0572 -0.1164  0.3440
 7483TIP3    H146644   4.659   2.933  10.678  0.5162 -0.6104  1.2762
 7483TIP3    H246645   4.755   2.834  10.615 -0.1166  0.2077 -1.0463
 7484TIP3   OH246646   4.543   1.266  10.954 -0.1276  0.1485 -0.3741
 7484TIP3    H146647   4.518   1.202  11.021  1.2747  0.6029  0.6358
 7484TIP3    H246648   4.525   1.223  10.871 -0.9263 -0.8453  0.2976
 7485TIP3   OH246649   3.675   1.342  11.563 -0.3180  0.1000 -0.0192
 7485TIP3    H146650   3.615   1.272  11.537  1.0978 -0.9915 -0.4639
 7485TIP3    H246651   3.745   1.298  11.610  0.6459  1.2072 -0.3511
 7486TIP3   OH246652   0.838   7.436  11.248 -0.2362  0.2494  0.5324
 7486TIP3    H146653   0.771   7.369  11.253  0.4915 -0.5541 -0.1344
 7486TIP3    H246654   0.915   7.396  11.289 -0.2027  1.2300  1.4842
 7487TIP3   OH246655   5.474   6.422  11.585 -0.2998  0.0748  0.3971
 7487TIP3    H146656   5.505   6.495  11.639 -0.7508 -0.6521  1.6738
 7487TIP3    H246657   5.383   6.444  11.566 -0.0372  0.5042 -0.3805
 7488TIP3   OH246658   6.093   6.284  11.416  0.2428 -0.3395 -0.5343
 7488TIP3    H146659   6.161   6.328  11.365  0.5817  0.3720  0.5014
 7488TIP3    H246660   6.013   6.300  11.367  0.4396  1.0153 -0.4390
 7489TIP3   OH246661   7.419   2.165  11.400 -0.0841  0.2348 -0.0415
 7489TIP3    H146662   7.428   2.184  11.493  0.1121  2.5009 -0.4757
 7489TIP3    H246663   7.487   2.100  11.383 -0.1098 -0.2021  1.3732
 7490TIP3   OH246664   2.207   3.687  11.828 -0.5142  0.4436 -0.7575
 7490TIP3    H146665   2.296   3.655  11.846 -0.9932 -0.2249  0.5736
 7490TIP3    H246666   2.174   3.630  11.759 -1.0387 -1.4733  0.9782
 7491TIP3   OH246667   2.504   5.362  11.337  0.3865 -0.3537 -0.3329
 7491TIP3    H146668   2.501   5.268  11.351 -2.4256 -0.4389 -0.9372
 7491TIP3    H246669   2.521   5.371  11.243 -0.9496 -0.3477 -0.5958
 7492TIP3   OH246670   2.193   1.411  11.976 -0.2400  0.4020  0.1540
 7492TIP3    H146671   2.257   1.343  11.954 -1.1903 -0.1497 -1.0765
 7492TIP3    H246672   2.237   1.493  11.955  0.8001  0.1788  1.3327
 7493TIP3   OH246673   5.329   2.236  10.869  0.0227 -0.3322 -0.5400
 7493TIP3    H146674   5.249   2.219  10.820 -0.1871 -1.1150  0.0510
 7493TIP3    H246675   5.373   2.151  10.874  1.0584  0.1371 -1.1156
 7494TIP3   OH246676   5.698   4.422  11.091 -0.0855  0.1943 -0.1565
 7494TIP3    H146677   5.705   4.339  11.044 -1.6582  0.6267 -1.2389
 7494TIP3    H246678   5.743   4.486  11.036 -0.7310  0.4419 -0.4101
 7495TIP3   OH246679   5.078   4.660  11.628 -0.4213 -0.2110  0.3943
 7495TIP3    H146680   5.038   4.737  11.667 -0.6929 -0.6968  1.0947
 7495TIP3    H246681   5.005   4.611  11.591 -0.3771 -0.6705  0.9114
 7496TIP3   OH246682   0.199   1.961  12.471  0.3221  0.1329  0.1442
 7496TIP3    H146683   0.290   1.930  12.467 -0.1282 -1.2412  0.2277
 7496TIP3    H246684   0.183   1.975  12.564 -0.2187 -1.7605  0.3729
 7497TIP3   OH246685   0.244   0.772  10.774 -0.1107  0.1007 -0.3456
 7497TIP3    H146686   0.281   0.706  10.833 -2.3937 -2.6289 -1.6495
 7497TIP3    H246687   0.310   0.784  10.707  1.9424  2.2038  1.8898
 7498TIP3   OH246688   1.086   5.354  11.997 -0.1905 -0.0928 -0.4410
 7498TIP3    H146689   1.158   5.379  11.938 -0.3800  1.5807 -0.0098
 7498TIP3    H246690   1.014   5.331  11.938  0.0776  0.1445 -0.8705
 7499TIP3   OH246691   5.294   6.591  12.669  0.0408  0.5841  0.3118
 7499TIP3    H146692   5.275   6.597  12.576  2.4574 -2.8268 -0.6134
 7499TIP3    H246693   5.265   6.503  12.694  1.8163  0.4158  2.0744
 7500TIP3   OH246694   5.088   3.004  10.893 -0.3860  0.6356  0.6220
 7500TIP3    H146695   5.150   2.931  10.902 -1.8521 -0.6347  0.7747
 7500TIP3    H246696   5.005   2.969  10.926 -1.0530  2.5072  1.0485
 7501TIP3   OH246697   3.256   7.644  12.246 -0.2084  0.1341 -0.3844
 7501TIP3    H146698   3.305   7.713  12.290 -0.2702  0.2700 -0.5292
 7501TIP3    H246699   3.261   7.666  12.153  1.5327 -1.1779 -0.6517
 7502TIP3   OH246700   3.258   7.457  10.662  0.4015 -0.1538 -0.2138
 7502TIP3    H146701   3.228   7.414  10.742 -0.2746  0.8039  0.0728
 7502TIP3    H246702   3.209   7.539  10.659 -0.3807 -0.6220 -2.1601
 7503TIP3   OH246703   5.069   5.263  11.442 -0.2403 -0.0248  0.0031
 7503TIP3    H146704   5.018   5.280  11.521 -0.5340 -0.1319 -0.1604
 7503TIP3    H246705   5.160   5.280  11.468 -0.0124 -2.3529  1.0662
 7504TIP3   OH246706   1.072   1.788  10.895  0.1916  0.3255 -0.3816
 7504TIP3    H146707   0.983   1.779  10.928  0.5925 -1.7659  0.2827
 7504TIP3    H246708   1.122   1.719  10.939  1.9213  0.7977 -1.4742
 7505TIP3   OH246709   4.171   7.330  10.678 -0.3120 -0.0299 -0.0181
 7505TIP3    H146710   4.236   7.400  10.678 -1.7830  1.4457  1.5863
 7505TIP3    H246711   4.221   7.251  10.696  1.2084  0.8222 -0.3088
 7506TIP3   OH246712   7.295   6.309  10.741  0.1335  0.0156 -0.4220
 7506TIP3    H146713   7.269   6.221  10.712  1.6279 -0.6841  0.2541
 7506TIP3    H246714   7.260   6.317  10.829  3.8573 -1.8651  1.4560
 7507TIP3   OH246715   1.754   0.260  13.441 -0.0099 -0.3670  0.3685
 7507TIP3    H146716   1.679   0.203  13.429 -2.4835  3.0075 -1.6980
 7507TIP3    H246717   1.725   0.325  13.505 -0.2869  2.8978 -2.7771
 7508TIP3   OH246718   3.918   1.616  11.515  0.0603  0.4788  0.2299
 7508TIP3    H146719   3.867   1.696  11.509  1.8262  1.7005  0.6574
 7508TIP3    H246720   3.890   1.575  11.597 -1.3545  0.2680 -0.3390
 7509TIP3   OH246721   3.417   1.083  12.006 -0.2590 -0.0674 -0.3479
 7509TIP3    H146722   3.368   1.036  12.074 -1.7203 -0.5065 -1.6457
 7509TIP3    H246723   3.448   1.162  12.049  0.6695 -1.3061  1.3897
 7510TIP3   OH246724   1.452   3.043  12.567 -0.7329  0.1937 -0.1281
 7510TIP3    H146725   1.444   3.083  12.653 -2.1971  0.0172 -0.1487
 7510TIP3    H246726   1.361   3.025  12.540 -0.2192 -2.0593 -0.6176
 7511TIP3   OH246727   4.577   0.003  10.849  0.5130 -0.0953 -0.3269
 7511TIP3    H146728   4.673   0.010  10.848  0.5050  0.2191  0.4317
 7511TIP3    H246729   4.551   0.045  10.931 -0.3748  1.0920 -1.1813
 7512TIP3   OH246730   4.861   6.412  13.105  0.1821  0.4626 -0.3272
 7512TIP3    H146731   4.778   6.371  13.078  1.3632 -1.6489 -0.9593
 7512TIP3    H246732   4.923   6.388  13.036  1.6625  0.7891  0.8462
 7513TIP3   OH246733   4.813   3.162  11.062  0.4132  0.0378  0.0991
 7513TIP3    H146734   4.774   3.109  11.132  0.5515 -2.4573 -1.5763
 7513TIP3    H246735   4.739   3.210  11.025 -0.0263 -0.1966  0.6524
 7514TIP3   OH246736   6.245   1.327  11.013 -0.2034 -0.0495  0.3915
 7514TIP3    H146737   6.245   1.418  10.983 -0.5338  0.1253  0.8997
 7514TIP3    H246738   6.258   1.276  10.934 -2.6983  0.3177 -0.3741
 7515TIP3   OH246739   4.567   2.669  10.821  0.0256  0.0310  0.1472
 7515TIP3    H146740   4.593   2.726  10.749  0.2745 -0.5667 -0.2365
 7515TIP3    H246741   4.641   2.609  10.833 -0.0412  0.0763  0.8494
 7516TIP3   OH246742   1.887   6.790  13.161  0.1147  0.1154 -0.3828
 7516TIP3    H146743   1.909   6.865  13.106  0.0734 -0.1917 -0.8236
 7516TIP3    H246744   1.873   6.718  13.099  0.8974 -0.4476  0.0746
 7517TIP3   OH246745   6.578   1.888  11.638  0.1149 -0.0079  0.3186
 7517TIP3    H146746   6.608   1.968  11.595 -0.7703  0.0134 -0.2978
 7517TIP3    H246747   6.563   1.826  11.567  0.7108 -0.7101  0.7853
 7518TIP3   OH246748   4.244   5.227  12.848 -0.3054  0.0589  0.4674
 7518TIP3    H146749   4.331   5.267  12.854  0.3556 -1.4003  0.9241
 7518TIP3    H246750   4.256   5.152  12.790 -1.4088  0.1718  0.0686
 7519TIP3   OH246751   1.255   7.220  12.124  0.0060 -0.3783  0.2490
 7519TIP3    H146752   1.324   7.285  12.108 -1.5042  1.3308  0.4055
 7519TIP3    H246753   1.300   7.149  12.170  2.0945 -0.3091 -1.5448
 7520TIP3   OH246754   6.136   4.657  11.863 -0.2793  0.6113  0.5327
 7520TIP3    H146755   6.178   4.723  11.807  0.3932 -0.5094 -0.3570
 7520TIP3    H246756   6.043   4.661  11.839  0.2153 -1.0681 -2.1155
 7521TIP3   OH246757   2.380   6.911  11.045  0.2504  0.2868 -0.3642
 7521TIP3    H146758   2.353   6.825  11.014  0.2003  0.4360 -0.7422
 7521TIP3    H246759   2.475   6.910  11.037  0.2324  0.3533 -0.6066
 7522TIP3   OH246760   6.023   0.540  12.793  0.3800  0.6788 -0.1525
 7522TIP3    H146761   5.935   0.577  12.785 -0.9128 -2.0160  0.5548
 7522TIP3    H246762   6.022   0.494  12.877  2.2155 -0.0524 -0.4958
 7523TIP3   OH246763   7.461   3.374  12.263 -0.4104  0.5053  0.6435
 7523TIP3    H146764   7.543   3.366  12.214  0.1667  0.4916  1.5759
 7523TIP3    H246765   7.486   3.422  12.342 -1.1493 -0.1478  1.2897
 7524TIP3   OH246766   0.803   5.168  13.315  0.0674 -0.1184 -0.0686
 7524TIP3    H146767   0.804   5.074  13.301  0.8613 -0.0541 -0.4801
 7524TIP3    H246768   0.872   5.183  13.380 -1.1037  0.0139  1.2063
 7525TIP3   OH246769   2.855   1.489  10.844  0.7305  0.2621 -0.1603
 7525TIP3    H146770   2.796   1.558  10.813  0.0920 -0.7079 -1.1688
 7525TIP3    H246771   2.828   1.473  10.934 -1.1966 -0.7857 -0.8665
 7526TIP3   OH246772   3.237   3.245  13.364 -0.0987 -0.4580  0.5923
 7526TIP3    H146773   3.273   3.161  13.336 -2.3520 -2.2149  2.5197
 7526TIP3    H246774   3.142   3.235  13.355 -0.4228  2.4720 -0.4904
 7527TIP3   OH246775   0.079   6.771  11.112  0.0990 -0.1293  0.0715
 7527TIP3    H146776   0.085   6.853  11.063  2.2200 -0.4655 -0.3071
 7527TIP3    H246777   0.095   6.703  11.048 -1.6527 -0.8977  0.3846
 7528TIP3   OH246778   5.650   0.797  12.340 -0.4869 -0.5048 -0.1238
 7528TIP3    H146779   5.574   0.779  12.284 -1.5912  1.7893  0.5230
 7528TIP3    H246780   5.623   0.768  12.427  0.2233 -1.6098 -0.2467
 7529TIP3   OH246781   7.159   5.068  10.404 -0.5001 -0.0489 -0.1829
 7529TIP3    H146782   7.222   4.996  10.405 -1.1011 -0.5928  0.2604
 7529TIP3    H246783   7.125   5.071  10.494 -2.9342 -1.4600 -0.9618
 7530TIP3   OH246784   1.510   0.152  13.426 -0.7294 -0.0671 -0.2882
 7530TIP3    H146785   1.489   0.064  13.395  0.1834 -0.4886  0.2511
 7530TIP3    H246786   1.425   0.189  13.451 -1.0179 -1.1701  0.4545
 7531TIP3   OH246787   1.111   2.341  10.632 -0.2529  0.2208  0.0327
 7531TIP3    H146788   1.174   2.276  10.598 -1.0244 -0.6164  0.1705
 7531TIP3    H246789   1.153   2.425  10.615  0.6159 -0.2934 -0.4821
 7532TIP3   OH246790   4.828   6.239  10.963 -0.2133  0.2804 -0.5290
 7532TIP3    H146791   4.924   6.237  10.967 -0.1662 -0.6026 -1.6040
 7532TIP3    H246792   4.808   6.222  10.871 -1.3726  3.3135 -0.9575
 7533TIP3   OH246793   3.897   7.227  10.702  0.4973  0.5583 -0.7033
 7533TIP3    H146794   3.978   7.277  10.689  0.2690  1.0919 -0.1126
 7533TIP3    H246795   3.901   7.198  10.793  1.0197 -1.2334 -1.2461
 7534TIP3   OH246796   5.975   5.069  10.701 -0.5161 -0.6610  0.1434
 7534TIP3    H146797   6.031   5.147  10.699  0.1262 -1.1291 -0.8769
 7534TIP3    H246798   5.887   5.103  10.684 -0.8063  0.2325  2.9183
 7535TIP3   OH246799   5.850   2.433  11.562 -0.2356  0.1888 -0.3630
 7535TIP3    H146800   5.905   2.360  11.535 -0.3895 -0.5099  1.1429
 7535TIP3    H246801   5.909   2.508  11.565 -0.2207  0.3461 -2.6473
 7536TIP3   OH246802   3.686   3.976  11.841 -0.7546 -0.2053 -0.4486
 7536TIP3    H146803   3.648   4.046  11.894  0.8753  0.3234  0.1141
 7536TIP3    H246804   3.691   3.901  11.901 -1.2175 -0.3724 -0.6210
 7537TIP3   OH246805   7.271   0.334  11.774 -0.4284  0.2272 -1.0839
 7537TIP3    H146806   7.328   0.352  11.850  0.5640 -1.4124 -1.4021
 7537TIP3    H246807   7.211   0.266  11.804 -0.0413 -0.4187 -1.7430
 7538TIP3   OH246808   3.288   4.356  12.754 -0.2768  0.1466  0.6187
 7538TIP3    H146809   3.284   4.436  12.806 -1.8770 -0.3826  1.3593
 7538TIP3    H246810   3.325   4.290  12.814 -0.8336 -0.1306  0.6675
 7539TIP3   OH246811   2.321   3.047  13.150 -0.5077 -0.6135  0.1779
 7539TIP3    H146812   2.308   2.991  13.073 -1.5738  1.3559 -1.1618
 7539TIP3    H246813   2.247   3.107  13.149  1.4912  2.0481  0.4064
 7540TIP3   OH246814   6.650   0.843  11.625  0.0877  0.3383 -0.8748
 7540TIP3    H146815   6.652   0.747  11.626 -0.2653  0.3259 -0.9058
 7540TIP3    H246816   6.616   0.867  11.711  2.3103  0.5273  0.0170
 7541TIP3   OH246817   4.537   2.640  11.518 -0.1293  0.4460  0.4172
 7541TIP3    H146818   4.520   2.627  11.611 -1.0976  0.2076  0.2239
 7541TIP3    H246819   4.583   2.561  11.490  0.3611  0.6171  0.7390
 7542TIP3   OH246820   1.756   7.302  12.007  0.4054  0.2384  0.2696
 7542TIP3    H146821   1.805   7.373  12.049  1.0535 -0.1263  0.1418
 7542TIP3    H246822   1.666   7.313  12.038  0.5108  1.0923  0.2794
 7543TIP3   OH246823   1.391   2.959  12.142 -0.3264  0.0845  0.1831
 7543TIP3    H146824   1.384   3.042  12.096  0.7330 -0.5234 -1.1761
 7543TIP3    H246825   1.312   2.911  12.118  0.0878 -0.1223 -0.8675
 7544TIP3   OH246826   0.976   5.139  12.611  0.3289  0.3242  0.5631
 7544TIP3    H146827   0.948   5.096  12.530  0.8795  1.1306 -0.0758
 7544TIP3    H246828   0.909   5.206  12.627  0.5509  0.5789  0.4286
 7545TIP3   OH246829   1.946   2.425  10.820 -0.5236 -0.4626  0.1247
 7545TIP3    H146830   1.913   2.436  10.909 -1.0419 -2.0031  0.1438
 7545TIP3    H246831   2.040   2.411  10.831 -0.5650 -0.5153  0.4186
 7546TIP3   OH246832   2.128   5.629  12.253  0.6640  0.4317 -0.2596
 7546TIP3    H146833   2.197   5.619  12.187  2.0572 -1.8848  1.4272
 7546TIP3    H246834   2.111   5.724  12.255  1.8845  0.7736 -2.5758
 7547TIP3   OH246835   3.112   4.877  10.946  0.4227  0.3846 -0.1209
 7547TIP3    H146836   3.191   4.926  10.968  0.5216  0.1557  0.0397
 7547TIP3    H246837   3.049   4.899  11.014  0.6232 -0.0760  0.2175
 7548TIP3   OH246838   4.048   2.301  11.914 -0.1912  0.6875 -0.2195
 7548TIP3    H146839   4.010   2.213  11.917  0.1919  0.3694 -2.5664
 7548TIP3    H246840   4.141   2.288  11.932 -0.2207  0.6797 -0.0757
 7549TIP3   OH246841   4.413   4.161  11.897 -0.1833 -0.4255  0.3215
 7549TIP3    H146842   4.435   4.150  11.990 -0.4452 -1.4482  0.2670
 7549TIP3    H246843   4.351   4.091  11.878 -1.4043  0.7563 -0.2248
 7550TIP3   OH246844   7.668   6.517  12.162  0.0146 -0.5805  0.0170
 7550TIP3    H146845   7.716   6.502  12.243 -0.3063 -1.9152 -0.0096
 7550TIP3    H246846   7.579   6.484  12.180 -0.3880  0.1806 -0.5088
 7551TIP3   OH246847   6.988   2.343  10.984 -0.1206 -0.5127  0.3950
 7551TIP3    H146848   6.925   2.288  10.937 -0.1350  0.3182 -0.5950
 7551TIP3    H246849   7.074   2.314  10.953 -0.1635  1.5562 -2.0508
 7552TIP3   OH246850   7.447   3.580  10.848  0.0960  0.1969  0.3728
 7552TIP3    H146851   7.417   3.655  10.797  0.4368 -0.4916 -0.8791
 7552TIP3    H246852   7.382   3.512  10.831  1.0779 -0.5650 -0.5141
 7553TIP3   OH246853   6.899   4.077  12.189 -0.9063  0.0979  0.2367
 7553TIP3    H146854   6.874   4.018  12.260 -0.1686  0.7149  1.0305
 7553TIP3    H246855   6.860   4.039  12.111  0.8353 -2.3272  0.4395
 7554TIP3   OH246856   5.976   1.307  12.893 -0.5424  0.4894 -0.0377
 7554TIP3    H146857   5.985   1.375  12.960 -0.2916  1.5229 -1.0831
 7554TIP3    H246858   6.053   1.251  12.905 -1.3406 -0.3232  1.5731
 7555TIP3   OH246859   2.642   3.219  11.799 -0.3317 -0.1826  0.3584
 7555TIP3    H146860   2.653   3.170  11.718 -1.0206  0.2224  0.0128
 7555TIP3    H246861   2.730   3.224  11.836 -0.4911 -3.6111  1.5690
 7556TIP3   OH246862   2.270   1.284  10.879 -0.0794 -0.3029 -0.4924
 7556TIP3    H146863   2.220   1.360  10.909 -0.4162 -1.2828  1.6791
 7556TIP3    H246864   2.345   1.280  10.938 -0.3789 -1.9577 -0.1737
 7557TIP3   OH246865   6.097   5.731  10.633  0.2082  0.2121  0.7271
 7557TIP3    H146866   6.051   5.811  10.658  2.0311  0.9389  2.0207
 7557TIP3    H246867   6.186   5.760  10.613  0.4021 -1.2454 -0.7672
 7558TIP3   OH246868   3.176   6.508  10.841 -0.0726  0.4337 -0.0439
 7558TIP3    H146869   3.085   6.518  10.815 -0.2712 -0.9913  0.0446
 7558TIP3    H246870   3.222   6.483  10.761 -0.1749 -1.0416  0.3222
 7559TIP3   OH246871   0.257   5.988  12.452 -0.0103  0.7047 -0.1877
 7559TIP3    H146872   0.288   5.971  12.363 -2.5232 -0.0577 -1.0118
 7559TIP3    H246873   0.305   5.927  12.507  0.0960 -0.3046 -1.3517
 7560TIP3   OH246874   4.075   3.634  13.103  0.6111 -0.7585  0.8232
 7560TIP3    H146875   4.085   3.662  13.194 -0.7871 -0.6542  0.9657
 7560TIP3    H246876   4.078   3.716  13.053  0.5722 -0.7361  0.8574
 7561TIP3   OH246877   3.206   0.727  11.657  0.6170 -0.0935  0.1297
 7561TIP3    H146878   3.283   0.674  11.680  1.5355  1.4647  0.8243
 7561TIP3    H246879   3.242   0.803  11.612 -0.5459  0.5328  0.2150
 7562TIP3   OH246880   7.566   3.207  11.403  0.2644 -0.1364  0.3689
 7562TIP3    H146881   7.531   3.233  11.318  0.3476  1.6088  0.8311
 7562TIP3    H246882   7.507   3.137  11.432 -0.0218 -0.4601 -0.9165
 7563TIP3   OH246883   7.591   0.663  11.402  0.0600 -0.3708 -0.0094
 7563TIP3    H146884   7.633   0.749  11.399 -0.4822  0.0095  1.9492
 7563TIP3    H246885   7.497   0.683  11.403 -0.0828 -1.0261 -0.2611
 7564TIP3   OH246886   7.564   3.766  12.663  0.3229 -0.1779 -0.3792
 7564TIP3    H146887   7.514   3.741  12.740 -1.0847 -0.7154 -1.4089
 7564TIP3    H246888   7.502   3.757  12.590  1.4032  0.9400 -1.4997
 7565TIP3   OH246889   4.334   0.163  10.890 -0.1399  0.9770 -0.2691
 7565TIP3    H146890   4.242   0.185  10.878 -0.2021  0.8719  0.0111
 7565TIP3    H246891   4.377   0.194  10.810 -0.2079  2.2174  0.1508
 7566TIP3   OH246892   1.817   0.782  11.770  0.1333 -0.6350 -0.2665
 7566TIP3    H146893   1.853   0.695  11.754 -0.9122 -0.6208 -3.3129
 7566TIP3    H246894   1.829   0.829  11.688 -2.1623  1.0259  0.2442
 7567TIP3   OH246895   0.892   2.666  11.613 -0.4983  0.2464 -0.0874
 7567TIP3    H146896   0.813   2.720  11.614 -0.3342  0.5803 -1.9473
 7567TIP3    H246897   0.903   2.641  11.521  2.8637  2.2026 -0.3786
 7568TIP3   OH246898   1.109   0.066  11.790  0.0088  1.0058 -0.0491
 7568TIP3    H146899   1.034   0.026  11.745  0.1310  0.6573  0.0473
 7568TIP3    H246900   1.076   0.149  11.823 -1.0870 -0.1693  2.0827
 7569TIP3   OH246901   2.007   2.950  11.887 -0.5156 -0.0541  0.4039
 7569TIP3    H146902   1.933   2.897  11.915 -0.4640 -0.0785  0.4929
 7569TIP3    H246903   2.056   2.968  11.967 -0.1988 -0.3861  0.2879
 7570TIP3   OH246904   1.335   1.763  10.768  0.3303 -0.4256  0.4830
 7570TIP3    H146905   1.257   1.790  10.817 -0.1289  1.2999 -1.0919
 7570TIP3    H246906   1.388   1.716  10.832 -2.0816 -1.8675  1.5422
 7571TIP3   OH246907   1.902   2.933  12.714 -0.0072 -0.1965  0.5656
 7571TIP3    H146908   1.905   2.879  12.635 -0.3702  1.8783 -0.9291
 7571TIP3    H246909   1.828   2.992  12.701  0.8376  1.2111  1.7489
 7572TIP3   OH246910   0.385   0.189  13.391  0.3101  0.2115  0.3540
 7572TIP3    H146911   0.346   0.277  13.396  0.5096  0.2544  1.3997
 7572TIP3    H246912   0.459   0.200  13.332 -0.3321  0.4836 -0.4168
 7573TIP3   OH246913   1.118   6.636  10.297  0.3745 -0.6696 -0.1186
 7573TIP3    H146914   1.054   6.703  10.320 -0.3428 -1.0950 -0.7831
 7573TIP3    H246915   1.125   6.642  10.201  0.8424 -1.0556 -0.1094
 7574TIP3   OH246916   4.985   3.982  10.604  0.6652  0.1378  0.1596
 7574TIP3    H146917   4.992   4.040  10.528  1.0800  1.0873  0.8971
 7574TIP3    H246918   5.074   3.978  10.640  0.8493 -1.7413 -0.4073
 7575TIP3   OH246919   6.539   7.037  11.498  0.4025  0.3921  0.2155
 7575TIP3    H146920   6.462   7.083  11.465 -0.0233 -1.0656 -0.8728
 7575TIP3    H246921   6.595   7.107  11.531 -1.3551  1.4909  1.0240
 7576TIP3   OH246922   1.949   7.583  13.068  0.2173 -0.2608 -0.4800
 7576TIP3    H146923   1.944   7.592  12.973 -0.7033 -0.4425 -0.4547
 7576TIP3    H246924   2.007   7.508  13.082 -1.1776 -1.4702 -0.9626
 7577TIP3   OH246925   0.268   5.111  12.800  0.0450 -0.0225 -0.2179
 7577TIP3    H146926   0.352   5.116  12.845  0.3733  0.1369 -0.8356
 7577TIP3    H246927   0.209   5.072  12.864  0.1487  1.4721  0.8389
 7578TIP3   OH246928   7.176   6.247  11.780  0.1583 -0.0593 -0.1972
 7578TIP3    H146929   7.100   6.220  11.831  0.2384  0.3180  0.1243
 7578TIP3    H246930   7.184   6.180  11.712  0.4424 -0.9178  0.6725
 7579TIP3   OH246931   4.189   2.632  12.801 -0.4768 -0.5512  0.3819
 7579TIP3    H146932   4.256   2.643  12.869  0.1374 -0.6424 -0.1936
 7579TIP3    H246933   4.239   2.629  12.719 -1.2520  0.1199 -0.1197
 7580TIP3   OH246934   3.990   4.625  11.035 -0.2945 -0.2630 -0.0842
 7580TIP3    H146935   3.917   4.677  11.001  0.0633  0.6259  0.4602
 7580TIP3    H246936   4.049   4.690  11.072 -0.4844 -1.1560  1.8758
 7581TIP3   OH246937   1.092   4.143  12.083 -0.1279  0.2258  0.0702
 7581TIP3    H146938   1.162   4.079  12.072 -1.6286 -1.5877  0.6564
 7581TIP3    H246939   1.082   4.151  12.178 -0.7733  0.4090 -0.0120
 7582TIP3   OH246940   6.370   2.915  12.611 -0.0657 -0.7850  0.0187
 7582TIP3    H146941   6.372   3.001  12.653 -1.9397 -0.4160 -0.5832
 7582TIP3    H246942   6.368   2.853  12.684 -0.6858 -0.2399  0.4815
 7583TIP3   OH246943   4.889   5.290  10.920 -0.3948 -0.4460 -0.3069
 7583TIP3    H146944   4.861   5.208  10.962  1.3823 -1.4049 -0.8848
 7583TIP3    H246945   4.832   5.299  10.844  0.4645 -2.0908 -1.1983
 7584TIP3   OH246946   0.758   4.352  12.796 -0.5204 -0.3003  0.1979
 7584TIP3    H146947   0.684   4.292  12.810 -0.7679  0.2991  1.6144
 7584TIP3    H246948   0.836   4.299  12.815 -0.7664 -0.0508  2.0947
 7585TIP3   OH246949   0.623   6.269  12.044  0.2716 -0.0330 -0.3546
 7585TIP3    H146950   0.580   6.354  12.060  2.4319  1.1512 -0.4976
 7585TIP3    H246951   0.550   6.209  12.027 -1.3530  1.7279 -0.0533
 7586TIP3   OH246952   1.714   4.043  10.927  0.2236  0.1010 -0.0348
 7586TIP3    H146953   1.797   3.999  10.908 -0.5856 -0.6718 -2.0536
 7586TIP3    H246954   1.649   3.973  10.925 -0.6658  0.9146  0.0626
 7587TIP3   OH246955   3.979   0.962  12.785 -0.2601  0.0876 -0.1012
 7587TIP3    H146956   3.954   0.918  12.704  0.7474 -0.8336  0.0679
 7587TIP3    H246957   4.042   0.903  12.826  0.1246  1.0850  0.7850
 7588TIP3   OH246958   3.964   4.184  11.350  0.0856 -0.1793 -0.2903
 7588TIP3    H146959   3.988   4.134  11.428 -0.5682  0.7295  0.5197
 7588TIP3    H246960   3.974   4.276  11.377 -0.9699  0.1596 -0.9910
 7589TIP3   OH246961   3.575   5.282  11.439  0.3933  0.5110 -0.1147
 7589TIP3    H146962   3.669   5.271  11.453  0.2195 -1.6852 -0.3782
 7589TIP3    H246963   3.569   5.337  11.360  1.5429 -1.4994 -1.7101
 7590TIP3   OH246964   4.682   1.723  10.932 -0.4299  0.0228 -0.9937
 7590TIP3    H146965   4.590   1.721  10.904 -0.7800 -1.1369  0.1441
 7590TIP3    H246966   4.688   1.657  11.000  1.0325  0.7925 -0.3210
 7591TIP3   OH246967   5.598   0.718  13.109  0.2882 -0.0047  0.4592
 7591TIP3    H146968   5.624   0.790  13.051 -0.2169  0.4722  0.8206
 7591TIP3    H246969   5.638   0.641  13.069  1.0229  0.5000  0.1864
 7592TIP3   OH246970   7.594   7.203  11.671  0.2524  0.6825 -0.0233
 7592TIP3    H146971   7.537   7.128  11.654 -2.4866  2.9213 -1.6923
 7592TIP3    H246972   7.557   7.244  11.748  0.3013  1.5248 -0.4357
 7593TIP3   OH246973   1.331   5.412  10.282  0.3457  0.0477  0.2190
 7593TIP3    H146974   1.266   5.386  10.348  0.3378 -0.1801  0.1215
 7593TIP3    H246975   1.396   5.461  10.331 -0.6265  1.5156  0.0944
 7594TIP3   OH246976   6.027   1.518  13.067 -0.3116 -0.1085 -0.3189
 7594TIP3    H146977   6.092   1.477  13.124 -0.8657 -0.9127 -0.2458
 7594TIP3    H246978   6.079   1.565  13.001  0.3306  0.9276  0.8842
 7595TIP3   OH246979   0.954   2.956  12.912  0.6668  0.2904 -0.0352
 7595TIP3    H146980   0.942   2.898  12.987  2.8872  0.7018  0.6908
 7595TIP3    H246981   0.943   3.044  12.948  0.2944  0.4519 -0.5236
 7596TIP3   OH246982   0.593   4.496  11.322  0.0407 -0.5203  0.0325
 7596TIP3    H146983   0.528   4.537  11.266 -0.4382  0.6573  1.3923
 7596TIP3    H246984   0.676   4.537  11.297 -0.1195 -0.2447 -0.0492
 7597TIP3   OH246985   4.710   6.554  10.881  0.7140  0.0501  0.1410
 7597TIP3    H146986   4.647   6.596  10.822 -0.9217 -2.2582  0.1197
 7597TIP3    H246987   4.787   6.540  10.827 -0.7611 -2.0508 -1.5868
 7598TIP3   OH246988   2.786   1.838  10.901 -0.4256  0.0179  0.2256
 7598TIP3    H146989   2.767   1.773  10.834  1.5118 -0.1227 -0.2622
 7598TIP3    H246990   2.808   1.918  10.852  1.1609 -0.1253  0.6424
 7599TIP3   OH246991   6.551   3.304  10.723  0.0451  0.4265  0.6618
 7599TIP3    H146992   6.603   3.252  10.662  0.9049  0.2309  1.5225
 7599TIP3    H246993   6.516   3.241  10.786  0.1886  0.7468  1.0737
 7600TIP3   OH246994   1.299   2.676  13.606  0.1735  0.0693  0.0008
 7600TIP3    H146995   1.271   2.710  13.690  2.9397  1.0309  0.6500
 7600TIP3    H246996   1.295   2.751  13.547 -0.9381 -0.3946 -0.5388
 7601TIP3   OH246997   5.853   2.137  12.084 -0.2825  0.6171 -0.1156
 7601TIP3    H146998   5.941   2.135  12.120  0.7033 -1.5861 -2.3256
 7601TIP3    H246999   5.802   2.076  12.137 -0.2230  1.1596  0.5673
 7602TIP3   OH247000   4.485   5.328  12.832 -0.3256  0.5591  0.7798
 7602TIP3    H147001   4.571   5.298  12.801 -0.5908  0.2859  0.3043
 7602TIP3    H247002   4.500   5.419  12.858 -0.0737  0.7761 -0.0905
 7603TIP3   OH247003   7.240   5.733  11.796 -0.1459 -0.6336 -0.2546
 7603TIP3    H147004   7.248   5.655  11.741  1.6797 -0.6476 -0.0164
 7603TIP3    H247005   7.215   5.699  11.882 -0.4158 -0.8546 -0.4184
 7604TIP3   OH247006   7.207   1.214  13.140  0.2340 -0.7077  0.4379
 7604TIP3    H147007   7.180   1.303  13.163 -2.9973 -1.9160  2.0627
 7604TIP3    H247008   7.141   1.184  13.077 -0.1867 -2.6833  1.7268
 7605TIP3   OH247009   2.331   0.660  11.234  0.2698  0.7022  0.2667
 7605TIP3    H147010   2.252   0.698  11.197  0.2146 -0.5299 -0.9832
 7605TIP3    H247011   2.302   0.577  11.272  0.7970  0.7013  0.6873
 7606TIP3   OH247012   0.666   6.779  10.149  0.2194 -0.6575 -0.1079
 7606TIP3    H147013   0.602   6.779  10.220  1.2978  0.0077  0.8951
 7606TIP3    H247014   0.652   6.862  10.104  0.7501 -0.2505  0.4688
 7607TIP3   OH247015   0.855   1.398  11.946 -0.1252 -0.0584 -0.0273
 7607TIP3    H147016   0.885   1.400  11.855  0.0380 -0.4614  0.0179
 7607TIP3    H247017   0.760   1.398  11.940 -0.1158  0.1186 -0.1937
 7608TIP3   OH247018   7.638   7.153  12.211  0.4850 -0.0045 -0.5458
 7608TIP3    H147019   7.617   7.241  12.182  0.2255 -0.5831 -2.2477
 7608TIP3    H247020   7.628   7.099  12.132 -0.1729 -1.6768  0.6194
 7609TIP3   OH247021   5.573   0.541  12.083 -0.4867 -0.1342  0.0344
 7609TIP3    H147022   5.655   0.494  12.077 -0.8252 -0.6275 -0.9166
 7609TIP3    H247023   5.510   0.477  12.114 -0.5255  0.2396  0.7542
 7610TIP3   OH247024   7.498   6.302  11.378 -0.0692 -0.1574  0.2582
 7610TIP3    H147025   7.582   6.343  11.357 -0.4888 -0.0458 -1.3200
 7610TIP3    H247026   7.455   6.364  11.436 -0.0597  0.9680 -0.8874
 7611TIP3   OH247027   6.483   0.897  12.516  0.7178 -0.1448  0.3325
 7611TIP3    H147028   6.490   0.962  12.586 -1.8835 -0.2620  0.7975
 7611TIP3    H247029   6.401   0.917  12.472  1.1585 -1.5052 -1.2394
 7612TIP3   OH247030   1.026   1.822  13.170 -0.6885  0.0487 -0.3014
 7612TIP3    H147031   1.081   1.841  13.094 -0.6927 -0.2029 -0.3682
 7612TIP3    H247032   1.039   1.729  13.186  1.4203  0.5741  1.6539
 7613TIP3   OH247033   3.403   7.161  10.638 -0.7629  0.0160  0.1201
 7613TIP3    H147034   3.344   7.135  10.709 -0.9102  0.3716  0.1331
 7613TIP3    H247035   3.404   7.257  10.642 -1.7394  0.1207 -1.1126
 7614TIP3   OH247036   0.309   3.060  12.365 -0.2793  0.4741  0.0740
 7614TIP3    H147037   0.295   3.104  12.449  0.9858 -0.7075  0.9420
 7614TIP3    H247038   0.258   3.112  12.303 -1.2642  1.3769  1.5541
 7615TIP3   OH247039   1.898   1.385  12.196 -0.3259 -0.4390 -0.0601
 7615TIP3    H147040   1.993   1.396  12.205 -0.3081  0.0075 -0.7521
 7615TIP3    H247041   1.867   1.370  12.285  0.6575 -2.7503 -0.0490
 7616TIP3   OH247042   2.362   2.865  12.436  0.1209 -0.2686  0.1671
 7616TIP3    H147043   2.302   2.940  12.437  2.1056  1.3928  0.6916
 7616TIP3    H247044   2.327   2.806  12.504 -0.5539  0.9687  0.9437
 7617TIP3   OH247045   5.360   2.640  12.179  0.4011  0.1692  0.0984
 7617TIP3    H147046   5.417   2.627  12.104  1.1593 -1.7198  0.9292
 7617TIP3    H247047   5.315   2.556  12.190  1.5728 -0.2178  2.7038
 7618TIP3   OH247048   3.545   4.008  12.810  0.2523 -0.3381  0.1306
 7618TIP3    H147049   3.519   3.991  12.719 -1.7372 -1.4469  0.8663
 7618TIP3    H247050   3.468   4.047  12.850  0.8866 -0.4798  1.5322
 7619TIP3   OH247051   1.123   2.009  12.161 -0.0811  0.2134 -0.0825
 7619TIP3    H147052   1.084   1.928  12.128 -0.9832 -0.2948  2.0273
 7619TIP3    H247053   1.191   1.979  12.222 -1.8954  0.9012  2.4313
 7620TIP3   OH247054   5.361   7.475  10.661  0.1213  0.2592 -0.2428
 7620TIP3    H147055   5.305   7.508  10.590  0.3987 -0.5299 -0.8355
 7620TIP3    H247056   5.334   7.526  10.738 -1.2242  0.0863 -0.5742
 7621TIP3   OH247057   3.083   1.968  11.064  0.0475 -0.0879  0.3075
 7621TIP3    H147058   3.045   2.054  11.045 -1.4928 -0.7539  0.1921
 7621TIP3    H247059   3.011   1.918  11.102  0.1986 -2.0602 -1.7608
 7622TIP3   OH247060   2.224   1.513  10.439  0.3510 -0.0634  0.3600
 7622TIP3    H147061   2.130   1.515  10.421  0.5051 -1.0180 -0.6939
 7622TIP3    H247062   2.231   1.500  10.533 -0.6526 -2.7890  0.1525
 7623TIP3   OH247063   3.224   5.240  11.098 -0.0361 -0.3037 -0.4495
 7623TIP3    H147064   3.261   5.241  11.187 -2.2630  0.4478  0.5396
 7623TIP3    H247065   3.265   5.315  11.055  0.6568 -0.3446  0.1181
 7624TIP3   OH247066   3.893   3.471  10.938 -0.2332 -0.2906  0.3546
 7624TIP3    H147067   3.934   3.529  10.874  0.4966 -0.1399  0.9320
 7624TIP3    H247068   3.908   3.514  11.022  1.0180 -1.6511  0.8908
 7625TIP3   OH247069   7.408   0.304  11.382  0.3163 -0.3176 -0.0466
 7625TIP3    H147070   7.436   0.353  11.460  1.2317 -0.4098 -0.3110
 7625TIP3    H247071   7.327   0.347  11.355  0.8031  0.7037  0.0639
 7626TIP3   OH247072   3.587   2.828  12.815  0.0649 -0.4769  0.4465
 7626TIP3    H147073   3.532   2.753  12.791  2.6370 -1.1424 -4.7557
 7626TIP3    H247074   3.652   2.793  12.875 -1.1980 -1.3192  1.3518
 7627TIP3   OH247075   0.514   5.089  12.947  0.9184 -0.2121 -0.2923
 7627TIP3    H147076   0.534   5.072  13.039  0.9374  0.0729 -0.2453
 7627TIP3    H247077   0.567   5.024  12.899 -0.7380 -1.8504 -0.0211
 7628TIP3   OH247078   7.626   6.610  11.867  0.0457 -0.0474  0.0139
 7628TIP3    H147079   7.658   6.564  11.789 -1.4532 -1.7161  0.3176
 7628TIP3    H247080   7.674   6.572  11.940  0.2352  0.3119  0.0799
 7629TIP3   OH247081   3.174   6.551  12.065  0.1246 -0.3253  0.1149
 7629TIP3    H147082   3.093   6.546  12.117  0.6788 -0.0876  1.0251
 7629TIP3    H247083   3.237   6.593  12.124  1.5401 -2.4868  0.2262
 7630TIP3   OH247084   2.823   6.430  11.246  0.1607  0.3411 -0.3022
 7630TIP3    H147085   2.897   6.440  11.187  0.1408  0.7754 -0.2557
 7630TIP3    H247086   2.756   6.489  11.211 -0.0582  0.1688 -0.1776
 7631TIP3   OH247087   4.027   6.844  12.041 -0.2168 -0.0015 -0.2795
 7631TIP3    H147088   4.068   6.920  11.998  4.4039 -1.2812  1.2360
 7631TIP3    H247089   4.061   6.847  12.131 -2.4092 -2.2025  0.7155
 7632TIP3   OH247090   2.806   1.090  10.829 -0.0364 -0.1144  0.1549
 7632TIP3    H147091   2.823   1.112  10.921 -0.3792  1.4353 -0.1166
 7632TIP3    H247092   2.844   1.164  10.780 -0.9247 -0.3260 -0.8703
 7633TIP3   OH247093   1.390   3.397  11.720  0.4173  0.4854 -0.3536
 7633TIP3    H147094   1.376   3.304  11.741  0.4942  1.2568  4.0634
 7633TIP3    H247095   1.461   3.424  11.778  1.4940  3.0281 -2.6728
 7634TIP3   OH247096   0.953   2.450  13.120 -0.4095  0.6523 -0.1117
 7634TIP3    H147097   0.887   2.517  13.140 -0.1145  0.8517  0.1962
 7634TIP3    H247098   0.904   2.382  13.074 -0.6970  1.1195 -0.5092
 7635TIP3   OH247099   1.621   1.855  12.201  0.0309 -0.2358  1.1113
 7635TIP3    H147100   1.671   1.777  12.224  0.9106  0.0734  0.3418
 7635TIP3    H247101   1.581   1.833  12.116 -0.3453 -0.1301  1.2615
 7636TIP3   OH247102   0.810   5.897  10.942  0.2885 -0.7002  0.2308
 7636TIP3    H147103   0.772   5.900  11.029  0.9992 -2.0465  0.6111
 7636TIP3    H247104   0.735   5.901  10.882 -0.4418 -2.7831  0.9435
 7637TIP3   OH247105   0.050   2.747  12.693  0.8810 -0.1176 -0.1877
 7637TIP3    H147106  -0.023   2.715  12.745 -0.8774  0.2981 -2.2870
 7637TIP3    H247107   0.125   2.696  12.723 -0.4422 -1.2626  1.3216
 7638TIP3   OH247108   3.252   7.333  11.170 -0.4961 -0.2395 -0.3114
 7638TIP3    H147109   3.229   7.310  11.080 -1.3310  0.1507 -0.2067
 7638TIP3    H247110   3.234   7.254  11.220  0.5156 -0.6410 -0.5694
 7639TIP3   OH247111   5.431   1.800  12.766 -0.6562  0.6451 -0.4843
 7639TIP3    H147112   5.477   1.852  12.700  0.2649 -2.0173 -2.1117
 7639TIP3    H247113   5.340   1.826  12.758 -0.1356  2.5547 -0.6426
 7640TIP3   OH247114   4.778   2.307  11.106  0.6136 -0.0059 -0.4576
 7640TIP3    H147115   4.769   2.219  11.141  0.7781  0.8356  1.9062
 7640TIP3    H247116   4.694   2.325  11.064  0.1095 -0.8368  0.1730
 7641TIP3   OH247117   0.959   1.559  11.213  0.3291  0.0723  0.6960
 7641TIP3    H147118   1.036   1.612  11.236  1.1011 -0.6238 -0.1745
 7641TIP3    H247119   0.991   1.498  11.146 -1.0308 -0.1253  0.1898
 7642TIP3   OH247120   0.473   1.536  11.323  0.3418 -0.5795  0.0266
 7642TIP3    H147121   0.460   1.446  11.295  0.1328 -0.2310 -1.0723
 7642TIP3    H247122   0.553   1.564  11.276  1.5952 -0.8103  1.9312
 7643TIP3   OH247123   7.468   1.932  12.543 -0.5024 -0.1152  0.5920
 7643TIP3    H147124   7.476   1.879  12.464 -2.9567 -0.0803  0.2439
 7643TIP3    H247125   7.440   1.871  12.611 -0.4506  0.2275  0.9309
 7644TIP3   OH247126   5.786   3.440  10.765  0.6976  0.1266 -0.1113
 7644TIP3    H147127   5.858   3.389  10.728  1.2580 -0.1703  1.2956
 7644TIP3    H247128   5.759   3.390  10.842 -1.8008 -0.3612 -1.2057
 7645TIP3   OH247129   7.637   1.486  12.712  0.0203 -0.5189 -0.3305
 7645TIP3    H147130   7.559   1.483  12.767 -0.2885 -2.6130 -0.7989
 7645TIP3    H247131   7.616   1.428  12.638  1.6881 -0.4478 -0.9013
 7646TIP3   OH247132   1.427   1.095  13.461 -0.3849  0.5027 -0.4744
 7646TIP3    H147133   1.332   1.089  13.470 -0.2444 -0.3999  0.5404
 7646TIP3    H247134   1.449   1.180  13.498 -0.7329  0.4281 -0.0835
 7647TIP3   OH247135   3.913   2.013  11.583  0.0100 -0.2440  0.3896
 7647TIP3    H147136   3.947   1.997  11.494 -1.0835 -0.3432 -0.0192
 7647TIP3    H247137   3.849   1.943  11.597 -1.4993  1.1052  0.3647
 7648TIP3   OH247138   6.821   6.992  12.593  0.3066 -0.4162 -0.4663
 7648TIP3    H147139   6.853   7.082  12.596  3.0511 -1.2834 -0.6397
 7648TIP3    H247140   6.796   6.978  12.502  1.6341 -0.3555 -0.8526
 7649TIP3   OH247141   1.416   5.308  11.241 -0.1148 -0.5596 -0.1504
 7649TIP3    H147142   1.415   5.382  11.180 -2.8361 -0.8945 -0.6233
 7649TIP3    H247143   1.405   5.231  11.186 -0.5228 -1.0464  0.6031
 7650TIP3   OH247144   5.359   6.374  11.967  0.2721  0.8439  0.5958
 7650TIP3    H147145   5.327   6.461  11.946  0.4745  0.7396 -0.1803
 7650TIP3    H247146   5.448   6.372  11.930 -1.0793 -1.0259 -3.1506
 7651TIP3   OH247147   6.222   2.253  11.986  0.2150  0.2045 -0.2781
 7651TIP3    H147148   6.195   2.186  11.923 -0.1954  0.3268 -0.2330
 7651TIP3    H247149   6.175   2.332  11.959 -1.6713 -0.2384  1.4288
 7652TIP3   OH247150   2.054   1.655  11.323 -0.4285 -0.6131 -0.1783
 7652TIP3    H147151   1.961   1.673  11.314 -0.8224 -2.8882 -1.3209
 7652TIP3    H247152   2.072   1.670  11.416 -2.0446 -0.6137  0.1678
 7653TIP3   OH247153   3.266   1.602  11.668 -0.0485 -0.7685  0.8501
 7653TIP3    H147154   3.274   1.518  11.623 -1.9945 -1.8044  2.2712
 7653TIP3    H247155   3.204   1.653  11.615  1.3940 -0.0418 -0.1983
 7654TIP3   OH247156   6.721   6.318  12.654 -1.0969 -0.0344  0.0312
 7654TIP3    H147157   6.773   6.395  12.634 -1.9544  0.7580  0.7749
 7654TIP3    H247158   6.784   6.258  12.696 -0.6716  0.7163  0.4959
 7655TIP3   OH247159   0.635   4.806  11.416 -0.3049 -0.4629 -0.1955
 7655TIP3    H147160   0.648   4.894  11.452 -0.7769  0.4226 -2.0747
 7655TIP3    H247161   0.549   4.779  11.450 -0.0151 -0.3518  0.6502
 7656TIP3   OH247162   2.023   6.107  11.333  0.2770 -0.2387  0.0522
 7656TIP3    H147163   2.052   6.016  11.321 -0.1359 -0.5039  1.0452
 7656TIP3    H247164   2.089   6.159  11.286  0.9459 -0.9986  0.1338
 7657TIP3   OH247165   2.462   7.541  11.493  0.1593  0.4674 -0.0914
 7657TIP3    H147166   2.471   7.632  11.519  0.4160  0.3281  0.3180
 7657TIP3    H247167   2.505   7.491  11.563  0.8234  0.0802 -0.7504
 7658TIP3   OH247168   2.370   3.105  11.539 -0.0492  0.1456  0.1590
 7658TIP3    H147169   2.459   3.096  11.572  0.3880  0.3994 -0.9313
 7658TIP3    H247170   2.323   3.029  11.575  0.9008 -0.6473 -0.2447
 7659TIP3   OH247171   4.542   1.471  11.603 -0.3951  0.2382  0.1497
 7659TIP3    H147172   4.521   1.490  11.694 -1.3041  0.6486 -0.1355
 7659TIP3    H247173   4.457   1.456  11.561 -0.0170  0.4819 -0.7223
 7660TIP3   OH247174   5.160   0.793  12.726  0.1342 -0.2144  0.8826
 7660TIP3    H147175   5.231   0.735  12.753  0.1433 -1.3037 -1.3122
 7660TIP3    H247176   5.142   0.845  12.804  1.5238 -1.7336  2.3147
 7661TIP3   OH247177   2.693   4.002  10.525  0.1254  0.3306 -0.2642
 7661TIP3    H147178   2.771   4.034  10.480  0.4802  1.5042  1.1025
 7661TIP3    H247179   2.719   3.918  10.562  0.5847  0.4582 -0.2860
 7662TIP3   OH247180   3.989   0.478  11.279  0.2801  0.0414 -0.6608
 7662TIP3    H147181   3.924   0.440  11.339  1.1604  1.7901  1.5142
 7662TIP3    H247182   3.946   0.556  11.243  1.2238  1.4243  1.0832
 7663TIP3   OH247183   1.130   5.230  10.045 -0.2754  0.1521 -0.2628
 7663TIP3    H147184   1.137   5.234   9.949  1.9072 -2.7482 -0.3687
 7663TIP3    H247185   1.199   5.289  10.076  0.9514 -1.0474 -0.6045
 7664TIP3   OH247186   1.160   4.843  12.131  0.7135  0.8790 -0.3540
 7664TIP3    H147187   1.138   4.874  12.218  1.0085  0.7014 -0.2147
 7664TIP3    H247188   1.210   4.763  12.145 -0.8727 -0.2202 -0.7345
 7665TIP3   OH247189   5.610   1.022  10.723 -0.3990  0.1473 -0.0155
 7665TIP3    H147190   5.630   0.930  10.703  0.5132  0.0275  1.3306
 7665TIP3    H247191   5.689   1.055  10.766 -0.2369  1.9382 -1.5731
 7666TIP3   OH247192   7.548   5.602  11.647  0.3092 -0.1701  0.8051
 7666TIP3    H147193   7.591   5.682  11.677  0.2166  0.2545 -0.1770
 7666TIP3    H247194   7.527   5.618  11.555  0.7294 -1.5121  0.4515
 7667TIP3   OH247195   3.633   6.241  10.840 -0.0513 -0.1949 -0.3579
 7667TIP3    H147196   3.690   6.186  10.894 -1.0921 -1.5967 -0.6301
 7667TIP3    H247197   3.671   6.329  10.848  1.9297 -0.9995 -0.2609
 7668TIP3   OH247198   1.359   2.216  13.194 -0.4083  0.6514  0.4213
 7668TIP3    H147199   1.419   2.186  13.263  0.4478  2.5721  0.5897
 7668TIP3    H247200   1.272   2.206  13.232 -0.1438 -0.9737  0.6738
 7669TIP3   OH247201   1.407   2.732  12.363 -0.5031  0.7714 -0.6206
 7669TIP3    H147202   1.394   2.810  12.309 -1.8101  0.1352 -1.2857
 7669TIP3    H247203   1.361   2.662  12.315 -0.7412 -0.0582  0.7543
 7670TIP3   OH247204   7.075   1.385  11.484 -0.3648  0.0488 -0.0845
 7670TIP3    H147205   7.101   1.349  11.569 -0.0452  2.5329  0.9512
 7670TIP3    H247206   7.006   1.326  11.453 -0.5257 -0.8961  1.9049
 7671TIP3   OH247207   7.113   3.783  12.047  0.3209 -0.1355  0.1973
 7671TIP3    H147208   7.186   3.843  12.059 -0.6176  0.9553  0.6346
 7671TIP3    H247209   7.135   3.707  12.101  0.3173  0.9566  1.8201
 7672TIP3   OH247210   6.382   1.559  11.836 -0.0991  0.4164 -0.4784
 7672TIP3    H147211   6.317   1.545  11.767 -0.0974  1.2239 -0.6489
 7672TIP3    H247212   6.390   1.473  11.879 -0.3094 -0.0199 -1.2946
 7673TIP3   OH247213   2.201   7.062  10.904 -0.4296  0.0439 -0.1561
 7673TIP3    H147214   2.236   7.147  10.878 -1.1237  0.3514 -0.0991
 7673TIP3    H247215   2.277   7.015  10.940  0.2844  0.0643 -1.5596
 7674TIP3   OH247216   3.819   0.918  11.055  0.0823  0.3330  0.0908
 7674TIP3    H147217   3.835   0.943  10.964 -0.4162 -0.7676 -0.3154
 7674TIP3    H247218   3.811   1.002  11.101  2.2691  0.9391 -0.4983
 7675TIP3   OH247219   4.537   4.064  12.846 -0.3761 -0.1021  0.2956
 7675TIP3    H147220   4.574   4.152  12.842 -0.3178 -0.0748  1.1733
 7675TIP3    H247221   4.445   4.078  12.869 -0.4961 -0.2507 -0.0856
 7676TIP3   OH247222   7.189   1.801  13.089  0.6866 -0.2773 -0.7089
 7676TIP3    H147223   7.271   1.824  13.047  0.7187 -0.1414 -0.5706
 7676TIP3    H247224   7.211   1.729  13.147  0.3369 -1.5918 -2.1361
 7677TIP3   OH247225   7.207   2.009  10.784 -0.9318 -0.0575  0.3527
 7677TIP3    H147226   7.223   2.092  10.828 -1.9309  0.0629  0.5097
 7677TIP3    H247227   7.219   1.942  10.851 -2.3295  0.1176  0.8241
 7678TIP3   OH247228   1.208   3.239  12.299 -0.0042 -0.0873 -0.3530
 7678TIP3    H147229   1.266   3.304  12.260  0.1947 -0.3262 -0.4587
 7678TIP3    H247230   1.121   3.260  12.265  0.1420 -0.1908 -0.7882
 7679TIP3   OH247231   0.346   0.147  10.667  0.4624 -0.0110 -0.2524
 7679TIP3    H147232   0.405   0.178  10.736  1.1323 -0.9673 -0.3706
 7679TIP3    H247233   0.370   0.198  10.590 -0.5515  1.3394  0.2863
 7680TIP3   OH247234   5.792   1.580  13.241 -0.0221 -0.3872  0.1911
 7680TIP3    H147235   5.845   1.640  13.293 -1.7688  2.1377 -0.7135
 7680TIP3    H247236   5.851   1.551  13.171  0.6761  0.9924  0.1690
 7681TIP3   OH247237   3.971   1.818  10.913 -0.6278 -0.1246 -0.1240
 7681TIP3    H147238   3.903   1.795  10.850 -2.1145  0.0293  1.3512
 7681TIP3    H247239   3.985   1.912  10.901 -0.1289 -0.2869 -0.9095
 7682TIP3   OH247240   7.675   6.056  10.953  0.0258 -0.5635 -0.0474
 7682TIP3    H147241   7.667   6.152  10.952 -0.8215 -0.6312 -0.8118
 7682TIP3    H247242   7.703   6.036  11.042  0.4116  0.4119  0.0654
 7683TIP3   OH247243   4.808   3.147  11.444 -0.1634 -0.0647 -0.0135
 7683TIP3    H147244   4.742   3.080  11.458 -0.4317  0.1157 -0.3897
 7683TIP3    H247245   4.765   3.212  11.388 -0.0433  0.6224  0.6798
 7684TIP3   OH247246   6.285   6.922  13.006 -0.4230  0.0213 -0.3578
 7684TIP3    H147247   6.190   6.928  12.995 -0.4587  2.0070  0.5402
 7684TIP3    H247248   6.320   6.994  12.953  0.5149 -0.2146 -0.0812
 7685TIP3   OH247249   0.077   2.226  11.503 -0.2432  0.0622 -0.3785
 7685TIP3    H147250  -0.013   2.202  11.524 -0.0553 -0.0112  0.3675
 7685TIP3    H247251   0.099   2.295  11.565  0.7495 -1.0324  0.5365
 7686TIP3   OH247252   0.883   6.443  12.375 -0.3442  0.7301 -0.0627
 7686TIP3    H147253   0.790   6.467  12.370 -1.0997 -2.0886 -1.3577
 7686TIP3    H247254   0.886   6.374  12.441  0.8136  0.5945 -0.2366
 7687TIP3   OH247255   1.434   5.853  12.087 -0.4278 -0.1087  0.5585
 7687TIP3    H147256   1.348   5.817  12.109 -0.2475  0.0205  1.5404
 7687TIP3    H247257   1.490   5.776  12.079 -0.5898 -0.1822  0.1281
 7688TIP3   OH247258   0.087   3.647  11.410 -0.1145  0.0838 -0.3440
 7688TIP3    H147259   0.167   3.672  11.362  0.7157  2.3269  2.0034
 7688TIP3    H247260   0.044   3.730  11.429 -2.6935 -1.0308 -0.8508
 7689TIP3   OH247261   3.393   6.228  12.656  0.1010  0.1773  0.2180
 7689TIP3    H147262   3.347   6.262  12.733 -2.2879  1.2064 -1.5517
 7689TIP3    H247263   3.482   6.210  12.687 -0.4613  1.5822  2.9294
 7690TIP3   OH247264   4.429   2.782  11.296 -0.8309 -0.5056  0.6935
 7690TIP3    H147265   4.396   2.760  11.383 -0.8967 -1.6845  0.3830
 7690TIP3    H247266   4.358   2.758  11.236 -0.6470 -0.0357  0.2743
 7691TIP3   OH247267   2.058   6.511  11.637  0.0178 -0.0145  0.3946
 7691TIP3    H147268   2.009   6.589  11.661  0.3597 -0.0590  1.2593
 7691TIP3    H247269   2.148   6.530  11.664  0.3057 -0.2952 -0.3440
 7692TIP3   OH247270   6.928   2.594  10.903 -0.0983 -0.1019  0.0763
 7692TIP3    H147271   6.934   2.662  10.970 -1.7834 -0.6391  0.8161
 7692TIP3    H247272   6.953   2.514  10.948  0.7222 -0.1827 -0.4903
 7693TIP3   OH247273   0.042   6.764  17.778  0.0464 -0.1549 -0.2707
 7693TIP3    H147274   0.129   6.755  17.741 -0.1434  0.3590 -0.8618
 7693TIP3    H247275   0.021   6.857  17.768 -0.7031 -0.3350 -0.4394
 7694TIP3   OH247276   3.101   1.196  10.869  0.4695 -0.3242 -0.1268
 7694TIP3    H147277   3.070   1.240  10.790  1.7601  1.3419  0.2282
 7694TIP3    H247278   3.116   1.106  10.842  0.6907  0.1604 -1.7335
 7695TIP3   OH247279   2.744   5.247  12.202 -0.4824  0.1198  0.3835
 7695TIP3    H147280   2.667   5.301  12.182  0.6766  1.4755 -0.6089
 7695TIP3    H247281   2.713   5.157  12.194 -2.1115  0.6309  0.6261
 7696TIP3   OH247282   7.240   1.156  12.773  0.5320 -0.2555  0.3853
 7696TIP3    H147283   7.167   1.214  12.751 -0.7774 -1.3079  1.7468
 7696TIP3    H247284   7.243   1.091  12.703  0.9651  0.4785 -0.2964
 7697TIP3   OH247285   6.936   0.254  12.214  0.4304 -0.4224 -0.4765
 7697TIP3    H147286   6.935   0.349  12.211 -0.7530 -0.4425 -1.3591
 7697TIP3    H247287   6.872   0.231  12.282  0.7204 -0.6039 -0.2569
 7698TIP3   OH247288   5.124   0.832  10.955 -0.1790 -0.1012 -0.7326
 7698TIP3    H147289   5.195   0.856  11.014 -0.1793 -0.5063 -0.5639
 7698TIP3    H247290   5.138   0.739  10.936 -0.5425 -0.1336 -0.8618
 7699TIP3   OH247291   4.401   7.060  11.282 -0.3234  0.0185  0.4080
 7699TIP3    H147292   4.414   7.133  11.221  1.2117 -0.9014 -0.4317
 7699TIP3    H247293   4.427   6.982  11.232 -0.1712 -0.8997  1.8578
 7700TIP3   OH247294   2.312   1.756  11.642 -0.2906  0.2520  0.4126
 7700TIP3    H147295   2.364   1.782  11.565 -2.2991  0.6405 -0.8935
 7700TIP3    H247296   2.345   1.669  11.665  0.8766  0.4559 -0.3889
 7701TIP3   OH247297   0.751   6.315  11.235  0.3278 -0.9292 -0.5775
 7701TIP3    H147298   0.821   6.350  11.290  1.2664 -1.2209 -1.5561
 7701TIP3    H247299   0.672   6.357  11.268  0.8583 -1.0477  0.9485
 7702TIP3   OH247300   5.159   4.156  11.603  0.3629 -0.3497 -0.2035
 7702TIP3    H147301   5.164   4.091  11.534  0.2929  1.0495 -1.5789
 7702TIP3    H247302   5.178   4.239  11.560 -2.4726  0.9696  0.8580
 7703TIP3   OH247303   7.412   3.620  11.256  0.3044 -0.2296  0.5322
 7703TIP3    H147304   7.488   3.586  11.209 -0.1018 -0.4768  0.0365
 7703TIP3    H247305   7.421   3.716  11.251 -0.2276 -0.2247 -0.9180
 7704TIP3   OH247306   6.678   3.538  10.743 -0.4614  0.6045 -0.0378
 7704TIP3    H147307   6.638   3.451  10.737 -0.7954  0.6834  0.8086
 7704TIP3    H247308   6.644   3.573  10.826  0.3833  1.1729  0.0743
 7705TIP3   OH247309   4.650   4.735  11.515  0.1852 -0.0966 -0.0772
 7705TIP3    H147310   4.716   4.667  11.526 -0.9091 -1.2251 -0.3219
 7705TIP3    H247311   4.567   4.688  11.510 -0.5512  1.2152 -0.8145
 7706TIP3   OH247312   2.860   0.022  12.204  0.4873 -0.0639 -0.1922
 7706TIP3    H147313   2.890  -0.068  12.213  0.5127 -0.0969 -0.5978
 7706TIP3    H247314   2.793   0.032  12.271  1.5384  0.0750  0.8812
 7707TIP3   OH247315   0.918   5.580  13.406  0.0575 -0.3848  0.0523
 7707TIP3    H147316   0.891   5.662  13.447 -0.4800 -1.2738  1.5513
 7707TIP3    H247317   0.861   5.514  13.445  1.2078 -1.6333 -0.3289
 7708TIP3   OH247318   5.419   1.761  12.147  0.2097  0.5117 -0.1313
 7708TIP3    H147319   5.414   1.666  12.163 -1.7689  0.4898 -0.6356
 7708TIP3    H247320   5.358   1.776  12.074 -0.8735  2.4161  1.0842
 7709TIP3   OH247321   5.116   5.413  12.214 -0.2188  0.1770 -0.9403
 7709TIP3    H147322   5.208   5.411  12.188  0.4261  1.9934  0.9391
 7709TIP3    H247323   5.069   5.437  12.135  1.3461  2.9440 -1.1444
 7710TIP3   OH247324   3.577   3.459  13.497  0.0043  0.3186  0.1507
 7710TIP3    H147325   3.665   3.434  13.527  0.6698  0.4746 -1.5743
 7710TIP3    H247326   3.570   3.421  13.409 -2.0818 -0.5813  0.6412
 7711TIP3   OH247327   1.862   6.135  12.388 -0.4290  0.0829  0.9166
 7711TIP3    H147328   1.776   6.163  12.419 -0.5896  0.6025  0.0325
 7711TIP3    H247329   1.858   6.040  12.391 -2.0536 -0.0170 -1.6810
 7712TIP3   OH247330   4.134   4.227  12.650  0.0874  0.2789 -0.0116
 7712TIP3    H147331   4.112   4.271  12.732  0.6808 -0.9724  0.8559
 7712TIP3    H247332   4.201   4.163  12.674 -1.3655 -1.7548 -1.0162
 7713TIP3   OH247333   2.010   3.763  10.906 -0.9100 -0.0091  0.3919
 7713TIP3    H147334   2.009   3.859  10.915 -0.8887  0.1235 -0.9231
 7713TIP3    H247335   2.075   3.746  10.839 -2.0935 -0.8370 -0.5824
 7714TIP3   OH247336   3.462   0.440  11.220  0.1622 -0.3366  0.4246
 7714TIP3    H147337   3.375   0.435  11.260 -0.0968  0.7611  0.0275
 7714TIP3    H247338   3.468   0.529  11.186  1.5834 -0.2872  0.7473
 7715TIP3   OH247339   3.937   3.181  10.964  0.6627 -0.2405  0.1913
 7715TIP3    H147340   3.921   3.187  11.058 -0.2199  0.8509 -0.0099
 7715TIP3    H247341   3.933   3.271  10.932 -0.0979 -0.6721 -1.0453
 7716TIP3   OH247342   6.840   2.059  10.257 -0.1075 -0.2685  0.3628
 7716TIP3    H147343   6.834   1.992  10.326  1.3652 -1.3375 -0.4745
 7716TIP3    H247344   6.800   2.018  10.181 -1.3427  0.7508  0.4341
 7717TIP3   OH247345   3.123   6.973  12.184  0.1592  0.3066 -0.2796
 7717TIP3    H147346   3.209   6.988  12.225  0.3415 -1.8184  0.2220
 7717TIP3    H247347   3.142   6.968  12.091  0.4679  0.5516 -0.2325
 7718TIP3   OH247348   6.911   1.496  11.866 -0.5336  0.0055 -0.4265
 7718TIP3    H147349   6.925   1.569  11.806 -1.2504  0.6585  0.1807
 7718TIP3    H247350   6.856   1.434  11.817 -1.7707  0.8868 -0.2074
 7719TIP3   OH247351   1.381   6.794  12.059 -0.0084 -0.6249 -0.4437
 7719TIP3    H147352   1.433   6.805  12.139 -0.4730 -0.7148 -0.1263
 7719TIP3    H247353   1.316   6.727  12.081  1.0116 -1.9997 -1.4773
 7720TIP3   OH247354   5.519   1.856  11.754  0.4029  0.2164  0.1056
 7720TIP3    H147355   5.606   1.851  11.792  0.1113 -0.8796  0.6711
 7720TIP3    H247356   5.479   1.932  11.795  1.3305  1.1753 -0.7094
 7721TIP3   OH247357   0.838   7.379  12.671 -0.8223 -0.1456  0.5574
 7721TIP3    H147358   0.918   7.338  12.705  0.1276  0.2944 -1.0377
 7721TIP3    H247359   0.767   7.341  12.723  0.4884  0.1805  2.6802
 7722TIP3   OH247360   3.397   7.550  11.261 -0.1616 -0.3637  0.1670
 7722TIP3    H147361   3.317   7.497  11.260 -0.3105 -0.1572  0.8330
 7722TIP3    H247362   3.376   7.624  11.205  0.6510 -1.8393 -2.2338
 7723TIP3   OH247363   0.276   6.810  11.344 -0.5283 -0.9108  0.4072
 7723TIP3    H147364   0.248   6.847  11.428  2.1147 -0.6161  1.2585
 7723TIP3    H247365   0.202   6.825  11.285 -1.6816  0.7373  2.1450
 7724TIP3   OH247366   3.728   1.128  11.182  0.1767 -0.5545  0.5785
 7724TIP3    H147367   3.710   1.123  11.275 -2.0237  0.3127  0.2603
 7724TIP3    H247368   3.774   1.211  11.171  2.1487 -1.5356  1.0827
 7725TIP3   OH247369   0.689   3.997  11.388 -0.1128  0.1737 -0.1263
 7725TIP3    H147370   0.699   4.087  11.420 -1.3795  0.5210 -0.6739
 7725TIP3    H247371   0.716   4.002  11.296 -2.2615  0.4937 -0.7844
 7726TIP3   OH247372   4.678   5.024  12.283 -0.5331  0.8066  0.1025
 7726TIP3    H147373   4.744   5.054  12.346 -2.0222 -1.3808  2.9438
 7726TIP3    H247374   4.641   5.105  12.248  0.2949  2.1931  2.1732
 7727TIP3   OH247375   0.019   5.019  11.487 -0.2993  0.4466  0.0017
 7727TIP3    H147376  -0.035   5.055  11.416 -1.0609  0.1819  0.4386
 7727TIP3    H247377   0.093   5.080  11.493  0.2075  0.0401 -1.5509
 7728TIP3   OH247378   3.914   1.588  10.512 -0.4697 -0.6340  0.3094
 7728TIP3    H147379   3.978   1.517  10.501 -1.9636 -1.6359 -3.9455
 7728TIP3    H247380   3.829   1.543  10.511 -1.4232  1.0858 -1.4838
 7729TIP3   OH247381   7.201   1.003  12.092 -0.1226 -0.0619  0.2983
 7729TIP3    H147382   7.220   0.927  12.038  0.3768 -0.6723  1.2880
 7729TIP3    H247383   7.255   1.073  12.056 -0.4218 -0.2314 -0.4895
 7730TIP3   OH247384   5.608   4.053  12.113  0.1184  0.5002 -0.0562
 7730TIP3    H147385   5.544   3.993  12.076 -0.3393  1.5314 -0.9784
 7730TIP3    H247386   5.571   4.140  12.099  0.3841  0.9952  1.9505
 7731TIP3   OH247387   0.245   2.147  10.549  0.7540 -0.0246  0.4417
 7731TIP3    H147388   0.180   2.204  10.507 -0.8470 -0.5154  2.1159
 7731TIP3    H247389   0.330   2.181  10.519 -0.2265  1.2648 -1.0360
 7732TIP3   OH247390   5.218   3.666  11.521  0.6168  0.2264  0.0991
 7732TIP3    H147391   5.224   3.678  11.616  0.0877  0.9524  0.0493
 7732TIP3    H247392   5.308   3.647  11.493  0.7838  0.0608  0.7353
 7733TIP3   OH247393   3.030   3.257  10.841  0.0200  0.1936  0.3888
 7733TIP3    H147394   2.991   3.172  10.861  0.4796  0.0137  0.5389
 7733TIP3    H247395   2.964   3.302  10.789  0.0154 -0.4964 -0.2246
 7734TIP3   OH247396   5.731   7.377  11.920 -0.0259  0.3620  0.4307
 7734TIP3    H147397   5.646   7.343  11.947 -1.0177  1.4789 -1.1475
 7734TIP3    H247398   5.754   7.442  11.986  1.4617 -2.4810  2.9747
 7735TIP3   OH247399   4.914   4.405  11.236 -0.5520 -0.0590 -0.2492
 7735TIP3    H147400   4.927   4.487  11.283 -2.6713 -0.4109  1.1002
 7735TIP3    H247401   4.960   4.417  11.153 -0.3108  2.2499  0.1500
 7736TIP3   OH247402   6.352   5.817  11.802  0.4883  0.0817  0.9176
 7736TIP3    H147403   6.333   5.787  11.713  0.4152  0.5060  0.7915
 7736TIP3    H247404   6.390   5.740  11.845  0.1852 -0.2309  0.6310
 7737TIP3   OH247405   1.273   6.568  10.749 -0.2275 -0.1075 -0.0175
 7737TIP3    H147406   1.225   6.504  10.802 -0.5188  1.1897  1.3344
 7737TIP3    H247407   1.323   6.515  10.688 -0.7485 -1.6225  0.8146
 7738TIP3   OH247408   3.423   0.963  11.077 -0.3845 -0.0120 -0.2312
 7738TIP3    H147409   3.341   1.009  11.057 -0.1286  1.2732  1.4092
 7738TIP3    H247410   3.492   1.020  11.044 -0.0624  0.8981  1.8303
 7739TIP3   OH247411   3.161   6.884  11.912 -0.0412  0.4342  0.1829
 7739TIP3    H147412   3.173   6.790  11.899  1.6922  0.7243 -0.6123
 7739TIP3    H247413   3.088   6.907  11.856 -1.7643 -0.7226  1.8342
 7740TIP3   OH247414   7.566   1.812  10.551  0.1133 -0.0729  0.0907
 7740TIP3    H147415   7.607   1.801  10.465  1.1302 -1.9125  0.7467
 7740TIP3    H247416   7.475   1.834  10.531  0.1129 -1.2701 -1.4846
 7741TIP3   OH247417   1.327   5.222  12.338 -0.5098  0.0093  0.0749
 7741TIP3    H147418   1.361   5.132  12.339  0.1225  0.2386 -0.7112
 7741TIP3    H247419   1.290   5.233  12.426  0.2302 -0.7026  0.4966
 7742TIP3   OH247420   6.797   4.831  12.952 -0.5288  0.3180  0.2379
 7742TIP3    H147421   6.865   4.836  12.885 -1.4562  0.0797 -0.7538
 7742TIP3    H247422   6.721   4.795  12.906 -1.5713  1.3359  1.1050
 7743TIP3   OH247423   4.992   7.036  10.330 -0.2333  0.1718 -0.1835
 7743TIP3    H147424   4.998   7.013  10.237  0.5453 -1.8399  0.3185
 7743TIP3    H247425   5.029   7.124  10.335  2.1658 -0.6553 -1.4631
 7744TIP3   OH247426   7.305   0.510  12.489 -0.0476  0.3726 -0.0852
 7744TIP3    H147427   7.328   0.426  12.449  0.8186  1.0048 -0.9591
 7744TIP3    H247428   7.277   0.488  12.578  2.4476 -0.5991  0.5181
 7745TIP3   OH247429   1.552   7.022  12.521  0.4175  0.3301 -0.2665
 7745TIP3    H147430   1.470   6.982  12.550  0.6246 -1.1723 -1.6149
 7745TIP3    H247431   1.620   6.978  12.572  0.5129  0.2834 -0.4328
 7746TIP3   OH247432   0.352   4.294  11.408  0.2476 -0.2748 -0.1755
 7746TIP3    H147433   0.323   4.357  11.341  2.0861 -0.9929 -1.7530
 7746TIP3    H247434   0.369   4.214  11.360 -1.1162 -1.7589  1.6634
 7747TIP3   OH247435   1.730   2.125  12.226  0.4431 -0.0944 -0.2417
 7747TIP3    H147436   1.685   2.060  12.172 -0.3776 -0.7805  1.2421
 7747TIP3    H247437   1.794   2.074  12.276  0.2219  0.3261  0.4723
 7748TIP3   OH247438   6.973   2.848  12.213  0.2448  0.3085  0.5196
 7748TIP3    H147439   6.925   2.930  12.226  1.8875  1.8165 -2.0778
 7748TIP3    H247440   6.954   2.823  12.123  0.8509 -1.4747  0.8508
 7749TIP3   OH247441   5.219   4.910  12.235 -0.4313 -0.2902  0.0097
 7749TIP3    H147442   5.304   4.953  12.235 -1.3064  1.5698 -0.0569
 7749TIP3    H247443   5.163   4.968  12.183 -2.2683 -0.2670  1.8567
 7750TIP3   OH247444   0.377   5.962  11.008 -0.6204 -0.2780  0.1275
 7750TIP3    H147445   0.458   5.918  11.031 -1.1318 -1.2947  0.0285
 7750TIP3    H247446   0.388   6.051  11.042 -0.4000 -1.0504  2.2193
 7751TIP3   OH247447   2.358   5.025  12.666  0.6264 -0.4598  0.0399
 7751TIP3    H147448   2.376   4.933  12.647  1.0719  0.0470 -2.3147
 7751TIP3    H247449   2.390   5.073  12.589  1.7942  1.8444  1.8273
 7752TIP3   OH247450   3.078   0.275  11.416  0.0120  0.2502  0.1754
 7752TIP3    H147451   3.104   0.292  11.507 -1.5070 -0.3767  0.7626
 7752TIP3    H247452   3.061   0.181  11.413  0.5556  0.1725 -0.9088
 7753TIP3   OH247453   6.744   5.780  11.357  0.2434 -0.0818 -0.4803
 7753TIP3    H147454   6.818   5.815  11.307 -0.8003  2.2153 -0.5056
 7753TIP3    H247455   6.681   5.751  11.290 -1.4261  3.5664 -0.6850
 7754TIP3   OH247456   1.735   5.472  12.950 -0.6316 -0.2682 -0.2815
 7754TIP3    H147457   1.819   5.435  12.978 -1.4529 -3.1010 -1.1970
 7754TIP3    H247458   1.754   5.512  12.865 -0.2588 -1.3873 -0.7530
 7755TIP3   OH247459   3.617   2.369  12.171 -0.3740  0.3477 -0.5872
 7755TIP3    H147460   3.656   2.386  12.085  1.6640  0.7705  0.3443
 7755TIP3    H247461   3.693   2.354  12.229 -1.7192 -2.4585  0.6489
 7756TIP3   OH247462   3.375   5.576  12.114  0.0533 -0.3875  0.1109
 7756TIP3    H147463   3.392   5.533  12.030  1.3097 -1.2297  0.7693
 7756TIP3    H247464   3.344   5.663  12.090 -1.2778 -1.1673 -1.2520
 7757TIP3   OH247465   0.177   5.684  10.260 -0.7222  0.3132  0.0623
 7757TIP3    H147466   0.121   5.647  10.192 -1.5441 -0.3634  1.0656
 7757TIP3    H247467   0.266   5.677  10.225 -1.3000  2.8393 -2.2134
 7758TIP3   OH247468   2.222   2.919  11.674  0.4703  0.0268  0.0980
 7758TIP3    H147469   2.156   2.941  11.739 -0.5144  1.3209 -1.2654
 7758TIP3    H247470   2.209   2.826  11.656  1.2525 -0.5365  2.2292
 7759TIP3   OH247471   0.154   5.583  11.247 -0.7151 -0.1808  0.4376
 7759TIP3    H147472   0.082   5.645  11.256 -0.1390  0.3755  1.4052
 7759TIP3    H247473   0.186   5.595  11.157 -1.8309 -0.4559 -0.0083
 7760TIP3   OH247474   5.007   2.155  12.679  0.5397  0.3520  0.1967
 7760TIP3    H147475   4.942   2.086  12.667  0.7088  0.1809  0.2467
 7760TIP3    H247476   4.992   2.186  12.769  0.1095  0.7551 -0.0128
 7761TIP3   OH247477   1.361   1.998  12.278 -0.6060  0.2573 -0.6773
 7761TIP3    H147478   1.365   2.077  12.332 -1.9819  1.7735 -2.6677
 7761TIP3    H247479   1.448   1.993  12.238  0.8499 -1.5153  2.2844
 7762TIP3   OH247480   4.927   2.586  13.384  0.5509  0.4512  0.2628
 7762TIP3    H147481   4.871   2.535  13.443 -2.1479  2.8675  0.0092
 7762TIP3    H247482   4.896   2.563  13.297  0.2887  1.4198  0.0902
 7763TIP3   OH247483   3.078   3.346  12.115 -0.1006  0.3894 -0.0572
 7763TIP3    H147484   3.087   3.419  12.176 -0.5701 -1.2156  2.0246
 7763TIP3    H247485   3.166   3.311  12.106 -0.2304 -0.1255  0.6749
 7764TIP3   OH247486   3.225   0.410  10.461  0.3065 -0.4262 -0.2626
 7764TIP3    H147487   3.169   0.348  10.413  1.6460  0.0009 -2.5481
 7764TIP3    H247488   3.181   0.422  10.545 -1.3306 -2.5094 -0.7246
 7765TIP3   OH247489   4.640   3.933  11.951 -0.1756 -0.0301 -0.1483
 7765TIP3    H147490   4.628   3.841  11.976 -2.2425 -0.1688 -1.4898
 7765TIP3    H247491   4.570   3.951  11.890  0.3703  2.3996 -0.1521
 7766TIP3   OH247492   0.456   7.563  10.883  0.6124  0.5702  0.0733
 7766TIP3    H147493   0.507   7.642  10.897  0.1259  0.7024  1.2198
 7766TIP3    H247494   0.390   7.588  10.818  1.6213  0.5566 -0.9830
 7767TIP3   OH247495   4.876   3.432  12.185  0.1394  0.0706 -0.1850
 7767TIP3    H147496   4.834   3.487  12.251 -0.7633 -0.1742 -0.5447
 7767TIP3    H247497   4.815   3.432  12.112  0.4783 -0.8178 -0.4730
 7768TIP3   OH247498   6.245   1.670  12.068  0.4137 -0.3117 -0.2928
 7768TIP3    H147499   6.222   1.577  12.063  0.8888 -0.4116 -0.8283
 7768TIP3    H247500   6.323   1.677  12.013  1.2217  0.1434  0.8949
 7769TIP3   OH247501   1.782   2.184  10.091  0.4231  0.2097 -0.4321
 7769TIP3    H147502   1.862   2.208  10.043  0.8747 -0.6262 -0.1279
 7769TIP3    H247503   1.811   2.173  10.181 -0.0173 -0.1975 -0.3369
 7770TIP3   OH247504   2.297   0.353  12.282  0.2852  0.1429 -0.2852
 7770TIP3    H147505   2.295   0.426  12.219 -0.1347 -0.0813 -0.5356
 7770TIP3    H247506   2.351   0.385  12.354  1.9192 -0.0919 -1.3614
 7771TIP3   OH247507   4.309   5.820  10.875  0.0756  0.1911 -0.5295
 7771TIP3    H147508   4.347   5.893  10.925 -0.8468 -0.1028  0.6543
 7771TIP3    H247509   4.322   5.744  10.931  0.7551 -0.5237 -1.6211
 7772TIP3   OH247510   1.503   4.189  10.581  0.1141 -0.0220 -0.9328
 7772TIP3    H147511   1.549   4.264  10.544  1.7671 -0.0843  0.8260
 7772TIP3    H247512   1.570   4.139  10.626 -1.2861 -1.4909 -0.3692
 7773TIP3   OH247513   1.595   0.870  12.715  0.5029 -0.1475 -0.0349
 7773TIP3    H147514   1.662   0.830  12.770 -0.7537  1.4919  2.8961
 7773TIP3    H247515   1.523   0.806  12.714  0.6721 -0.3402 -0.1511
 7774TIP3   OH247516   6.531   1.412  10.811 -0.4185  0.1118 -0.0590
 7774TIP3    H147517   6.552   1.499  10.846  0.8680 -0.3374  0.3107
 7774TIP3    H247518   6.538   1.353  10.886 -0.0291 -0.5025 -0.5702
 7775TIP3   OH247519   0.402   7.468  11.963 -0.1667 -0.5438  0.0406
 7775TIP3    H147520   0.446   7.400  11.912 -0.1606 -1.8550  1.6755
 7775TIP3    H247521   0.319   7.482  11.918  1.4086  1.2452 -2.5260
 7776TIP3   OH247522   2.185   7.572  12.227  0.2951 -0.2981 -0.3202
 7776TIP3    H147523   2.247   7.645  12.227 -1.1574  1.5352  5.7477
 7776TIP3    H247524   2.228   7.505  12.280 -0.4491 -1.7281 -1.4858
 7777TIP3   OH247525   1.279   1.003  12.687  0.2038  0.0409  0.1688
 7777TIP3    H147526   1.189   0.975  12.671 -0.0195 -0.2240  1.6692
 7777TIP3    H247527   1.333   0.936  12.646 -0.3240 -2.0423  2.5923
 7778TIP3   OH247528   6.310   6.234  11.079 -0.3627  0.5538 -0.3274
 7778TIP3    H147529   6.348   6.237  11.166 -0.0825  0.5113 -0.4477
 7778TIP3    H247530   6.270   6.147  11.072 -0.7143  0.6950 -0.1061
 7779TIP3   OH247531   6.286   4.708  10.820 -0.1049  0.1063  0.5810
 7779TIP3    H147532   6.252   4.770  10.885 -2.0775 -1.7161  1.4020
 7779TIP3    H247533   6.217   4.703  10.754  1.1659  0.6689 -0.8595
 7780TIP3   OH247534   0.638   5.116  11.737  0.1017 -0.3334  0.3282
 7780TIP3    H147535   0.639   5.154  11.825 -1.5344 -0.3570  0.3720
 7780TIP3    H247536   0.573   5.045  11.742  1.6496 -1.8776 -0.2957
 7781TIP3   OH247537   0.278   2.583  11.979 -0.1002  0.2957 -0.2994
 7781TIP3    H147538   0.370   2.561  11.994 -0.1719  0.3678  0.2930
 7781TIP3    H247539   0.275   2.618  11.890  0.0791 -1.7668 -1.1817
 7782TIP3   OH247540   4.954   2.546  12.739 -0.6269 -0.2545 -0.4473
 7782TIP3    H147541   4.864   2.547  12.770 -0.9388 -2.9703 -1.0012
 7782TIP3    H247542   5.001   2.493  12.803  0.6268  1.1649 -0.1341
 7783TIP3   OH247543   4.866   6.153  12.477 -0.0396 -0.0709  0.4285
 7783TIP3    H147544   4.960   6.156  12.458  0.1524 -1.3118  1.0959
 7783TIP3    H247545   4.860   6.171  12.571 -0.4612 -0.0936  0.4073
 7784TIP3   OH247546   4.222   1.453  13.522 -0.4025  0.6317 -0.0711
 7784TIP3    H147547   4.246   1.366  13.487 -0.7282  0.9466 -1.1210
 7784TIP3    H247548   4.127   1.458  13.509 -0.3820  1.1493 -0.0165
 7785TIP3   OH247549   3.847   6.155  11.337  0.0768 -0.2919 -0.1640
 7785TIP3    H147550   3.848   6.189  11.426 -0.9812 -0.2647 -0.1463
 7785TIP3    H247551   3.890   6.069  11.344 -1.7230 -1.1786  0.7838
 7786TIP3   OH247552   0.842   4.823  12.069  0.1950  0.5415  0.5737
 7786TIP3    H147553   0.794   4.905  12.060  1.1518  0.9742 -0.8257
 7786TIP3    H247554   0.915   4.844  12.127  0.0101  0.4589  0.8434
 7787TIP3   OH247555   1.286   5.318  11.569  0.3334  0.0949 -0.0165
 7787TIP3    H147556   1.334   5.239  11.544  2.0474  1.4379 -1.2386
 7787TIP3    H247557   1.248   5.351  11.488  0.3633  0.9566  0.3012
 7788TIP3   OH247558   0.544   6.496  11.265  0.4599 -0.3429 -0.1671
 7788TIP3    H147559   0.527   6.542  11.183 -0.3055 -0.8135 -0.2829
 7788TIP3    H247560   0.460   6.498  11.311 -0.2155 -3.3162 -1.0432
 7789TIP3   OH247561   1.839   0.385  12.628 -0.9256 -0.0120 -0.0849
 7789TIP3    H147562   1.932   0.399  12.609 -0.9606 -1.1137 -1.1577
 7789TIP3    H247563   1.821   0.445  12.701  0.5655  0.3716  0.0116
 7790TIP3   OH247564   4.950   0.804  12.451 -0.1199 -0.1592 -0.2660
 7790TIP3    H147565   5.005   0.760  12.516 -1.2311 -0.4413  0.5249
 7790TIP3    H247566   4.861   0.798  12.487 -0.7667 -0.2831 -1.7910
 7791TIP3   OH247567   1.074   4.134  12.599 -0.4834  0.2376  0.3227
 7791TIP3    H147568   1.061   4.227  12.579 -0.0497 -0.0239 -1.3103
 7791TIP3    H247569   1.167   4.118  12.581 -0.4892 -0.4579  0.8661
 7792TIP3   OH247570   3.843   0.712  12.908  0.3291  0.2055 -0.4287
 7792TIP3    H147571   3.919   0.657  12.927 -0.5742 -1.0521 -0.2717
 7792TIP3    H247572   3.863   0.796  12.948  0.7673 -0.7432  1.4792
 7793TIP3   OH247573   6.832   2.882  11.346  0.1131 -0.3572 -0.3022
 7793TIP3    H147574   6.866   2.970  11.364  1.7138 -1.1137  0.5083
 7793TIP3    H247575   6.769   2.866  11.416  0.4315 -0.1715  0.0300
 7794TIP3   OH247576   0.010   3.011  12.661 -0.3411  0.1415  0.5196
 7794TIP3    H147577   0.018   2.917  12.678 -0.8534 -0.1558 -0.7647
 7794TIP3    H247578   0.099   3.040  12.640 -0.2674 -0.1646  0.4112
 7795TIP3   OH247579   4.350   5.425  11.232  0.4224 -0.3578 -0.4963
 7795TIP3    H147580   4.443   5.409  11.215  0.6498  0.3261  0.0465
 7795TIP3    H247581   4.335   5.386  11.319 -0.4279 -2.7248 -1.6016
 7796TIP3   OH247582   5.037   1.981  11.290 -0.2867  0.3333 -0.2967
 7796TIP3    H147583   5.013   1.889  11.302  3.3795 -0.7113  0.5068
 7796TIP3    H247584   4.997   2.006  11.207 -1.7645 -1.8166 -0.3118
 7797TIP3   OH247585   0.778   6.547  10.540  0.2521  0.3663 -0.1452
 7797TIP3    H147586   0.750   6.550  10.448 -0.2280  1.0760  0.0130
 7797TIP3    H247587   0.711   6.597  10.587  0.7943  0.4887  0.5177
 7798TIP3   OH247588   1.293   6.477  12.332  0.2134  0.3951 -0.1609
 7798TIP3    H147589   1.239   6.409  12.372 -0.2885  0.2688 -1.0347
 7798TIP3    H247590   1.368   6.486  12.391  0.7145 -1.5030 -0.4446
 7799TIP3   OH247591   0.962   0.418  12.345  0.0306 -0.6819  0.1946
 7799TIP3    H147592   0.990   0.367  12.269 -0.9603 -0.3100 -0.4370
 7799TIP3    H247593   1.043   0.453  12.382  0.5824 -1.4234 -0.2785
 7800TIP3   OH247594   5.420   3.973  11.938 -0.1196  0.9247  0.6109
 7800TIP3    H147595   5.328   3.994  11.954 -0.0368  2.1308 -0.3541
 7800TIP3    H247596   5.437   4.005  11.849  1.1935  0.5620  0.7111
 7801TIP3   OH247597   6.623   2.089  12.592 -0.0608  0.4300  0.8454
 7801TIP3    H147598   6.545   2.144  12.580  1.9239  3.0551 -1.1835
 7801TIP3    H247599   6.641   2.094  12.686 -0.9675  1.7514  0.9786
 7802TIP3   OH247600   7.218   3.582  12.174 -0.0961 -0.1656  0.4702
 7802TIP3    H147601   7.206   3.498  12.219  2.1010 -0.0252  1.4787
 7802TIP3    H247602   7.301   3.572  12.128  1.1751  2.0036  2.0902
 7803TIP3   OH247603   4.266   3.847  11.550 -0.2141 -0.0651 -0.4986
 7803TIP3    H147604   4.362   3.844  11.548 -0.1588  0.3005  0.7348
 7803TIP3    H247605   4.239   3.774  11.493  0.7575  0.8196 -2.1730
 7804TIP3   OH247606   5.471   3.123  13.352 -0.1175 -0.1450 -0.3012
 7804TIP3    H147607   5.460   3.208  13.310 -0.8513 -1.3314 -2.7165
 7804TIP3    H247608   5.564   3.102  13.338 -0.3692 -0.5566 -1.4674
 7805TIP3   OH247609   6.606   2.927  11.037  0.1465 -0.1896 -1.0424
 7805TIP3    H147610   6.655   2.991  11.089 -1.3726  0.0398  0.1991
 7805TIP3    H247611   6.632   2.943  10.947  2.3445 -0.1067 -0.4384
 7806TIP3   OH247612   1.240   5.971  10.781 -0.5198  0.9761 -0.5295
 7806TIP3    H147613   1.179   5.897  10.774 -0.3507  0.8853 -1.0494
 7806TIP3    H247614   1.193   6.036  10.834 -0.3074  0.1320  0.7382
 7807TIP3   OH247615   0.060   7.005  10.965  0.2458 -0.4349 -0.2124
 7807TIP3    H147616   0.094   7.012  10.876 -0.2016 -0.5651 -0.3957
 7807TIP3    H247617  -0.010   7.071  10.969 -0.5238 -1.2269 -0.3351
 7808TIP3   OH247618   7.377   5.120  11.992 -0.0095 -0.1176 -0.5957
 7808TIP3    H147619   7.357   5.181  11.921 -0.7024 -0.4380 -0.6837
 7808TIP3    H247620   7.462   5.082  11.969  1.2374  1.9988  0.2820
 7809TIP3   OH247621   2.593   7.238  11.155 -0.3878 -0.3122 -0.2890
 7809TIP3    H147622   2.645   7.271  11.228 -1.4034  0.0039  0.3137
 7809TIP3    H247623   2.557   7.316  11.114 -0.2416 -0.5154 -0.8083
 7810TIP3   OH247624   6.537   6.301  10.951  0.2808 -0.0221  0.3416
 7810TIP3    H147625   6.448   6.265  10.951  0.1520  0.2840  0.8035
 7810TIP3    H247626   6.536   6.366  11.021  1.2653 -0.9966  1.3091
 7811TIP3   OH247627   2.331   5.084  12.952 -0.0547  0.5287  0.2154
 7811TIP3    H147628   2.356   5.055  12.865 -0.5005  0.1489  0.2113
 7811TIP3    H247629   2.251   5.035  12.972 -0.8216  1.7343  0.2236
 7812TIP3   OH247630   0.900   4.861  11.073 -0.1542 -0.0761  0.0644
 7812TIP3    H147631   0.976   4.920  11.069  1.2933 -1.9109 -1.3081
 7812TIP3    H247632   0.854   4.875  10.990  0.1133 -0.7460 -0.2039
 7813TIP3   OH247633   1.001   4.918  10.745 -0.0137  0.3319  0.2911
 7813TIP3    H147634   1.085   4.912  10.701  0.4624 -1.1588  1.3146
 7813TIP3    H247635   0.974   4.827  10.757 -1.3082  0.7660  0.8502
 7814TIP3   OH247636   5.411   1.797  11.454  0.2080  0.1221 -0.2012
 7814TIP3    H147637   5.387   1.706  11.441 -0.7006  0.4661 -1.1125
 7814TIP3    H247638   5.367   1.824  11.534 -1.1900  0.2995 -1.0055
 7815TIP3   OH247639   2.315   5.555  11.437 -0.6231  0.2510  0.3001
 7815TIP3    H147640   2.279   5.589  11.355  1.1101  0.4025 -0.4414
 7815TIP3    H247641   2.354   5.471  11.413  0.4351  0.5794  0.8414
 7816TIP3   OH247642   3.578   4.382  11.383 -0.0804  0.0593 -0.1690
 7816TIP3    H147643   3.607   4.312  11.441  1.2606  0.1714 -0.6837
 7816TIP3    H247644   3.517   4.339  11.322 -0.5599 -0.2974  0.5426
 7817TIP3   OH247645   0.922   1.317  12.285  0.0768  0.0341 -0.2995
 7817TIP3    H147646   0.831   1.340  12.306 -0.0491  0.3541 -1.1916
 7817TIP3    H247647   0.938   1.354  12.199  0.9201 -0.4122 -0.3488
 7818TIP3   OH247648   7.250   0.566  13.037  1.2330 -0.3786  0.0630
 7818TIP3    H147649   7.181   0.584  12.973  2.6725  0.7636 -1.2523
 7818TIP3    H247650   7.316   0.517  12.988  1.9913 -0.2143  0.8965
 7819TIP3   OH247651   6.923   3.675  10.748 -0.3838  0.4983 -0.3110
 7819TIP3    H147652   6.937   3.719  10.664  0.3640  1.4233  0.2743
 7819TIP3    H247653   6.844   3.622  10.735 -1.4453  2.1671 -0.9918
 7820TIP3   OH247654   1.902   7.504  12.150  0.0861 -0.2023  0.6860
 7820TIP3    H147655   1.995   7.510  12.127 -0.3539 -0.3294 -1.2683
 7820TIP3    H247656   1.882   7.587  12.193  0.7193  0.5573 -0.4350
 7821TIP3   OH247657   2.949   5.950  11.456  0.6458  0.0961  0.5497
 7821TIP3    H147658   2.915   5.878  11.509 -0.3880  0.5828  0.5794
 7821TIP3    H247659   2.926   5.927  11.366  0.3686  0.3424  0.5530
 7822TIP3   OH247660   2.443   0.915  10.868  0.3493 -0.3093  0.8638
 7822TIP3    H147661   2.393   0.837  10.846 -1.5479  0.9980  0.2849
 7822TIP3    H247662   2.485   0.940  10.786 -0.4781  0.2417  0.5959
 7823TIP3   OH247663   6.579   0.436  11.872  0.0732 -0.9802  0.4873
 7823TIP3    H147664   6.595   0.379  11.947 -0.6304  0.0966  1.4894
 7823TIP3    H247665   6.632   0.514  11.890 -0.9768 -0.2450  0.4432
 7824TIP3   OH247666   3.491   6.682  10.556 -0.3223  0.2675  0.4229
 7824TIP3    H147667   3.580   6.661  10.585 -0.4843  0.3517  0.9970
 7824TIP3    H247668   3.496   6.772  10.525  0.2727 -0.4145 -1.6127
 7825TIP3   OH247669   4.539   1.504  11.872 -0.3338 -0.4841  0.1453
 7825TIP3    H147670   4.580   1.508  11.958  1.0810 -2.0233 -0.4033
 7825TIP3    H247671   4.458   1.555  11.881  0.6789  0.9294  1.8399
 7826TIP3   OH247672   1.732   2.287  13.143 -0.5571 -0.0005 -0.5375
 7826TIP3    H147673   1.667   2.242  13.196  0.0046  1.3777  1.4197
 7826TIP3    H247674   1.693   2.372  13.124  0.2932  0.4965 -0.1072
 7827TIP3   OH247675   2.491   1.910  11.862  0.3481  0.2516 -0.2432
 7827TIP3    H147676   2.410   1.908  11.912  0.7165 -1.2604  0.3460
 7827TIP3    H247677   2.534   1.827  11.882  0.1519 -0.8498 -3.6649
 7828TIP3   OH247678   4.583   4.810  12.697 -0.0511 -0.2696  0.4540
 7828TIP3    H147679   4.677   4.795  12.701 -0.1101 -1.3471 -1.0912
 7828TIP3    H247680   4.551   4.785  12.783  0.9785 -0.7483  0.7203
 7829TIP3   OH247681   5.284   6.091  11.446  0.2392 -0.5985 -0.2678
 7829TIP3    H147682   5.230   6.156  11.402  1.1580 -0.0007 -0.5374
 7829TIP3    H247683   5.255   6.007  11.409 -1.1141 -0.3828  0.2586
 7830TIP3   OH247684   5.627   3.050  10.854 -0.1619 -0.1984 -0.1465
 7830TIP3    H147685   5.618   3.038  10.760  0.1228 -0.7903 -0.0988
 7830TIP3    H247686   5.599   2.967  10.892 -2.4293  0.7454  0.4234
 7831TIP3   OH247687   3.578   5.519  13.141 -0.2943 -0.1377 -0.1529
 7831TIP3    H147688   3.658   5.555  13.179 -1.1210  0.2282  1.2869
 7831TIP3    H247689   3.609   5.467  13.067  1.0724  2.4670 -1.5828
 7832TIP3   OH247690   1.716   4.129  11.634 -0.2800  0.3331  0.1197
 7832TIP3    H147691   1.654   4.060  11.611 -0.3417  0.2732  0.4610
 7832TIP3    H247692   1.754   4.155  11.551 -1.4584  1.0398 -0.2203
 7833TIP3   OH247693   4.271   3.418  13.000 -0.4133  0.2262 -0.5163
 7833TIP3    H147694   4.325   3.438  13.076  0.0815 -2.4200 -0.0864
 7833TIP3    H247695   4.288   3.490  12.939  0.6215  1.4300  1.1045
 7834TIP3   OH247696   2.818   3.525  11.758 -0.3178  0.0785 -0.2920
 7834TIP3    H147697   2.879   3.572  11.702  0.9087 -0.7064  0.3371
 7834TIP3    H247698   2.828   3.433  11.733 -0.9611 -0.1022  0.0791
 7835TIP3   OH247699   1.981   0.888  10.572 -0.7934 -0.4847 -0.1446
 7835TIP3    H147700   2.052   0.936  10.530 -0.5597 -0.5065  0.2134
 7835TIP3    H247701   1.929   0.955  10.617  0.1180 -0.6403  1.2125
 7836TIP3   OH247702   2.517   6.471  12.444  0.3172 -0.1116  0.3357
 7836TIP3    H147703   2.560   6.532  12.504 -0.6923 -0.2132  1.1983
 7836TIP3    H247704   2.505   6.391  12.497  1.1745 -0.8968 -0.6175
 7837TIP3   OH247705   6.303   7.113  11.380  0.3450 -0.2335 -0.3539
 7837TIP3    H147706   6.260   7.198  11.390 -0.2432 -0.6572  0.9274
 7837TIP3    H247707   6.250   7.067  11.315 -1.4419 -0.8791  1.4549
 7838TIP3   OH247708   4.364   7.104  11.769  0.5502  0.3117  0.0002
 7838TIP3    H147709   4.284   7.092  11.717  0.1328  0.8682  0.5021
 7838TIP3    H247710   4.417   7.165  11.717  0.4274  0.3475 -0.0839
 7839TIP3   OH247711   6.466   6.498  11.475  0.3517 -0.1085 -0.2375
 7839TIP3    H147712   6.449   6.427  11.536  0.2197  0.1372  0.0115
 7839TIP3    H247713   6.491   6.572  11.530  1.0728 -0.1249 -0.5244
 7840TIP3   OH247714   6.541   2.252  12.266 -0.4371  0.4050 -0.5824
 7840TIP3    H147715   6.550   2.175  12.210  0.0520 -0.3336  0.4755
 7840TIP3    H247716   6.623   2.256  12.316 -0.5416  1.4868 -0.4652
 7841TIP3   OH247717   5.445   0.096  11.641 -0.1704  0.0843  0.2238
 7841TIP3    H147718   5.384   0.154  11.687 -0.3851 -0.2788  0.4029
 7841TIP3    H247719   5.395   0.016  11.627  0.6595 -0.6982  1.5034
 7842TIP3   OH247720   5.348   5.139  10.610  0.2145 -0.0729 -0.0854
 7842TIP3    H147721   5.261   5.104  10.590  0.6394 -0.4338 -1.4327
 7842TIP3    H247722   5.332   5.226  10.646 -0.7890 -0.9940  1.8209
 7843TIP3   OH247723   1.399   3.532  13.595 -0.0166  0.2249  0.5364
 7843TIP3    H147724   1.432   3.606  13.645 -0.2784  0.6486  0.0831
 7843TIP3    H247725   1.478   3.488  13.563  0.1406  0.2019  0.9539
 7844TIP3   OH247726   2.299   5.242  11.856 -0.0347  0.5019  0.2997
 7844TIP3    H147727   2.231   5.201  11.801 -0.5571 -0.4258  1.5778
 7844TIP3    H247728   2.303   5.333  11.826 -0.2958  0.0284 -1.2605
 7845TIP3   OH247729   3.086   3.927  11.418  0.2277 -0.3151 -0.1835
 7845TIP3    H147730   3.013   3.878  11.381 -0.3391 -0.0414  0.5494
 7845TIP3    H247731   3.136   3.956  11.342  0.8946 -2.4676 -0.6399
 7846TIP3   OH247732   7.147   4.556  10.352 -0.8809  0.0909 -0.4948
 7846TIP3    H147733   7.197   4.559  10.434 -1.6398  1.1861 -0.0406
 7846TIP3    H247734   7.184   4.627  10.299  0.4336 -1.3770 -1.6407
 7847TIP3   OH247735   5.125   6.852  11.939  0.5352 -0.2655 -0.0619
 7847TIP3    H147736   5.106   6.848  11.845 -1.0126 -1.8844  0.2695
 7847TIP3    H247737   5.044   6.885  11.979  1.3388  0.8750  0.6971
 7848TIP3   OH247738   0.689   3.237  10.539  0.3976  0.2092 -0.0388
 7848TIP3    H147739   0.760   3.267  10.482 -1.4956 -0.1534 -2.8322
 7848TIP3    H247740   0.609   3.265  10.493 -1.4044  2.9300  4.1788
 7849TIP3   OH247741   0.368   1.611  11.576  0.1302 -0.0955  0.4701
 7849TIP3    H147742   0.339   1.533  11.624 -1.7446  0.1723 -0.1306
 7849TIP3    H247743   0.397   1.577  11.491 -1.3070 -0.1246 -0.0407
 7850TIP3   OH247744   0.390   7.638  13.549 -0.1614  0.2173  0.3220
 7850TIP3    H147745   0.301   7.670  13.567  0.1877  1.4691 -0.0353
 7850TIP3    H247746   0.424   7.700  13.484  1.2339  0.2095  1.0185
 7851TIP3   OH247747   1.633   0.357  10.713  0.0111 -0.5382  0.7349
 7851TIP3    H147748   1.712   0.392  10.672 -0.3247 -0.0418  0.4978
 7851TIP3    H247749   1.618   0.273  10.670 -1.2550  0.6884 -1.3996
 7852TIP3   OH247750   6.568   7.500  11.133 -0.1984 -0.0084 -0.1102
 7852TIP3    H147751   6.562   7.594  11.114 -1.2144  0.3295  1.5984
 7852TIP3    H247752   6.661   7.480  11.124  0.1954  1.4039  0.4462
 7853TIP3   OH247753   7.465   1.472  11.343 -0.1279  0.2574 -0.0816
 7853TIP3    H147754   7.499   1.435  11.262 -0.1452  0.7503 -0.3161
 7853TIP3    H247755   7.454   1.396  11.401  2.9410  0.2175  0.6112
 7854TIP3   OH247756   6.817   0.501  12.099 -0.6954  0.3436 -0.3376
 7854TIP3    H147757   6.851   0.498  12.010  0.5134 -0.8325  0.1275
 7854TIP3    H247758   6.858   0.579  12.137  0.3557 -0.2582 -0.2216
 7855TIP3   OH247759   4.935   1.630  11.912 -0.0904 -0.0608  0.9158
 7855TIP3    H147760   5.015   1.633  11.964  0.3434  0.9246  0.2227
 7855TIP3    H247761   4.864   1.635  11.976  0.2834 -3.0370  1.7354
 7856TIP3   OH247762   6.867   5.264  13.295 -0.0146  0.1520 -0.1424
 7856TIP3    H147763   6.933   5.195  13.285 -0.7803 -0.4749 -0.9879
 7856TIP3    H247764   6.783   5.218  13.294 -0.4750  0.8930  1.3946
 7857TIP3   OH247765   6.452   0.603  12.659  0.2156 -0.1448 -0.0374
 7857TIP3    H147766   6.413   0.685  12.629 -0.1086 -0.8753 -1.7566
 7857TIP3    H247767   6.379   0.557  12.702  0.5386  0.6723  1.4354
 7858TIP3   OH247768   6.724   5.923  12.951  0.0507  0.4013  0.1993
 7858TIP3    H147769   6.767   5.947  13.033 -0.3703  0.7764  0.3157
 7858TIP3    H247770   6.734   5.999  12.894  0.1938  0.2067 -0.0353
 7859TIP3   OH247771   5.763   0.925  12.123  0.4030 -0.1408  0.2405
 7859TIP3    H147772   5.757   0.878  12.206 -1.0151 -0.6958 -0.1444
 7859TIP3    H247773   5.793   0.860  12.060 -0.0852 -0.1494  0.0095
 7860TIP3   OH247774   6.621   7.291  11.582  0.1357 -0.3756  0.4130
 7860TIP3    H147775   6.552   7.328  11.636 -0.6444 -2.0234  0.6117
 7860TIP3    H247776   6.634   7.355  11.512 -2.3136 -0.4514 -0.1918
 7861TIP3   OH247777   2.010   2.340  13.232  0.4804 -0.2803  0.1793
 7861TIP3    H147778   1.948   2.362  13.163  1.8923  1.1775 -0.6876
 7861TIP3    H247779   1.965   2.274  13.285 -0.8402 -1.0796 -1.8214
 7862TIP3   OH247780   0.812   6.322  10.317  0.2805  0.2429 -0.1306
 7862TIP3    H147781   0.738   6.308  10.375 -0.7529  0.5859 -1.3244
 7862TIP3    H247782   0.801   6.411  10.283  0.7823  0.0159 -0.9393
 7863TIP3   OH247783   2.907   2.471  10.957 -0.5320  0.0999 -0.5506
 7863TIP3    H147784   2.879   2.490  11.046 -3.6156  0.1578 -1.4209
 7863TIP3    H247785   2.964   2.544  10.933 -0.7692  0.7857  0.8954
 7864TIP3   OH247786   5.489   6.437  11.314  0.6666  0.0235 -0.4483
 7864TIP3    H147787   5.405   6.483  11.306  1.0178  0.5513 -1.2254
 7864TIP3    H247788   5.490   6.405  11.404 -1.0902 -1.3990 -0.8556
 7865TIP3   OH247789   2.456   6.809  10.524 -0.1925 -0.1409 -0.2813
 7865TIP3    H147790   2.402   6.885  10.541  1.2210  0.6470  0.9055
 7865TIP3    H247791   2.515   6.803  10.600  0.4544 -1.7727 -0.8533
 7866TIP3   OH247792   7.302   1.843  10.534 -0.5024 -0.0538 -0.3079
 7866TIP3    H147793   7.227   1.797  10.497 -0.8873  0.6627 -0.4414
 7866TIP3    H247794   7.266   1.889  10.610  0.3832 -1.9526  1.3389
 7867TIP3   OH247795   6.192   3.183  11.437 -0.4766  0.1277 -0.1845
 7867TIP3    H147796   6.218   3.104  11.484  0.4864  0.3698 -0.2861
 7867TIP3    H247797   6.193   3.157  11.345  0.6194  0.4451 -0.2816
 7868TIP3   OH247798   1.598   1.872  11.934  0.5455  0.1289  0.2184
 7868TIP3    H147799   1.645   1.942  11.888  0.8561 -0.5961 -0.5855
 7868TIP3    H247800   1.515   1.865  11.888 -0.1043  0.9543  1.2239
 7869TIP3   OH247801   0.904   7.351  10.992 -0.0306  0.2709  0.0255
 7869TIP3    H147802   0.866   7.384  11.074  0.1130 -2.3452  1.2292
 7869TIP3    H247803   0.983   7.306  11.019 -0.3103 -1.1850 -1.4663
 7870TIP3   OH247804   2.564   7.530  10.543  0.4590  0.6368 -0.0613
 7870TIP3    H147805   2.503   7.456  10.536  0.1876  0.8690 -0.1509
 7870TIP3    H247806   2.641   7.503  10.492 -0.4209  1.2177 -1.7725
 7871TIP3   OH247807   7.680   5.533  12.290  0.0652 -0.0410 -0.1337
 7871TIP3    H147808   7.612   5.585  12.333  0.1580 -0.1889  0.1968
 7871TIP3    H247809   7.667   5.444  12.324 -0.0471 -0.2269 -0.6364
 7872TIP3   OH247810   1.316   0.085  10.894 -0.0984  1.2715  0.2589
 7872TIP3    H147811   1.234   0.132  10.907 -0.0376  1.3423  0.3899
 7872TIP3    H247812   1.362   0.093  10.978 -0.1750  0.8131  0.3477
 7873TIP3   OH247813   5.839   5.858  11.733 -0.5496  0.2662  0.1338
 7873TIP3    H147814   5.914   5.858  11.792 -1.0555 -0.4964  0.7798
 7873TIP3    H247815   5.844   5.943  11.689  0.7750  0.1700  0.0490
 7874TIP3   OH247816   1.657   5.167  12.466 -0.0449  0.0733 -0.3150
 7874TIP3    H147817   1.687   5.243  12.416 -1.2877  0.6313 -0.2650
 7874TIP3    H247818   1.648   5.200  12.556  2.5760 -1.0276  0.4490
 7875TIP3   OH247819   1.784   2.359  12.570  0.4418  0.1559  0.0047
 7875TIP3    H147820   1.788   2.413  12.491 -0.9687 -0.7489 -0.7243
 7875TIP3    H247821   1.785   2.269  12.537 -2.2716 -0.2600  0.7998
 7876TIP3   OH247822   3.525   3.896  10.459 -0.0567 -0.1105 -0.5206
 7876TIP3    H147823   3.447   3.908  10.404 -1.1191 -1.3648  0.6525
 7876TIP3    H247824   3.568   3.982  10.458 -2.1958  1.0521 -0.0824
 7877TIP3   OH247825   6.396   0.758  12.991 -0.6369 -0.0304 -0.3911
 7877TIP3    H147826   6.365   0.686  13.046  2.1863 -0.4413  0.8746
 7877TIP3    H247827   6.341   0.755  12.913 -2.4970 -1.6850  0.8976
 7878TIP3   OH247828   4.811   5.809  11.316 -0.3986  0.4474  0.5715
 7878TIP3    H147829   4.787   5.902  11.319  2.8141  1.4748 -0.5468
 7878TIP3    H247830   4.879   5.805  11.249  0.6805 -2.4561  1.6855
 7879TIP3   OH247831   1.062   2.097  13.263 -0.5852  0.2674 -0.0006
 7879TIP3    H147832   0.988   2.142  13.303  0.1899 -0.5554  2.5644
 7879TIP3    H247833   1.044   2.004  13.277  1.2241  0.0619  1.3816
 7880TIP3   OH247834   0.989   4.418  11.516 -0.4759 -0.1831 -0.1023
 7880TIP3    H147835   1.014   4.498  11.563 -0.3734  0.0502 -0.5439
 7880TIP3    H247836   1.042   4.420  11.436  0.0862 -1.0810  0.2292
 7881TIP3   OH247837   3.514   6.788  11.808  0.3836  0.2265 -0.7029
 7881TIP3    H147838   3.559   6.870  11.828  0.4206  0.1404 -0.4195
 7881TIP3    H247839   3.584   6.722  11.812  0.0813 -0.0394  0.6542
 7882TIP3   OH247840   1.728   2.515  10.387 -0.3695 -0.0320 -0.1937
 7882TIP3    H147841   1.795   2.453  10.414  0.0760 -0.0280 -1.2360
 7882TIP3    H247842   1.746   2.594  10.438 -1.3013 -0.9102  1.5801
 7883TIP3   OH247843   1.670   4.085  13.459  0.3429 -0.1585 -0.3780
 7883TIP3    H147844   1.588   4.049  13.426  1.8307 -1.3435 -3.1432
 7883TIP3    H247845   1.724   4.009  13.479  0.8857  0.5956  1.2026
 7884TIP3   OH247846   4.694   4.705  11.952 -0.0348  0.4448  0.0043
 7884TIP3    H147847   4.744   4.668  12.025 -1.3702 -0.2406  0.6125
 7884TIP3    H247848   4.667   4.629  11.901 -3.7837  0.2921  1.8905
 7885TIP3   OH247849   6.911   1.747  13.398  0.2185 -0.0076  0.1499
 7885TIP3    H147850   6.889   1.759  13.305 -0.7270 -0.3684  0.3160
 7885TIP3    H247851   6.888   1.656  13.417 -3.9542  1.1183  1.7951
 7886TIP3   OH247852   6.905   5.950  11.693 -0.5376 -0.5293  0.1156
 7886TIP3    H147853   6.913   5.898  11.774  0.1714  0.9221  1.0063
 7886TIP3    H247854   6.810   5.961  11.682 -0.6940  2.1642  2.7593
 7887TIP3   OH247855   1.482   0.199  11.804 -0.0860  0.5195 -0.3005
 7887TIP3    H147856   1.440   0.266  11.750 -0.2851 -1.1157 -2.3313
 7887TIP3    H247857   1.414   0.169  11.864 -0.6708  0.5927 -0.9147
 7888TIP3   OH247858   5.818   4.619  12.191 -0.2737 -0.1440 -0.8276
 7888TIP3    H147859   5.766   4.636  12.270 -0.8892  1.8329 -1.5870
 7888TIP3    H247860   5.896   4.574  12.223 -2.1107 -2.6628  0.4225
 7889TIP3   OH247861   3.008   1.286  12.309  0.4626  0.6936 -0.4970
 7889TIP3    H147862   2.952   1.333  12.247  0.4718  1.4849  0.0738
 7889TIP3    H247863   3.076   1.349  12.333  1.5321 -0.2010 -1.0666
 7890TIP3   OH247864   7.479   5.118  11.334 -0.3009  1.1317  0.4031
 7890TIP3    H147865   7.404   5.129  11.393 -1.4249 -0.5818 -0.6523
 7890TIP3    H247866   7.448   5.149  11.249  0.6930  1.8112  0.2751
 7891TIP3   OH247867   4.674   2.094  12.548 -0.2093  0.1809  0.8482
 7891TIP3    H147868   4.719   2.015  12.579  0.0005  0.1129  0.3662
 7891TIP3    H247869   4.591   2.093  12.595 -1.6430 -2.0672 -1.4724
 7892TIP3   OH247870   7.134   6.841  11.682 -0.0353  0.4067  1.2248
 7892TIP3    H147871   7.220   6.800  11.690 -1.2331 -2.3904  1.2569
 7892TIP3    H247872   7.079   6.794  11.745 -2.7874 -1.7533 -2.3417
 7893TIP3   OH247873   6.491   5.431  12.164 -0.4533  0.2057  0.5305
 7893TIP3    H147874   6.584   5.415  12.183 -0.3805 -0.7005 -0.5198
 7893TIP3    H247875   6.458   5.474  12.243  1.4302  2.9163  0.0051
 7894TIP3   OH247876   1.503   3.120  11.367 -0.2704 -0.3834 -0.7669
 7894TIP3    H147877   1.586   3.146  11.407 -0.0868 -1.5843 -0.3287
 7894TIP3    H247878   1.472   3.199  11.323 -0.0908  0.7724  1.0898
 7895TIP3   OH247879   6.220   2.413  11.419  0.0335  0.4051  0.8114
 7895TIP3    H147880   6.194   2.342  11.360  0.7908 -0.7932  1.8445
 7895TIP3    H247881   6.202   2.493  11.371 -1.4599 -0.4729 -0.1481
 7896TIP3   OH247882   0.107   7.611  10.998 -0.0830  0.2638 -0.1423
 7896TIP3    H147883   0.127   7.702  10.978 -0.3971  0.0915 -1.3575
 7896TIP3    H247884   0.148   7.594  11.082 -1.8941  2.1722  1.2213
 7897TIP3   OH247885   2.047   1.926  10.611 -0.1267 -0.2760 -0.5205
 7897TIP3    H147886   2.079   2.013  10.635 -0.4547 -0.1302 -0.6156
 7897TIP3    H247887   2.028   1.933  10.517 -2.0155  0.1258 -0.1492
 7898TIP3   OH247888   1.357   6.099  12.325 -0.4236 -0.2393 -0.4815
 7898TIP3    H147889   1.356   6.033  12.394 -1.7183  0.5237  0.2676
 7898TIP3    H247890   1.287   6.160  12.349  0.1081  0.8804 -1.6626
 7899TIP3   OH247891   2.185   0.222  11.562 -0.0036  0.3086 -0.5512
 7899TIP3    H147892   2.189   0.277  11.640 -1.5770 -0.5501  0.1886
 7899TIP3    H247893   2.200   0.282  11.489 -0.7492  1.5602  0.2877
 7900TIP3   OH247894   2.562   3.309  11.234  0.2094  0.0293 -0.0044
 7900TIP3    H147895   2.569   3.366  11.157  1.2460 -0.4372 -0.2757
 7900TIP3    H247896   2.499   3.353  11.291 -0.8796  0.1941 -1.2771
 7901TIP3   OH247897   1.226   2.610  11.854  0.3265 -0.2230  1.0469
 7901TIP3    H147898   1.176   2.539  11.814 -0.5367 -0.2792  2.1952
 7901TIP3    H247899   1.281   2.643  11.783 -1.9513  0.4108 -0.5169
 7902TIP3   OH247900   6.615   3.617  11.250  0.5513 -0.3575 -0.0623
 7902TIP3    H147901   6.623   3.694  11.306  0.1923 -0.2938 -0.0929
 7902TIP3    H247902   6.645   3.647  11.164 -0.8947  0.1658 -0.4234
 7903TIP3   OH247903   4.054   0.742  11.587 -0.2642 -0.1768  0.0587
 7903TIP3    H147904   4.060   0.812  11.652  3.4022  1.4931 -1.7577
 7903TIP3    H247905   3.983   0.768  11.530  1.0328  2.2614 -0.6015
 7904TIP3   OH247906   6.007   5.982  10.703 -0.1353 -0.1780  0.0836
 7904TIP3    H147907   6.027   6.066  10.745  1.2293  0.0893 -0.9927
 7904TIP3    H247908   5.917   5.963  10.727  0.3244  0.3256  2.4421
 7905TIP3   OH247909   6.831   3.418  10.964  0.2274  0.3736  0.1889
 7905TIP3    H147910   6.905   3.360  10.943  0.0661  0.3975 -0.4408
 7905TIP3    H247911   6.801   3.451  10.880 -0.5064  0.3662  0.4404
 7906TIP3   OH247912   3.504   1.846  11.211 -0.0057  0.0404  0.1437
 7906TIP3    H147913   3.445   1.823  11.139  0.5498 -0.9743 -0.0037
 7906TIP3    H247914   3.560   1.914  11.176 -0.3670  0.2266 -0.0743
 7907TIP3   OH247915   6.337   3.760  18.309 -0.0065  0.2008  0.3580
 7907TIP3    H147916   6.355   3.834  18.250 -1.2432 -0.2980 -0.7087
 7907TIP3    H247917   6.414   3.704  18.302  0.9710  1.3887  1.2189
 7908TIP3   OH247918   1.554   4.019  11.378 -0.0307 -0.1506 -0.3965
 7908TIP3    H147919   1.637   4.000  11.335 -0.3523 -1.9704 -0.2883
 7908TIP3    H247920   1.518   4.093  11.330  3.0078  2.8210  1.4546
 7909TIP3   OH247921   2.100   4.920  12.959 -0.4181  0.5331  0.2437
 7909TIP3    H147922   2.063   4.832  12.957 -1.1707  0.8495 -0.4524
 7909TIP3    H247923   2.044   4.971  12.900  0.2525  1.3798  0.3155
 7910TIP3   OH247924   5.553   2.168  11.380 -0.2041  0.6470 -0.2860
 7910TIP3    H147925   5.502   2.106  11.327 -2.0090  1.0717  0.8503
 7910TIP3    H247926   5.542   2.252  11.336  0.6268  0.5159 -0.7567
 7911TIP3   OH247927   4.920   6.521  11.123  0.4756 -0.1792  0.2474
 7911TIP3    H147928   4.875   6.494  11.203  2.6509 -0.4457  1.4614
 7911TIP3    H247929   4.853   6.518  11.055 -1.7168  1.0312  2.2192
 7912TIP3   OH247930   0.918   3.758  10.576  0.1258 -0.3611  0.1788
 7912TIP3    H147931   0.855   3.824  10.603  0.3652  0.0079 -0.1557
 7912TIP3    H247932   1.003   3.799  10.592  0.3075  0.5014 -2.5603
 7913TIP3   OH247933   2.031   5.464  11.185  0.7273 -0.4196 -0.3384
 7913TIP3    H147934   1.986   5.445  11.103  0.5587 -3.2823  0.3182
 7913TIP3    H247935   2.060   5.378  11.218 -0.3783  0.3935  3.2489
 7914TIP3   OH247936   4.607   7.602  13.213 -0.4185 -0.2747 -0.3624
 7914TIP3    H147937   4.663   7.577  13.286 -0.6860  0.6173  0.1570
 7914TIP3    H247938   4.577   7.519  13.176  0.3009 -0.7408  0.0802
 7915TIP3   OH247939   5.825   6.393  12.498  0.1129 -0.2925 -0.6129
 7915TIP3    H147940   5.897   6.403  12.561  0.7603 -0.7230 -1.2835
 7915TIP3    H247941   5.862   6.420  12.414 -0.4229 -0.8081 -1.0224
 7916TIP3   OH247942   6.032   4.202  12.994  0.4297 -0.0362 -0.1555
 7916TIP3    H147943   6.049   4.119  13.039  0.3660 -0.1436 -0.3284
 7916TIP3    H247944   6.107   4.257  13.015  0.7598 -0.3431 -0.5228
 7917TIP3   OH247945   1.201   7.091  10.908 -0.0767  0.0903  0.2723
 7917TIP3    H147946   1.225   7.006  10.873 -0.2438  0.0589  0.2325
 7917TIP3    H247947   1.282   7.142  10.906 -0.0871  0.0910 -0.1568
 7918TIP3   OH247948   1.427   2.145  10.593  0.5033  0.4030  0.2773
 7918TIP3    H147949   1.463   2.232  10.612  1.4074  0.1236 -0.1024
 7918TIP3    H247950   1.427   2.140  10.498  2.6432 -0.8731  0.2873
 7919TIP3   OH247951   3.293   0.914  10.512  0.2654 -0.2084  0.4181
 7919TIP3    H147952   3.277   0.910  10.606 -0.0554  1.0702  0.4385
 7919TIP3    H247953   3.351   0.989  10.500 -0.5308  0.2907 -0.4897
 7920TIP3   OH247954   6.516   4.358  11.276 -0.2131  0.2762 -0.0830
 7920TIP3    H147955   6.552   4.299  11.210 -0.5703 -1.2091  1.0011
 7920TIP3    H247956   6.590   4.377  11.334 -0.1257  0.7914 -0.3673
 7921TIP3   OH247957   2.544   3.623  13.095  0.3091 -0.3551 -0.3396
 7921TIP3    H147958   2.524   3.633  13.189  1.0312 -1.1311 -0.0949
 7921TIP3    H247959   2.633   3.589  13.093  0.4203 -0.0336 -1.3317
 7922TIP3   OH247960   2.407   7.290  10.569 -0.6162  0.0612 -0.5886
 7922TIP3    H147961   2.458   7.271  10.491 -1.1749  1.2365 -1.2696
 7922TIP3    H247962   2.316   7.286  10.540 -0.8390  0.2206  0.0673
 7923TIP3   OH247963   7.430   0.963  11.050  0.1134 -0.2615  0.2248
 7923TIP3    H147964   7.523   0.983  11.064  0.0905  0.0180 -0.0103
 7923TIP3    H247965   7.402   0.924  11.133  0.9360 -2.2572 -0.3898
 7924TIP3   OH247966   0.455   6.382  13.414  0.3670  0.1556 -0.0016
 7924TIP3    H147967   0.412   6.317  13.470 -0.5078 -0.8862 -1.7987
 7924TIP3    H247968   0.399   6.459  13.419  0.8404  0.4351  1.3113
 7925TIP3   OH247969   0.971   3.893  12.503 -0.8327  1.0839 -0.3192
 7925TIP3    H147970   0.989   3.972  12.554  0.2006  0.6765 -0.0271
 7925TIP3    H247971   0.878   3.877  12.515 -0.6667  1.1686  1.1985
 7926TIP3   OH247972   7.222   6.707  12.436  0.3500 -0.3749  0.0054
 7926TIP3    H147973   7.207   6.723  12.529  1.6839  0.6020  0.0783
 7926TIP3    H247974   7.296   6.647  12.434  0.8804  0.2829 -0.4278
 7927TIP3   OH247975   3.508   0.459  12.686 -0.4281  0.0779 -0.5312
 7927TIP3    H147976   3.533   0.367  12.691 -0.4975  0.0342 -0.9291
 7927TIP3    H247977   3.455   0.474  12.765  0.0884 -0.0614 -0.1586
 7928TIP3   OH247978   0.668   3.928  12.268 -0.0001 -0.6877  0.5682
 7928TIP3    H147979   0.609   3.854  12.258 -1.4925  0.4372  0.5968
 7928TIP3    H247980   0.682   3.936  12.362 -0.2003 -0.6750  0.5973
 7929TIP3   OH247981   2.823   2.762  12.414 -0.5503  0.1169 -0.4768
 7929TIP3    H147982   2.754   2.697  12.426 -0.4461  0.0499 -0.2426
 7929TIP3    H247983   2.809   2.795  12.325 -1.6885  1.0466  0.0232
 7930TIP3   OH247984   2.521   1.677  11.389  0.9898  0.0490 -0.2656
 7930TIP3    H147985   2.586   1.626  11.437 -0.1470  0.4062  1.7477
 7930TIP3    H247986   2.562   1.762  11.374  1.5697 -0.2629 -0.4595
 7931TIP3   OH247987   3.177   4.303  10.761 -0.1226 -0.1371  0.8183
 7931TIP3    H147988   3.095   4.337  10.724 -0.5673  1.4249  3.0456
 7931TIP3    H247989   3.183   4.214  10.726 -1.3058  0.6396 -1.6103
 7932TIP3   OH247990   4.880   2.349  12.529 -0.4424  0.1171  0.3560
 7932TIP3    H147991   4.794   2.373  12.563  0.2042  1.2293  1.2803
 7932TIP3    H247992   4.912   2.282  12.589  0.2060  1.2452  1.3282
 7933TIP3   OH247993   0.684   4.226  12.192 -0.0509  0.5525 -0.4487
 7933TIP3    H147994   0.733   4.172  12.254 -1.7286 -0.2503  0.2649
 7933TIP3    H247995   0.711   4.194  12.106  0.4120 -0.1051 -0.0650
 7934TIP3   OH247996   2.358   0.089  12.221  0.0575  0.9115  0.8481
 7934TIP3    H147997   2.453   0.101  12.216 -0.0291  1.0506 -2.0839
 7934TIP3    H247998   2.322   0.177  12.213 -0.3450  0.8239  1.6238
 7935TIP3   OH247999   3.632   0.935  12.534 -0.8221 -0.3377 -0.3984
 7935TIP3    H148000   3.572   0.997  12.575 -0.1918  0.6563 -0.9294
 7935TIP3    H248001   3.644   0.867  12.599  0.0614  1.1272  1.0624
 7936TIP3   OH248002   5.740   4.179  10.938 -0.7094  0.2170  0.2154
 7936TIP3    H148003   5.665   4.128  10.911 -0.8580 -0.2779  1.4793
 7936TIP3    H248004   5.816   4.129  10.909 -0.8580  0.3160 -0.3496
 7937TIP3   OH248005   2.752   6.754  11.633 -0.8251 -0.4194  0.1841
 7937TIP3    H148006   2.783   6.663  11.638  2.1610  0.2778 -2.5040
 7937TIP3    H248007   2.829   6.807  11.651 -2.1658  1.6087  0.2372
 7938TIP3   OH248008   4.209   7.404  11.115 -1.0200 -0.6274 -0.3549
 7938TIP3    H148009   4.175   7.425  11.028  2.5046  0.9908 -1.5512
 7938TIP3    H248010   4.285   7.348  11.098  1.2491  1.6944  1.3340
 7939TIP3   OH248011   3.163   7.302  10.928  0.4257  0.1828 -0.2822
 7939TIP3    H148012   3.071   7.310  10.952  0.3417 -0.7309 -0.2668
 7939TIP3    H248013   3.176   7.208  10.912  1.7228  0.0484  1.2695
 7940TIP3   OH248014   6.489   2.624  11.396  0.0182 -0.1198 -0.0729
 7940TIP3    H148015   6.518   2.695  11.453 -0.8887  0.8468 -0.7890
 7940TIP3    H248016   6.487   2.547  11.453 -0.6160  0.7731  1.1475
 7941TIP3   OH248017   5.374   3.194  12.221  0.0963  0.0185 -0.0753
 7941TIP3    H148018   5.434   3.261  12.187 -2.4086  1.6768 -1.5711
 7941TIP3    H248019   5.317   3.174  12.147 -0.6674 -2.1526  1.0238
 7942TIP3   OH248020   2.556   5.300  13.169 -0.1145 -0.0765  0.2441
 7942TIP3    H148021   2.636   5.248  13.162  0.0666  0.0967  0.9510
 7942TIP3    H248022   2.586   5.390  13.177 -0.4065  0.0697 -0.2397
 7943TIP3   OH248023   0.874   1.834  11.070  0.3440 -0.0973  0.7956
 7943TIP3    H148024   0.847   1.918  11.034 -1.4955 -1.5937 -1.6363
 7943TIP3    H248025   0.825   1.825  11.151  0.1659  0.9515  0.8137
 7944TIP3   OH248026   7.469   3.210  10.612  0.1113 -0.4645 -0.0534
 7944TIP3    H148027   7.418   3.190  10.690  1.1255  1.5690  1.2144
 7944TIP3    H248028   7.415   3.273  10.564 -0.1464 -1.0884 -0.5971
 7945TIP3   OH248029   0.742   6.373  13.396 -0.3308  0.6374  0.5236
 7945TIP3    H148030   0.656   6.385  13.437 -1.2275 -0.8940 -0.8263
 7945TIP3    H248031   0.725   6.323  13.317  1.8225  0.2835  0.2171
 7946TIP3   OH248032   2.138   0.525  12.018  0.2685 -0.0605  0.0168
 7946TIP3    H148033   2.049   0.496  12.038  0.4634 -0.0881  0.8792
 7946TIP3    H248034   2.171   0.461  11.955 -0.3416 -0.0071 -0.3670
 7947TIP3   OH248035   7.277   3.087  11.162 -0.2160 -0.2789  0.0427
 7947TIP3    H148036   7.314   3.174  11.148 -0.3966 -0.1265  0.4798
 7947TIP3    H248037   7.220   3.072  11.086 -0.0560 -0.0835 -0.1157
 7948TIP3   OH248038   1.662   6.226  11.107  0.1967  0.6928  0.3242
 7948TIP3    H148039   1.621   6.145  11.080  0.1919  0.6954  0.3242
 7948TIP3    H248040   1.600   6.295  11.082  1.9714  1.1396 -3.6913
 7949TIP3   OH248041   5.697   2.364  12.031  0.1185  0.0543  0.1436
 7949TIP3    H148042   5.756   2.326  12.097 -0.1260 -0.4298  0.0888
 7949TIP3    H248043   5.721   2.319  11.950  0.0381  0.2443  0.0157
 7950TIP3   OH248044   1.228   2.505  12.394 -0.1095 -0.1413 -0.2103
 7950TIP3    H148045   1.292   2.483  12.461  0.3926  2.0720  0.1078
 7950TIP3    H248046   1.238   2.437  12.328  1.1556 -0.9398  0.7551
 7951TIP3   OH248047   6.958   3.290  11.667  0.2127 -0.1733  0.1017
 7951TIP3    H148048   6.993   3.345  11.737  2.5925  1.6581 -2.2987
 7951TIP3    H248049   6.890   3.344  11.626 -0.4650 -0.8185  0.3696
 7952TIP3   OH248050   1.183   5.066  10.331  0.2091 -0.2494 -0.4633
 7952TIP3    H148051   1.101   5.072  10.380  0.5908  3.5660  0.0635
 7952TIP3    H248052   1.169   5.121  10.254  2.1601  0.3556 -0.4476
 7953TIP3   OH248053   2.373   5.307  10.400  0.3807  0.2029 -0.3886
 7953TIP3    H148054   2.460   5.332  10.431  0.8015  0.3773 -1.6420
 7953TIP3    H248055   2.383   5.215  10.374  0.5019  0.5335 -1.5572
 7954TIP3   OH248056   7.650   7.325  11.430  0.7924  0.0873  0.1197
 7954TIP3    H148057   7.641   7.417  11.453 -0.9098  0.0033 -0.1105
 7954TIP3    H248058   7.654   7.279  11.514 -0.7369  0.1878  0.2738
 7955TIP3   OH248059   1.468   2.310  10.194  0.6314 -0.0377  0.0584
 7955TIP3    H148060   1.562   2.298  10.203  0.6249  0.3310  0.6395
 7955TIP3    H248061   1.453   2.402  10.215  0.0977 -0.1814  0.3365
 7956TIP3   OH248062   3.829   5.535  12.869  0.8486  0.4419 -0.0122
 7956TIP3    H148063   3.899   5.480  12.904  1.1326  0.2945 -0.8055
 7956TIP3    H248064   3.752   5.478  12.866  1.0590  0.1818 -0.5091
 7957TIP3   OH248065   1.988   4.391  12.471 -0.0138 -0.0763  0.0433
 7957TIP3    H148066   1.941   4.346  12.541 -1.6234 -0.2757 -1.1160
 7957TIP3    H248067   1.926   4.394  12.398  0.6170  2.5449 -0.4887
 7958TIP3   OH248068   0.214   3.617  12.495 -0.7204  0.3842 -0.5095
 7958TIP3    H148069   0.161   3.646  12.569 -0.8936  0.5168 -0.6834
 7958TIP3    H248070   0.269   3.547  12.531 -2.6861 -1.4589 -0.8542
 7959TIP3   OH248071   4.687   6.960  12.017 -0.5466  0.3529 -0.0240
 7959TIP3    H148072   4.632   6.882  12.009 -1.4507  1.0026 -0.3372
 7959TIP3    H248073   4.660   7.000  12.100 -1.7705  1.5623 -0.9585
 7960TIP3   OH248074   1.731   3.772  11.375  0.1621 -0.5065 -0.2442
 7960TIP3    H148075   1.788   3.767  11.299 -0.6238 -1.6092 -0.7843
 7960TIP3    H248076   1.680   3.691  11.373 -0.6832 -0.0340  0.8034
 7961TIP3   OH248077   2.654   3.722  12.240 -0.3931 -0.2582 -0.3491
 7961TIP3    H148078   2.674   3.814  12.224 -2.3344  0.1666 -0.6040
 7961TIP3    H248079   2.651   3.682  12.153 -3.8359  0.4741 -0.7265
 7962TIP3   OH248080   3.032   5.817  12.030  0.3057  0.4903 -0.2517
 7962TIP3    H148081   3.026   5.739  11.976 -0.2927  0.8624 -0.7331
 7962TIP3    H248082   3.126   5.835  12.035  0.4417 -0.1908 -0.2257
 7963TIP3   OH248083   7.491   3.018  12.089  0.0542 -0.2289  0.2196
 7963TIP3    H148084   7.582   2.994  12.070 -0.0265 -0.7655  0.4960
 7963TIP3    H248085   7.439   2.953  12.042 -0.1597 -1.3573  1.9414
 7964TIP3   OH248086   0.507   1.530  12.904  0.1821  0.4549  0.5242
 7964TIP3    H148087   0.432   1.585  12.927  0.5897  0.7649  1.1222
 7964TIP3    H248088   0.484   1.443  12.936 -0.1455  0.4303  0.2328
 7965TIP3   OH248089   2.546   3.049  12.318  0.3695 -0.2839 -0.4426
 7965TIP3    H148090   2.525   2.968  12.365  0.2248 -0.5848 -1.0188
 7965TIP3    H248091   2.603   3.022  12.247  0.1350  0.0881 -0.7780
 7966TIP3   OH248092   1.192   4.686  13.059 -0.5868  0.7220 -0.1858
 7966TIP3    H148093   1.138   4.613  13.088 -1.8389  1.6043 -0.2468
 7966TIP3    H248094   1.191   4.680  12.964  0.6156 -0.0807 -0.1769
 7967TIP3   OH248095   2.072   7.029  12.384 -0.5191  0.4909 -0.2070
 7967TIP3    H148096   2.123   7.052  12.306 -3.0531 -1.3203 -2.6034
 7967TIP3    H248097   2.103   6.942  12.409 -0.8323  0.3711 -0.2293
 7968TIP3   OH248098   1.016   0.090  11.459  0.9407  0.8600 -0.1617
 7968TIP3    H148099   0.984   0.180  11.466 -2.8311 -0.1777 -1.8007
 7968TIP3    H248100   0.975   0.044  11.533 -0.6060 -0.2846 -1.6549
 7969TIP3   OH248101   7.602   7.345  12.600  0.2604 -0.3312 -0.6706
 7969TIP3    H148102   7.672   7.322  12.540  2.3025  0.3882  1.2911
 7969TIP3    H248103   7.616   7.288  12.676 -0.2849  0.9216  0.4160
 7970TIP3   OH248104   1.500   5.048  10.797  0.3880  0.2218  0.0762
 7970TIP3    H148105   1.430   5.102  10.835  0.3937  0.1078  0.2516
 7970TIP3    H248106   1.512   4.978  10.860  0.6942  0.2661  0.0680
 7971TIP3   OH248107   1.242   4.381  12.099 -0.4750  0.1058  0.0556
 7971TIP3    H148108   1.219   4.289  12.094 -1.0473  0.1198  1.9299
 7971TIP3    H248109   1.227   4.414  12.010  2.8733 -2.2571 -1.6180
 7972TIP3   OH248110   0.351   7.285  11.537  0.2117  0.3562 -0.4201
 7972TIP3    H148111   0.286   7.279  11.608 -0.2668  0.7783 -0.8150
 7972TIP3    H248112   0.367   7.195  11.512 -1.6980  0.2902 -1.6272
 7973TIP3   OH248113   2.208   1.040  12.231  0.7972  0.0324 -0.1296
 7973TIP3    H148114   2.143   1.013  12.295  1.7959 -1.8125  0.1661
 7973TIP3    H248115   2.233   0.960  12.185  1.6885  0.9506 -1.3497
 7974TIP3   OH248116   6.720   2.103  11.222 -0.4915  0.2004 -0.2736
 7974TIP3    H148117   6.800   2.076  11.266 -0.7787 -0.7598 -0.3196
 7974TIP3    H248118   6.747   2.128  11.134 -0.1709  0.3899 -0.1210
 7975TIP3   OH248119   0.416   2.961  10.566  0.1615  0.2103 -0.1812
 7975TIP3    H148120   0.354   2.944  10.638  0.6229 -1.2538 -0.0828
 7975TIP3    H248121   0.413   3.056  10.554  0.0736  0.5131  1.7845
 7976TIP3   OH248122   2.748   6.267  12.574 -0.0426 -0.2575  0.3793
 7976TIP3    H148123   2.660   6.259  12.609 -0.3983  1.9697  0.1344
 7976TIP3    H248124   2.737   6.266  12.479 -0.1861  2.4302  0.2816
 7977TIP3   OH248125   6.598   5.046  12.992 -0.1276  0.3050  0.4375
 7977TIP3    H148126   6.618   5.060  12.899 -0.2764  2.1775  0.6458
 7977TIP3    H248127   6.600   4.951  13.003 -0.6865  0.0052 -1.6078
 7978TIP3   OH248128   4.336   2.142  11.114  0.3880 -0.2745  0.3740
 7978TIP3    H148129   4.258   2.142  11.170 -0.3199 -0.6679 -0.5777
 7978TIP3    H248130   4.312   2.085  11.041  0.8041  1.2477 -0.9899
 7979TIP3   OH248131   2.598   3.984  12.725  0.1206 -0.0197 -0.4252
 7979TIP3    H148132   2.591   3.910  12.664  1.4139  1.3211 -2.2886
 7979TIP3    H248133   2.601   3.942  12.811 -3.1829 -1.9245 -1.0556
 7980TIP3   OH248134   5.975   7.332  12.335 -0.0351  0.6308  0.3700
 7980TIP3    H148135   5.921   7.411  12.338  0.2775  0.9077 -0.6746
 7980TIP3    H248136   5.937   7.280  12.265  0.1909  0.1836  0.5800
 7981TIP3   OH248137   5.958   2.859  11.028  0.4372  0.9611 -0.1944
 7981TIP3    H148138   5.916   2.784  11.069  1.7846 -0.0070 -0.5262
 7981TIP3    H248139   5.908   2.873  10.947  0.9835 -0.4703 -0.8151
 7982TIP3   OH248140   0.903   5.305  10.196 -0.0222 -0.0955  0.6028
 7982TIP3    H148141   0.940   5.245  10.131 -2.4415 -0.0993 -0.8929
 7982TIP3    H248142   0.968   5.375  10.204  0.4715 -0.2039 -1.7189
 7983TIP3   OH248143   4.085   6.418  12.399 -0.2876  0.2155 -0.3767
 7983TIP3    H148144   4.162   6.364  12.419  0.0227  0.9229  0.3973
 7983TIP3    H248145   4.108   6.464  12.319  0.9999  2.0397  0.9692
 7984TIP3   OH248146   3.015   2.569  12.443 -0.0859 -0.2261 -0.6799
 7984TIP3    H148147   2.972   2.654  12.432  0.4662  0.1600 -0.0097
 7984TIP3    H248148   2.963   2.508  12.391 -0.0282  0.6671 -1.8305
 7985TIP3   OH248149   0.510   4.884  11.794 -0.0793  0.3700  0.0159
 7985TIP3    H148150   0.415   4.896  11.793 -0.3790 -1.1588  2.2584
 7985TIP3    H248151   0.524   4.806  11.847  2.4326  0.2517 -0.6817
 7986TIP3   OH248152   7.464   4.018  11.226  0.4199 -0.0638 -0.1593
 7986TIP3    H148153   7.468   4.112  11.211 -1.4021  0.1814  0.5538
 7986TIP3    H248154   7.429   3.982  11.144  0.4643 -0.0430 -0.1878
 7987TIP3   OH248155   5.122   5.415  10.956  0.1947 -0.0451 -0.6070
 7987TIP3    H148156   5.046   5.360  10.935 -0.5674  1.3880 -1.7968
 7987TIP3    H248157   5.154   5.381  11.039 -1.7209 -0.7371 -0.1062
 7988TIP3   OH248158   5.324   2.447  11.811  0.1940  0.0867 -0.0925
 7988TIP3    H148159   5.257   2.511  11.833 -0.3530 -0.4874 -0.0505
 7988TIP3    H248160   5.311   2.429  11.718 -1.6469 -2.1728  0.5066
 7989TIP3   OH248161   6.305   7.463  11.013 -0.1324  0.2570 -0.0881
 7989TIP3    H148162   6.385   7.470  11.066 -0.8723  2.3147  0.8745
 7989TIP3    H248163   6.335   7.471  10.923  0.8929 -0.5911  0.1639
 7990TIP3   OH248164   5.892   2.252  10.694 -0.2147  0.5042 -0.8207
 7990TIP3    H148165   5.919   2.167  10.658 -0.3887  0.4219 -0.7591
 7990TIP3    H248166   5.946   2.262  10.773  0.5515  0.9317 -1.3797
 7991TIP3   OH248167   4.677   6.193  12.978  0.1436  0.0868 -0.4406
 7991TIP3    H148168   4.595   6.145  12.964  2.2361 -3.3295 -2.8063
 7991TIP3    H248169   4.724   6.141  13.044  0.1358  2.6075  1.7320
 7992TIP3   OH248170   2.281   4.777  12.061  0.8009 -0.0669 -0.5481
 7992TIP3    H148171   2.288   4.747  12.151 -0.7044  1.1198 -0.0017
 7992TIP3    H248172   2.370   4.806  12.038  0.8409  1.2796  1.1732
 7993TIP3   OH248173   1.408   4.615  11.693 -0.4874 -0.0336 -0.0080
 7993TIP3    H148174   1.471   4.590  11.760 -0.9305 -0.3110  0.3100
 7993TIP3    H248175   1.334   4.557  11.707 -0.1576 -0.8380 -1.4336
 7994TIP3   OH248176   3.051   3.605  11.601 -0.2755  0.5089 -0.3146
 7994TIP3    H148177   3.005   3.684  11.573  1.7243  2.0422  0.5701
 7994TIP3    H248178   3.127   3.636  11.649  1.8477 -1.8836 -1.8337
 7995TIP3   OH248179   1.435   2.222  12.422 -0.3987 -0.2735  0.0450
 7995TIP3    H148180   1.409   2.311  12.446 -0.8822 -0.1460 -0.8901
 7995TIP3    H248181   1.510   2.203  12.477  0.2795  1.0615 -0.3845
 7996TIP3   OH248182   7.261   4.766  10.222  0.1086  0.2417 -0.5388
 7996TIP3    H148183   7.289   4.817  10.146  0.3042  0.5611 -0.2556
 7996TIP3    H248184   7.272   4.825  10.297 -0.7831  0.1786 -0.3517
 7997TIP3   OH248185   2.197   1.032  10.476 -0.7231  0.2637 -0.4645
 7997TIP3    H148186   2.267   1.060  10.536 -1.1814 -0.4081  0.4012
 7997TIP3    H248187   2.169   1.113  10.433 -1.8680  1.1666  1.8401
 7998TIP3   OH248188   3.490   0.390  10.358  0.3868  0.1673  0.3006
 7998TIP3    H148189   3.421   0.352  10.412  0.2498  1.8229  1.3699
 7998TIP3    H248190   3.461   0.480  10.343  2.2775  0.9012  0.7545
 7999TIP3   OH248191   1.218   2.326  12.180 -0.3643  0.3500  0.0279
 7999TIP3    H148192   1.137   2.290  12.217 -0.5664  0.6580 -0.1192
 7999TIP3    H248193   1.238   2.268  12.106  1.1690 -1.5710  1.8144
 8000TIP3   OH248194   1.209   2.912  12.734  0.0016 -0.3698  0.1631
 8000TIP3    H148195   1.132   2.931  12.788 -0.5324 -1.5866 -0.1542
 8000TIP3    H248196   1.191   2.958  12.651 -1.3414 -2.2193 -0.6429
 8001TIP3   OH248197   4.788   1.302  11.560 -0.5199 -0.9002  0.0654
 8001TIP3    H148198   4.710   1.353  11.580 -0.1634 -0.2797 -0.0976
 8001TIP3    H248199   4.849   1.321  11.632  0.8509  1.5069 -1.5921
 8002TIP3   OH248200   5.510   0.134  12.069  0.3906 -0.1055 -0.0808
 8002TIP3    H148201   5.537   0.147  12.160 -0.4240 -1.4868  0.3997
 8002TIP3    H248202   5.416   0.154  12.068  0.5915  0.8515 -0.8443
 8003TIP3   OH248203   6.747   1.575  11.537 -0.0434 -0.4757  0.0229
 8003TIP3    H148204   6.691   1.624  11.477  0.2180 -0.8873 -0.5684
 8003TIP3    H248205   6.817   1.636  11.561 -1.5813  0.5872  2.0391
 8004TIP3   OH248206   0.712   3.345  12.595 -0.3939  0.0460  0.0707
 8004TIP3    H148207   0.651   3.320  12.663  0.8706  0.3185  1.3591
 8004TIP3    H248208   0.702   3.440  12.587 -0.0474  0.1078  0.3732
 8005TIP3   OH248209   2.406   2.584  11.362  0.8519 -0.2333  0.6191
 8005TIP3    H148210   2.370   2.496  11.376  1.4958 -0.5945  0.0665
 8005TIP3    H248211   2.329   2.641  11.360  0.2130 -1.0588 -1.0977
 8006TIP3   OH248212   0.517   6.003  11.299 -0.2057 -0.4403 -0.0868
 8006TIP3    H148213   0.458   5.961  11.237 -0.8021 -1.0689  0.8908
 8006TIP3    H248214   0.511   6.096  11.279  0.0349 -0.6699 -1.3271
 8007TIP3   OH248215   0.300   5.553  11.021  0.1221 -0.7007  0.0445
 8007TIP3    H148216   0.390   5.549  10.989 -0.6721 -0.2004 -2.4320
 8007TIP3    H248217   0.267   5.463  11.009 -0.0344 -0.6233 -0.1100
 8008TIP3   OH248218   5.855   0.654  11.990  0.3756 -0.4311 -0.0000
 8008TIP3    H148219   5.831   0.576  11.941  3.8189 -0.4479 -2.0082
 8008TIP3    H248220   5.889   0.621  12.073 -1.5167 -0.7059  0.7196
 8009TIP3   OH248221   7.049   0.327  10.868  0.0350  0.3886  0.4580
 8009TIP3    H148222   7.126   0.276  10.893  0.8319  1.2713 -0.1664
 8009TIP3    H248223   7.083   0.410  10.836 -1.1892  0.8785  0.3495
 8010TIP3   OH248224   1.702   4.219  11.154 -0.0029  0.0588 -0.1182
 8010TIP3    H148225   1.724   4.292  11.096  0.0711  0.8895  0.9385
 8010TIP3    H248226   1.655   4.157  11.097  1.2766  0.1980 -1.3952
 8011TIP3   OH248227   0.852   6.311  10.938  0.2991 -0.0571 -0.1533
 8011TIP3    H148228   0.888   6.396  10.912  0.9644 -0.4768 -0.6563
 8011TIP3    H248229   0.838   6.318  11.033  1.7461  0.1276  0.0682
 8012TIP3   OH248230   1.780   1.295  12.447 -0.6138 -0.2050  0.0981
 8012TIP3    H148231   1.781   1.199  12.436 -2.2154 -0.0517 -1.8883
 8012TIP3    H248232   1.696   1.322  12.410  0.0694  2.0436  0.0992
 8013TIP3   OH248233   5.567   3.240  11.233  0.1136 -0.3334 -0.3285
 8013TIP3    H148234   5.638   3.274  11.287 -0.2794  1.5722 -0.9656
 8013TIP3    H248235   5.507   3.200  11.296  1.0765 -0.7928  0.3304
 8014TIP3   OH248236   5.705   6.009  11.965 -0.1423 -0.7148  0.1903
 8014TIP3    H148237   5.623   5.997  11.917 -1.1897  0.4612  1.6116
 8014TIP3    H248238   5.718   5.927  12.012 -0.6726 -0.7920  0.2088
 8015TIP3   OH248239   3.701   2.865  11.011 -0.0308  0.0071 -0.2464
 8015TIP3    H148240   3.711   2.954  10.978 -0.0907 -0.4532 -1.5723
 8015TIP3    H248241   3.728   2.809  10.938 -1.2099 -1.0729  0.1035
 8016TIP3   OH248242   3.317   2.205  12.505  0.0671  0.1564  0.2284
 8016TIP3    H148243   3.314   2.112  12.485 -2.3374  0.5300 -1.5211
 8016TIP3    H248244   3.286   2.248  12.425  0.0530  2.4102  1.3656
 8017TIP3   OH248245   6.831   5.458  12.224 -0.3250 -0.5389  0.0844
 8017TIP3    H148246   6.835   5.553  12.208  0.9834 -0.3274  1.5498
 8017TIP3    H248247   6.844   5.420  12.137  0.1880  0.6081 -0.3720
 8018TIP3   OH248248   6.512   3.156  11.478  0.2529 -0.0194 -0.2349
 8018TIP3    H148249   6.434   3.107  11.452  0.1609 -0.0654  0.1234
 8018TIP3    H248250   6.485   3.248  11.474  0.7507  0.0748 -1.9900
 8019TIP3   OH248251   3.042   7.527  11.895  0.3292 -0.1637  0.0262
 8019TIP3    H148252   2.986   7.604  11.905 -0.0188 -0.5227  0.9472
 8019TIP3    H248253   3.131   7.561  11.905  0.2128  0.2157 -0.1992
 8020TIP3   OH248254   7.084   2.006  13.322 -0.0439  0.2078 -0.2014
 8020TIP3    H148255   7.026   1.946  13.368  0.5184 -0.4172 -0.2890
 8020TIP3    H248256   7.146   1.949  13.277  1.6163  0.8548  1.1476
 8021TIP3   OH248257   5.168   3.433  11.000  0.2157 -0.1082  0.7712
 8021TIP3    H148258   5.201   3.523  11.003  0.8045 -0.1938 -1.3448
 8021TIP3    H248259   5.237   3.384  10.955 -1.3749 -0.9786 -0.8412
 8022TIP3   OH248260   0.044   2.067  12.042 -0.8257 -0.2204  0.0839
 8022TIP3    H148261   0.127   2.099  12.078 -0.0288 -0.7797 -1.1983
 8022TIP3    H248262  -0.009   2.147  12.031 -0.0807  0.2707 -0.0296
 8023TIP3   OH248263   4.987   4.718  11.282  0.1269  0.1315 -0.3219
 8023TIP3    H148264   5.035   4.762  11.352  1.2800 -0.0417 -0.9800
 8023TIP3    H248265   5.049   4.714  11.209 -0.7262 -0.5537 -1.0292
 8024TIP3   OH248266   2.707   1.134  12.587  0.6106 -0.0377  0.1819
 8024TIP3    H148267   2.727   1.220  12.550  1.7147 -0.2857  0.1629
 8024TIP3    H248268   2.714   1.074  12.512 -2.4757  0.0918 -0.3424
 8025TIP3   OH248269   0.230   3.574  12.240 -0.4558  0.0082 -0.0781
 8025TIP3    H148270   0.144   3.554  12.202 -1.1034  0.9085  0.8474
 8025TIP3    H248271   0.214   3.577  12.334  0.9886 -1.6092  0.2623
 8026TIP3   OH248272   4.642   2.639  11.230  0.4724 -0.6764 -0.1312
 8026TIP3    H148273   4.628   2.613  11.139  0.5714  2.1021 -1.0145
 8026TIP3    H248274   4.563   2.689  11.253  1.5958  0.9450  0.3704
 8027TIP3   OH248275   2.922   6.452  12.540  0.7062 -0.0619  0.6069
 8027TIP3    H148276   2.870   6.372  12.536  0.1016  0.3153  0.8585
 8027TIP3    H248277   2.860   6.520  12.566  0.8483  0.8107 -1.1682
 8028TIP3   OH248278   1.329   3.127  10.778  0.1838 -0.5455  0.1260
 8028TIP3    H148279   1.249   3.074  10.783  0.5184 -1.1014 -0.2862
 8028TIP3    H248280   1.298   3.215  10.758 -0.4972 -0.2277  2.3728
 8029TIP3   OH248281   0.415   5.216  11.098  0.7513 -0.5836  0.7549
 8029TIP3    H148282   0.393   5.260  11.180  0.8400  0.0717  0.4307
 8029TIP3    H248283   0.330   5.198  11.057  0.7157 -0.6903  0.8769
 8030TIP3   OH248284   6.861   0.985  11.237  0.1545  0.5473  0.3114
 8030TIP3    H148285   6.879   1.031  11.155  0.5948 -1.1182 -0.5785
 8030TIP3    H248286   6.794   0.921  11.214  2.8940 -2.5336  0.1888
 8031TIP3   OH248287   3.438   4.883  11.567 -0.2065 -0.4037 -0.0936
 8031TIP3    H148288   3.423   4.806  11.513 -0.4977 -0.0607 -0.5095
 8031TIP3    H248289   3.501   4.855  11.633  0.6110 -0.6661 -0.9661
 8032TIP3   OH248290   0.264   0.458  13.330 -0.0573  0.4250  0.1508
 8032TIP3    H148291   0.193   0.469  13.268 -0.1315 -0.0571  0.1446
 8032TIP3    H248292   0.328   0.525  13.307 -0.4528  0.7818  0.0807
 8033TIP3   OH248293   3.941   1.502  13.464  0.9825  0.1019 -0.0295
 8033TIP3    H148294   3.901   1.417  13.447  0.8286 -0.0814  1.1858
 8033TIP3    H248295   3.867   1.563  13.467  1.0604  0.2324 -0.5093
 8034TIP3   OH248296   5.576   3.003  12.941 -0.1932 -0.4270  0.4570
 8034TIP3    H148297   5.507   3.069  12.950 -0.0773 -0.4109  1.2891
 8034TIP3    H248298   5.529   2.923  12.918 -0.2866  0.0482 -1.1391
 8035TIP3   OH248299   3.674   1.301  12.675 -0.0343  0.3731 -0.2720
 8035TIP3    H148300   3.645   1.389  12.650 -0.3694 -0.0124 -1.2778
 8035TIP3    H248301   3.765   1.298  12.646 -0.2639  0.1149 -0.9951
 8036TIP3   OH248302   0.245   6.834  13.128 -0.3851 -0.5303  0.1846
 8036TIP3    H148303   0.216   6.904  13.070  0.0232 -0.4555  0.0755
 8036TIP3    H248304   0.313   6.873  13.182 -0.5303 -0.6936  0.4865
 8037TIP3   OH248305   1.342   1.922  11.842  0.4201  0.2771 -0.4284
 8037TIP3    H148306   1.264   1.907  11.788 -1.0972 -2.2244  2.2022
 8037TIP3    H248307   1.318   1.995  11.899 -0.1245 -0.5712  0.4646
 8038TIP3   OH248308   6.158   4.187  12.731  0.0141 -0.0317 -0.2123
 8038TIP3    H148309   6.186   4.267  12.687  0.2071  0.3269  0.5639
 8038TIP3    H248310   6.094   4.216  12.796 -0.1088 -0.5362 -0.1073
 8039TIP3   OH248311   5.212   3.409  12.810  0.1713 -0.1924 -0.4558
 8039TIP3    H148312   5.251   3.447  12.888 -1.4763  0.5748  0.0213
 8039TIP3    H248313   5.247   3.319  12.807  0.4973 -0.1275  0.9759
 8040TIP3   OH248314   6.904   6.508  12.600 -0.4706  0.5429 -0.5082
 8040TIP3    H148315   6.981   6.455  12.624 -1.0399 -0.4068 -0.7233
 8040TIP3    H248316   6.920   6.593  12.641  0.0830 -0.0410  0.5255
 8041TIP3   OH248317   7.138   3.232  10.528 -0.3797 -0.0762  0.1958
 8041TIP3    H148318   7.193   3.286  10.471 -1.0440  0.0550 -0.3432
 8041TIP3    H248319   7.188   3.152  10.541  0.8925  0.9017  1.5148
 8042TIP3   OH248320   2.371   4.320  10.786  0.0421 -0.3291  0.0186
 8042TIP3    H148321   2.311   4.392  10.768 -0.6041 -1.0879 -0.9827
 8042TIP3    H248322   2.383   4.277  10.702  0.1952 -1.5483  0.6418
 8043TIP3   OH248323   4.516   0.761  11.871 -0.0419  0.5698 -0.3925
 8043TIP3    H148324   4.508   0.792  11.781 -0.0663  1.3847 -0.1164
 8043TIP3    H248325   4.560   0.676  11.863 -0.2090  0.5484 -1.1789
 8044TIP3   OH248326   1.217   7.605  11.282  0.2807 -0.4267  0.6367
 8044TIP3    H148327   1.280   7.667  11.245 -1.0983 -0.0326 -1.1357
 8044TIP3    H248328   1.133   7.650  11.279 -0.4265 -1.6342  1.2294
 8045TIP3   OH248329   0.448   0.611  10.922  0.1767  0.0961  0.3952
 8045TIP3    H148330   0.448   0.613  11.017  0.9761 -0.2888  0.4098
 8045TIP3    H248331   0.524   0.663  10.897  0.0467  0.0865 -0.0269
 8046TIP3   OH248332   6.500   3.679  11.994 -0.1794 -0.3285 -0.8282
 8046TIP3    H148333   6.446   3.692  11.916 -0.4884 -2.0840 -0.9542
 8046TIP3    H248334   6.460   3.605  12.038  0.3248  0.2970  0.7297
 8047TIP3   OH248335   2.265   0.996  11.090  0.0238  0.1623 -0.1216
 8047TIP3    H148336   2.312   0.958  11.017 -0.5872  0.9394 -0.9431
 8047TIP3    H248337   2.179   1.018  11.054 -0.8595 -0.8799  1.2342
 8048TIP3   OH248338   1.422   7.241  10.809  0.2306  0.7422 -0.3621
 8048TIP3    H148339   1.461   7.319  10.769 -0.3471  0.8593 -0.7059
 8048TIP3    H248340   1.469   7.168  10.769  1.0146  0.9171  0.2184
 8049TIP3   OH248341   7.451   0.248  12.927 -0.1294 -0.0874 -0.1994
 8049TIP3    H148342   7.437   0.284  13.015  0.3939 -1.3382  0.4015
 8049TIP3    H248343   7.529   0.293  12.895  0.4596 -0.5996  0.5043
 8050TIP3   OH248344   5.148   2.148  10.451 -0.3187  0.0640  0.1779
 8050TIP3    H148345   5.234   2.167  10.412 -0.8461  1.6165 -0.2749
 8050TIP3    H248346   5.126   2.061  10.417  1.4524 -0.7760  1.0115
 8051TIP3   OH248347   7.249   3.231  11.704 -0.6230  0.1893  0.0181
 8051TIP3    H148348   7.322   3.277  11.663 -1.0625 -1.2705 -2.6735
 8051TIP3    H248349   7.195   3.202  11.630 -3.8250  0.9627  1.8575
 8052TIP3   OH248350   6.164   2.290  11.179 -0.1854  0.2072 -0.0435
 8052TIP3    H148351   6.090   2.245  11.139  0.0713  0.7184 -1.1369
 8052TIP3    H248352   6.166   2.376  11.137 -1.0903  1.5604  2.4782
 8053TIP3   OH248353   7.458   5.685  12.410  0.2490  0.1282  0.0650
 8053TIP3    H148354   7.413   5.711  12.329 -1.5222  0.6170  1.1660
 8053TIP3    H248355   7.389   5.650  12.466  0.6941  3.2062  2.8067
 8054TIP3   OH248356   2.663   5.548  13.089 -0.0551  0.1109  0.9392
 8054TIP3    H148357   2.727   5.504  13.033 -1.3075 -0.9029  0.2490
 8054TIP3    H248358   2.582   5.546  13.038 -1.1880 -0.6244  2.6916
 8055TIP3   OH248359   1.645   2.968  10.318  0.9714 -0.4087 -0.0225
 8055TIP3    H148360   1.580   2.994  10.383  0.3011 -1.1304 -0.3765
 8055TIP3    H248361   1.603   2.895  10.271  1.2182  0.4455 -1.6246
 8056TIP3   OH248362   6.622   1.604  12.025  0.4539  0.4145  0.6004
 8056TIP3    H148363   6.691   1.669  12.028 -0.1123  1.4394 -3.2072
 8056TIP3    H248364   6.581   1.616  11.939 -3.2051 -1.4225  1.8567
 8057TIP3   OH248365   1.555   4.874  10.614 -0.0773 -0.7726 -0.0090
 8057TIP3    H148366   1.531   4.894  10.523  1.3617  0.6565 -0.1115
 8057TIP3    H248367   1.547   4.958  10.660  0.8803 -1.1019  0.7864
 8058TIP3   OH248368   4.179   6.305  12.960 -0.2007  0.1481 -0.2901
 8058TIP3    H148369   4.241   6.305  12.887 -0.4450  0.3136 -0.5012
 8058TIP3    H248370   4.125   6.227  12.945  0.1064 -0.1260  0.0219
 8059TIP3   OH248371   5.078   0.161  10.565  0.1214 -0.5002  0.0087
 8059TIP3    H148372   5.170   0.159  10.594  0.1661 -1.0268 -0.1674
 8059TIP3    H248373   5.056   0.254  10.565  0.5332 -0.3948  0.4426
 8060TIP3   OH248374   3.960   5.129  12.386  0.0269  0.8188  0.4454
 8060TIP3    H148375   3.903   5.114  12.311  0.9929  0.1258 -0.1794
 8060TIP3    H248376   3.911   5.189  12.443 -0.7320  1.3264 -0.7176
 8061TIP3   OH248377   6.502   6.968  11.221  0.1359 -0.1801  0.2109
 8061TIP3    H148378   6.430   6.966  11.284  0.6455  0.6147  0.8455
 8061TIP3    H248379   6.580   6.988  11.274  0.8064 -0.8963 -0.4786
 8062TIP3   OH248380   1.425   1.711  11.676  0.2738 -0.5651 -0.5042
 8062TIP3    H148381   1.404   1.781  11.738 -0.9077 -0.6738 -0.7525
 8062TIP3    H248382   1.404   1.631  11.723  0.2177 -0.6856 -0.7324
 8063TIP3   OH248383   7.522   4.571  11.186 -0.1318  0.1948  0.2385
 8063TIP3    H148384   7.564   4.642  11.235 -0.7107  1.2397 -0.7288
 8063TIP3    H248385   7.516   4.605  11.097 -0.1683 -1.2004 -0.3093
 8064TIP3   OH248386   7.159   3.246  11.405 -0.8357 -0.6263  0.2185
 8064TIP3    H148387   7.174   3.316  11.468  3.0693  0.0834 -1.2448
 8064TIP3    H248388   7.183   3.284  11.320 -0.7555 -3.0555 -0.9433
 8065TIP3   OH248389   2.744   4.598  12.858 -0.2092 -0.1886  0.0693
 8065TIP3    H148390   2.722   4.680  12.814 -0.2096 -0.7055 -0.9101
 8065TIP3    H248391   2.702   4.605  12.944 -3.4729 -0.6932 -1.3270
 8066TIP3   OH248392   4.503   6.368  11.622 -0.1521 -0.0728  0.2162
 8066TIP3    H148393   4.576   6.397  11.567  0.6615  1.5712  2.0397
 8066TIP3    H248394   4.439   6.333  11.560  1.2988  0.3749 -1.6240
 8067TIP3   OH248395   2.101   6.772  10.846 -0.3121 -0.3550  0.2436
 8067TIP3    H148396   2.087   6.858  10.885 -0.0698 -1.1149  2.1046
 8067TIP3    H248397   2.017   6.747  10.809 -0.7169  0.1438  0.8255
 8068TIP3   OH248398   3.881   0.439  13.033 -0.7136 -0.0279 -0.0352
 8068TIP3    H148399   3.839   0.421  13.116  0.3279 -0.1961  0.4802
 8068TIP3    H248400   3.945   0.508  13.053 -0.3073 -0.2158 -0.6511
 8069TIP3   OH248401   0.460   7.536  11.511  0.2369  0.4271  0.0527
 8069TIP3    H148402   0.384   7.589  11.535 -0.3394  0.1714 -1.1331
 8069TIP3    H248403   0.430   7.446  11.515  0.9084  0.2303  1.0016
 8070TIP3   OH248404   1.415   1.146  12.391 -0.0654 -0.5299 -0.4209
 8070TIP3    H148405   1.319   1.153  12.397 -0.0056  0.0437 -0.0156
 8070TIP3    H248406   1.443   1.235  12.369  0.3590 -0.7513 -0.7833
 8071TIP3   OH248407   6.870   1.009  12.600  0.0045 -0.3070 -0.2053
 8071TIP3    H148408   6.851   1.065  12.676  0.2407 -1.1197  0.4707
 8071TIP3    H248409   6.851   1.064  12.524  2.4670  1.5468  0.3821
 8072TIP3   OH248410   4.851   5.538  11.786 -0.3693  0.0547  0.0069
 8072TIP3    H148411   4.828   5.578  11.702  1.1405  0.1545 -0.3976
 8072TIP3    H248412   4.817   5.598  11.852  0.3679  1.1477 -0.5777
 8073TIP3   OH248413   4.520   3.670  10.663 -0.0780  0.1231  0.0848
 8073TIP3    H148414   4.595   3.720  10.695  0.0864 -0.7192  1.0746
 8073TIP3    H248415   4.544   3.643  10.575  0.0372  1.3407 -0.2752
 8074TIP3   OH248416   6.387   4.227  12.487  0.1699 -0.0603  0.1856
 8074TIP3    H148417   6.320   4.280  12.531  0.5139  1.5810 -1.1655
 8074TIP3    H248418   6.362   4.230  12.394  0.3611 -2.0863  0.0246
 8075TIP3   OH248419   2.794   5.191  11.272 -0.2252 -0.1645 -0.1976
 8075TIP3    H148420   2.805   5.102  11.237  1.4329  0.1063 -0.4203
 8075TIP3    H248421   2.713   5.222  11.231 -1.0588 -1.7027  0.1954
 8076TIP3   OH248422   6.272   5.399  12.811 -0.1848 -0.5013  0.2061
 8076TIP3    H148423   6.234   5.478  12.850  0.9287  0.2257 -0.1399
 8076TIP3    H248424   6.311   5.352  12.885  0.5509  0.0884  0.2031
 8077TIP3   OH248425   1.633   3.695  12.697 -0.2647 -0.4850 -0.2422
 8077TIP3    H148426   1.612   3.713  12.606  0.2661 -1.9208 -0.6815
 8077TIP3    H248427   1.594   3.610  12.715  0.9257 -0.9319  0.3911
 8078TIP3   OH248428   3.023   7.533  11.593  0.1030  0.1044 -0.4040
 8078TIP3    H148429   3.001   7.549  11.684  1.6453 -0.3546  0.0904
 8078TIP3    H248430   2.979   7.451  11.571 -0.7311  0.5087 -0.2587
 8079TIP3   OH248431   4.030   7.673  13.001 -0.0562 -0.3540  0.3879
 8079TIP3    H148432   4.009   7.587  12.963  3.0116 -1.0009 -0.1105
 8079TIP3    H248433   3.946   7.719  13.004 -1.1712 -1.6503 -3.6754
 8080TIP3   OH248434   1.835   3.066  11.689  0.8309 -0.4454 -0.3512
 8080TIP3    H148435   1.897   3.029  11.752 -0.0898  0.6243  1.2724
 8080TIP3    H248436   1.759   3.089  11.742  0.3508  1.3161 -1.7240
 8081TIP3   OH248437   1.078   2.489  10.939 -0.2196 -0.2723  0.4551
 8081TIP3    H148438   1.112   2.401  10.958 -1.0030 -0.7452 -0.2307
 8081TIP3    H248439   1.137   2.524  10.872 -1.7818 -1.6728 -1.8323
 8082TIP3   OH248440   2.173   3.992  11.574 -0.2508  0.5796  0.5774
 8082TIP3    H148441   2.113   3.924  11.543  0.2913 -0.1853  1.1711
 8082TIP3    H248442   2.117   4.054  11.620 -1.1052  1.7955 -1.9054
 8083TIP3   OH248443   7.083   2.426  11.828 -0.0538 -0.5279  0.1981
 8083TIP3    H148444   7.151   2.467  11.882  0.7178 -0.7694 -0.5650
 8083TIP3    H248445   7.016   2.398  11.890  1.1126 -1.3856  1.1142
 8084TIP3   OH248446   3.097   5.215  11.709  0.4214  0.2017  0.0616
 8084TIP3    H148447   3.056   5.242  11.791 -0.8525  0.1239 -0.5235
 8084TIP3    H248448   3.110   5.121  11.719 -0.2560  0.0927 -0.0312
 8085TIP3   OH248449   3.276   0.067  10.384  0.8229 -0.4661 -0.1549
 8085TIP3    H148450   3.278  -0.001  10.317  0.5096 -2.1397  1.4563
 8085TIP3    H248451   3.183   0.091  10.392  0.9368  0.2049 -0.7448
 8086TIP3   OH248452   1.083   6.292  11.900  0.0047 -0.0022 -0.8915
 8086TIP3    H148453   1.031   6.357  11.946  1.6056 -0.3942  1.6734
 8086TIP3    H248454   1.124   6.340  11.829 -1.3056  1.0197 -0.9917
 8087TIP3   OH248455   2.637   0.949  11.102 -0.0130  0.0832 -0.2474
 8087TIP3    H148456   2.590   1.015  11.050  2.2990  0.6683 -1.7390
 8087TIP3    H248457   2.625   0.868  11.053  0.6178  0.2647 -0.7176
 8088TIP3   OH248458   2.110   3.651  12.202  0.1010  0.2191  0.2217
 8088TIP3    H148459   2.147   3.565  12.220  0.2686 -0.0687 -1.3333
 8088TIP3    H248460   2.166   3.686  12.132 -1.8455  0.2573 -1.3901
 8089TIP3   OH248461   4.826   6.027  10.742 -0.2436  0.2169 -0.0236
 8089TIP3    H148462   4.783   5.979  10.813 -1.0620  0.5646 -0.2636
 8089TIP3    H248463   4.906   5.979  10.725 -0.5487 -0.4697  0.4345
 8090TIP3   OH248464   0.825   1.128  12.574 -0.3467  0.0676  0.1013
 8090TIP3    H148465   0.795   1.165  12.657 -0.1927  1.0029 -0.2495
 8090TIP3    H248466   0.759   1.155  12.510  0.9384  1.7478 -0.5919
 8091TIP3   OH248467   4.062   0.530  12.632 -0.5946  0.3109 -0.2246
 8091TIP3    H148468   4.090   0.620  12.616 -1.7800  0.3263 -2.6321
 8091TIP3    H248469   4.119   0.500  12.702  0.8099  2.4572 -0.3319
 8092TIP3   OH248470   6.135   3.302  13.318 -0.3329 -0.1576 -0.0269
 8092TIP3    H148471   6.078   3.225  13.313 -0.1329 -0.4126  1.2157
 8092TIP3    H248472   6.075   3.377  13.317 -0.8387 -0.4460  2.4299
 8093TIP3   OH248473   4.795   4.289  11.662 -0.4660 -0.5626 -0.4150
 8093TIP3    H148474   4.857   4.239  11.715  0.3709  0.4463 -0.4151
 8093TIP3    H248475   4.724   4.227  11.645 -0.5690 -1.0698  1.5152
 8094TIP3   OH248476   4.556   3.691  12.511 -0.1620  0.1534  0.6873
 8094TIP3    H148477   4.463   3.667  12.508 -0.4211  1.1655  0.1215
 8094TIP3    H248478   4.564   3.749  12.586 -0.0901  0.4336  0.4683
 8095TIP3   OH248479   3.341   3.639  12.785  0.0814  0.2222 -0.3729
 8095TIP3    H148480   3.316   3.729  12.803  0.7170  0.5778 -1.2315
 8095TIP3    H248481   3.429   3.630  12.823 -0.2694 -0.2632  0.3585
 8096TIP3   OH248482   3.800   2.978  12.481 -0.0187 -0.5224  0.2199
 8096TIP3    H148483   3.741   2.913  12.443 -0.4596  0.3796 -0.6518
 8096TIP3    H248484   3.807   2.952  12.573 -2.8945  0.1364  0.7199
 8097TIP3   OH248485   1.853   4.148  11.386 -0.2857 -0.0529 -0.1345
 8097TIP3    H148486   1.911   4.092  11.334 -0.5693 -0.3378 -0.1482
 8097TIP3    H248487   1.804   4.199  11.321 -0.6369 -0.4059 -0.1504
 8098TIP3   OH248488   1.368   1.061  11.254  0.1601  0.0756 -0.7038
 8098TIP3    H148489   1.346   0.971  11.231  0.1645 -0.0224 -0.3239
 8098TIP3    H248490   1.412   1.054  11.338  1.6928  0.2646 -1.4565
 8099TIP3   OH248491   5.434   6.681  12.230  0.4272  0.1240  0.1104
 8099TIP3    H148492   5.461   6.605  12.282 -1.2541  0.1104  1.0249
 8099TIP3    H248493   5.376   6.646  12.164  0.1467  0.5324  0.1359
 8100TIP3   OH248494   4.809   4.166  11.335  0.1577  0.4227 -0.2907
 8100TIP3    H148495   4.825   4.257  11.310 -0.3961  1.0881  1.6464
 8100TIP3    H248496   4.714   4.161  11.347 -0.0028 -0.8086 -1.7045
 8101TIP3   OH248497   5.517   5.590  10.866  0.3213  0.0867  0.7994
 8101TIP3    H148498   5.493   5.682  10.874 -0.5998 -0.1614  1.0108
 8101TIP3    H248499   5.612   5.589  10.873  0.4589  1.1672 -0.5043
 8102TIP3   OH248500   3.881   7.277  11.922 -0.0900  0.2067  0.1215
 8102TIP3    H148501   3.930   7.205  11.883  2.5207  1.4268  0.9712
 8102TIP3    H248502   3.790   7.248  11.918  0.7938 -2.9586  0.0728
 8103TIP3   OH248503   1.725   2.616  12.325  0.4835 -0.1864  0.5326
 8103TIP3    H148504   1.705   2.708  12.309 -2.8597 -0.6168  1.5327
 8103TIP3    H248505   1.731   2.576  12.239 -1.4144  0.4000  0.0923
 8104TIP3   OH248506   5.980   0.601  12.221 -0.5474 -0.9260  0.7338
 8104TIP3    H148507   5.925   0.587  12.299 -0.3825 -0.3549  0.9649
 8104TIP3    H248508   6.028   0.682  12.241 -1.4451 -0.0480 -0.4888
 8105TIP3   OH248509   2.719   3.119  13.039  0.2242  0.2155 -0.3214
 8105TIP3    H148510   2.761   3.048  13.089 -0.9730 -0.7583 -0.6641
 8105TIP3    H248511   2.729   3.092  12.948 -0.8335  0.1339 -0.4206
 8106TIP3   OH248512   0.208   7.603  13.185  0.1479 -1.2303 -0.3179
 8106TIP3    H148513   0.123   7.614  13.142  1.2414  0.7496 -2.1735
 8106TIP3    H248514   0.268   7.582  13.113  1.5495 -0.7679  0.6799
 8107TIP3   OH248515   0.829   5.304  10.913  0.1965  0.1615 -0.2334
 8107TIP3    H148516   0.804   5.355  10.836  0.2343  1.3054  0.4998
 8107TIP3    H248517   0.820   5.365  10.986 -0.3820 -1.0677  0.7495
 8108TIP3   OH248518   3.143   3.548  10.401  0.1853  0.5039  0.1666
 8108TIP3    H148519   3.237   3.530  10.396 -0.0755 -1.3041  0.8927
 8108TIP3    H248520   3.102   3.473  10.357 -0.9233  1.8681 -1.2658
 8109TIP3   OH248521   4.385   6.694  12.930  0.1637 -0.2183 -0.9000
 8109TIP3    H148522   4.467   6.688  12.978  0.1131 -1.5107 -0.9272
 8109TIP3    H248523   4.388   6.620  12.868 -1.2852 -0.6875 -0.4481
 8110TIP3   OH248524   3.322   2.604  10.695  0.3205 -0.7320 -0.0623
 8110TIP3    H148525   3.363   2.658  10.628  0.0671 -2.2113 -1.4554
 8110TIP3    H248526   3.267   2.543  10.647 -1.5210 -0.5057  1.6186
 8111TIP3   OH248527   2.120   7.358  11.717  0.6365  0.1933 -0.5867
 8111TIP3    H148528   2.095   7.315  11.635  0.3327 -1.2353  0.2234
 8111TIP3    H248529   2.214   7.342  11.725  0.6665  0.3343 -0.6550
 8112TIP3   OH248530   1.130   1.202  11.268  0.1974  0.0841 -0.0557
 8112TIP3    H148531   1.137   1.253  11.349 -1.4132 -0.6699  0.5992
 8112TIP3    H248532   1.216   1.161  11.259  1.0216  1.6659  0.2261
 8113TIP3   OH248533   4.386   4.104  10.909 -0.1275 -0.1096  0.2232
 8113TIP3    H148534   4.411   4.088  11.000 -2.5937 -0.5429  0.8857
 8113TIP3    H248535   4.449   4.053  10.858 -1.1376 -3.2312  1.8718
 8114TIP3   OH248536   5.248   4.708  10.741 -0.0415  0.2670 -0.0753
 8114TIP3    H148537   5.287   4.626  10.771 -1.9861 -0.6888 -0.0009
 8114TIP3    H248538   5.318   4.750  10.690  0.9878 -1.4610 -0.1907
 8115TIP3   OH248539   2.241   5.675  12.835 -0.5310  0.4531  0.1277
 8115TIP3    H148540   2.166   5.627  12.868 -1.4682  1.2735 -0.7546
 8115TIP3    H248541   2.215   5.767  12.839 -0.5414  0.6312 -2.4618
 8116TIP3   OH248542   6.698   0.270  12.744  0.1431 -0.1264  0.2427
 8116TIP3    H148543   6.657   0.331  12.805  2.4912  0.4810  1.3329
 8116TIP3    H248544   6.783   0.309  12.723 -0.6084 -0.2073 -3.6656
 8117TIP3   OH248545   2.782   1.341  12.970  0.6353 -0.2120 -0.2830
 8117TIP3    H148546   2.768   1.361  13.063 -1.1116  1.3802 -0.8354
 8117TIP3    H248547   2.783   1.426  12.927 -0.0884 -0.9925 -1.9175
 8118TIP3   OH248548   3.567   3.079  12.028 -0.1674  0.3230  0.1641
 8118TIP3    H148549   3.534   3.169  12.025 -0.8242  0.0609 -0.8510
 8118TIP3    H248550   3.658   3.086  11.998 -0.4320  0.5666 -0.6005
 8119TIP3   OH248551   0.395   5.801  12.605 -0.1004  0.0711  0.1497
 8119TIP3    H148552   0.396   5.742  12.680 -2.1385  1.6190  1.4819
 8119TIP3    H248553   0.393   5.743  12.529  2.6655 -1.5487  1.1720
 8120TIP3   OH248554   4.091   4.109  11.123 -0.3341 -0.1083  0.3607
 8120TIP3    H148555   4.067   4.125  11.214  1.7420 -1.2148  1.1699
 8120TIP3    H248556   4.127   4.020  11.122  0.5323  0.2119 -1.3494
 8121TIP3   OH248557   4.950   2.182  10.894  0.1710 -0.5236 -0.0278
 8121TIP3    H148558   4.966   2.275  10.910 -0.0161 -0.1850 -1.6692
 8121TIP3    H248559   5.030   2.151  10.852 -0.3465 -0.7259 -0.8915
 8122TIP3   OH248560   2.268   5.542  17.701  0.1139  0.3452  0.1734
 8122TIP3    H148561   2.216   5.485  17.758 -1.0785  2.0741  0.9067
 8122TIP3    H248562   2.224   5.539  17.616  1.1261 -1.2154 -0.3203
 8123TIP3   OH248563   2.229   0.349  11.821  0.6799  0.1422 -0.2774
 8123TIP3    H148564   2.161   0.294  11.860 -1.0341  2.2809 -0.0310
 8123TIP3    H248565   2.311   0.304  11.842 -0.5085 -1.4553  1.2757
 8124TIP3   OH248566   7.081   0.947  13.323  0.3350 -0.4441 -0.1638
 8124TIP3    H148567   7.094   0.873  13.264 -0.5693  0.7452 -1.9277
 8124TIP3    H248568   6.988   0.946  13.343  0.4714 -0.2761  0.4969
 8125TIP3   OH248569   3.928   6.321  11.705 -0.6302  0.5705 -0.0522
 8125TIP3    H148570   3.873   6.243  11.695 -1.5950  1.1548  0.5967
 8125TIP3    H248571   4.017   6.289  11.687 -0.5596 -1.3941  2.9321
 8126TIP3   OH248572   0.893   1.361  10.689  0.1596 -0.6389 -0.0537
 8126TIP3    H148573   0.912   1.317  10.772 -0.8201 -0.9479  0.0180
 8126TIP3    H248574   0.839   1.437  10.714 -0.9305 -1.2499 -0.4758
 8127TIP3   OH248575   2.978   0.338  11.785 -0.6092 -0.5152  0.2668
 8127TIP3    H148576   3.064   0.319  11.746 -0.6635 -0.3906  0.0855
 8127TIP3    H248577   2.994   0.412  11.843 -0.0983 -1.9689  2.0650
 8128TIP3   OH248578   6.831   0.410  11.329 -0.2443  0.5022  0.3727
 8128TIP3    H148579   6.764   0.387  11.265  0.7467  2.4456 -1.4684
 8128TIP3    H248580   6.896   0.460  11.280  2.2161 -0.6310  2.2363
 8129TIP3   OH248581   2.757   3.770  10.668  0.3065  0.0362 -0.0290
 8129TIP3    H148582   2.817   3.827  10.717  0.4162  0.5672 -0.7593
 8129TIP3    H248583   2.813   3.700  10.635  0.2139 -0.3836  0.6705
 8130TIP3   OH248584   1.140   7.039  12.528  0.5925 -1.2822 -0.0824
 8130TIP3    H148585   1.214   6.997  12.574  1.4178  0.7347  0.5324
 8130TIP3    H248586   1.149   7.132  12.549 -0.6838 -0.6686 -2.0564
 8131TIP3   OH248587   7.308   5.292  11.601 -0.0278 -0.1859  0.1779
 8131TIP3    H148588   7.290   5.344  11.523  1.0159  0.0217  0.0648
 8131TIP3    H248589   7.403   5.292  11.609 -0.1262  0.1446  1.6926
 8132TIP3   OH248590   4.426   4.706  10.565 -0.2173  0.4657  0.2842
 8132TIP3    H148591   4.429   4.661  10.649 -2.5555  0.8598  0.6411
 8132TIP3    H248592   4.487   4.656  10.510 -0.7650 -1.5565  1.3969
 8133TIP3   OH248593   2.404   4.221  12.080 -0.0378 -0.0330 -0.0841
 8133TIP3    H148594   2.351   4.160  12.132  0.7998  0.4985  1.4441
 8133TIP3    H248595   2.357   4.304  12.086  0.1402  0.0657 -0.0734
 8134TIP3   OH248596   6.331   6.204  18.990  0.5059  0.0466 -0.0834
 8134TIP3    H148597   6.397   6.274  18.992 -1.3130  1.8818 -0.8221
 8134TIP3    H248598   6.248   6.249  18.998 -0.6915 -2.2757  1.7178
 8135TIP3   OH248599   7.457   5.665  11.395 -0.3777 -0.0046  0.0971
 8135TIP3    H148600   7.383   5.606  11.377 -0.5910 -0.2432  1.6040
 8135TIP3    H248601   7.484   5.696  11.309 -1.5397 -0.7621 -0.5759
 8136TIP3   OH248602   6.779   5.051  12.294  0.9119  0.2312 -0.5258
 8136TIP3    H148603   6.833   4.979  12.260  0.7431  0.7741 -2.0243
 8136TIP3    H248604   6.689   5.024  12.275  0.7709  0.2605  0.0899
 8137TIP3   OH248605   4.420   6.125  11.968 -0.0780 -0.0428 -0.3872
 8137TIP3    H148606   4.491   6.182  11.938  0.0258 -1.3463 -2.8469
 8137TIP3    H248607   4.457   6.037  11.962 -0.3405 -0.5234  3.0174
 8138TIP3   OH248608   7.145   4.888  11.510 -0.4425  0.1449  0.1188
 8138TIP3    H148609   7.194   4.815  11.472 -2.8449 -1.4230 -0.1980
 8138TIP3    H248610   7.158   4.879  11.605  1.4065  0.9820 -0.0033
 8139TIP3   OH248611   1.816   1.787  10.393  0.2115  0.3270  0.1552
 8139TIP3    H148612   1.742   1.835  10.357 -0.0772 -1.2600 -1.5402
 8139TIP3    H248613   1.824   1.819  10.483 -0.2572  3.0956 -0.6979
 8140TIP3   OH248614   2.475   4.064  11.066  0.0234  0.6097  0.0810
 8140TIP3    H148615   2.539   4.020  11.122  0.2240  1.9678  0.9792
 8140TIP3    H248616   2.528   4.109  11.000 -0.0587  0.8428  0.1699
 8141TIP3   OH248617   1.684   5.191  12.745 -0.5542  0.1343  0.4046
 8141TIP3    H148618   1.666   5.172  12.837 -1.5977  0.1410  0.2090
 8141TIP3    H248619   1.737   5.118  12.715 -1.3169 -0.5276  0.6610
 8142TIP3   OH248620   5.206   3.324  12.422  0.0438  0.0364  0.2449
 8142TIP3    H148621   5.259   3.267  12.366 -0.4738 -0.4711  0.2575
 8142TIP3    H248622   5.116   3.306  12.395 -0.2245 -0.3196  1.3316
 8143TIP3   OH248623   5.925   4.624  12.878  0.2362 -0.2904  0.3158
 8143TIP3    H148624   5.880   4.630  12.962  1.3610 -1.0928  1.0019
 8143TIP3    H248625   5.867   4.571  12.824 -0.0214 -0.6392  0.9235
 8144TIP3   OH248626   4.892   7.578  11.338 -0.1399 -0.3981  0.8292
 8144TIP3    H148627   4.917   7.604  11.250  1.1896 -1.0696  0.9862
 8144TIP3    H248628   4.900   7.659  11.390 -0.2385 -0.1647  0.4833
 8145TIP3   OH248629   2.132   0.379  12.642  0.4583 -0.0946  0.4149
 8145TIP3    H148630   2.170   0.305  12.689  1.7261  0.4237  0.2514
 8145TIP3    H248631   2.208   0.433  12.618 -0.4039  1.0391  0.1744
 8146TIP3   OH248632   5.317   2.017  11.311  0.1352 -0.1715 -0.1452
 8146TIP3    H148633   5.363   1.960  11.372  0.6371 -0.3510 -0.6846
 8146TIP3    H248634   5.224   1.994  11.323  0.0504  0.9826  1.7455
 8147TIP3   OH248635   5.292   3.687  10.937 -0.1545 -0.1527  0.6385
 8147TIP3    H148636   5.354   3.662  10.868 -0.1734  1.0189  0.1875
 8147TIP3    H248637   5.348   3.710  11.011 -0.1342 -1.4218  1.0407
 8148TIP3   OH248638   4.522   3.082  11.272 -0.4129  0.0550  0.2187
 8148TIP3    H148639   4.586   3.023  11.233  1.0331  1.5779  0.1602
 8148TIP3    H248640   4.450   3.026  11.298  0.8090 -1.6911 -0.0121
 8149TIP3   OH248641   4.106   2.685  12.310 -0.0695 -0.1683  0.3207
 8149TIP3    H148642   4.120   2.756  12.247  1.7672 -0.7717 -0.0076
 8149TIP3    H248643   4.070   2.614  12.257  1.2208 -0.5835 -0.0327
 8150TIP3   OH248644   0.583   5.981  11.879  0.2766 -0.0841  0.0543
 8150TIP3    H148645   0.511   6.014  11.827 -0.9412 -0.2439  1.5583
 8150TIP3    H248646   0.661   6.019  11.839 -0.7094  0.8758 -1.0245
 8151TIP3   OH248647   2.472   1.651  12.194  0.0367 -0.5369 -0.5638
 8151TIP3    H148648   2.440   1.678  12.280  1.7319  0.6622 -0.2602
 8151TIP3    H248649   2.508   1.564  12.207 -0.8895 -0.9066 -0.3834
 8152TIP3   OH248650   4.136   0.321  12.937  0.0172  0.4273  0.1457
 8152TIP3    H148651   4.157   0.404  12.894  0.3754 -0.3580 -1.2672
 8152TIP3    H248652   4.049   0.334  12.974  0.3644  1.6533  0.5687
 8153TIP3   OH248653   1.863   7.007  10.810  0.3051  0.0412 -0.1867
 8153TIP3    H148654   1.880   7.096  10.781 -0.7398  0.6641  1.0257
 8153TIP3    H248655   1.875   7.009  10.905 -0.6980 -0.8586 -0.0163
 8154TIP3   OH248656   1.968   6.155  12.728  0.1362 -0.3324 -0.3385
 8154TIP3    H148657   2.044   6.097  12.734  0.9180  0.6722 -0.2219
 8154TIP3    H248658   1.920   6.124  12.651 -0.2150 -1.9680  0.4776
 8155TIP3   OH248659   0.627   6.558  10.837  0.4890 -0.4583  0.2521
 8155TIP3    H148660   0.550   6.510  10.808  0.3247 -0.1766  0.2228
 8155TIP3    H248661   0.594   6.644  10.864  0.8108 -0.2826  0.0964
 8156TIP3   OH248662   6.610   0.154  11.700  0.2947  0.0068  0.1830
 8156TIP3    H148663   6.531   0.155  11.645  0.2919  1.0953  0.1774
 8156TIP3    H248664   6.662   0.228  11.668  0.5567  0.3101  1.2718
 8157TIP3   OH248665   6.349   2.878  10.702 -0.5744  0.1496  0.2714
 8157TIP3    H148666   6.366   2.784  10.709 -0.1643  0.0054 -1.9754
 8157TIP3    H248667   6.310   2.901  10.786 -0.0247 -1.8785  1.1522
 8158TIP3   OH248668   4.528   2.113  11.706  0.1431  0.3953  0.5100
 8158TIP3    H148669   4.574   2.146  11.629 -1.0272  0.3793 -0.2127
 8158TIP3    H248670   4.490   2.192  11.747 -1.0734  0.1917 -0.1729
 8159TIP3   OH248671   2.754   0.752  13.014  0.2358  0.4344 -0.2116
 8159TIP3    H148672   2.767   0.720  12.924 -0.7144 -1.3216  0.2255
 8159TIP3    H248673   2.818   0.703  13.066  0.5649  1.2107  0.1265
 8160TIP3   OH248674   7.585   1.054  10.783  0.3411 -0.3562 -0.4539
 8160TIP3    H148675   7.569   1.049  10.877  1.8491 -0.0634 -0.1573
 8160TIP3    H248676   7.512   1.105  10.749 -0.4291 -0.7877  0.4885
 8161TIP3   OH248677   4.596   2.926  12.813  0.3322  0.0072 -0.2703
 8161TIP3    H148678   4.591   2.844  12.862 -0.1945 -0.3530 -0.9139
 8161TIP3    H248679   4.654   2.981  12.865  0.0747 -0.4962  0.5673
 8162TIP3   OH248680   2.006   3.998  12.436 -0.5512 -0.1398  0.7486
 8162TIP3    H148681   1.970   4.004  12.348  0.4469  1.0497  0.3886
 8162TIP3    H248682   1.955   3.929  12.478 -1.8172  0.0646 -0.3789
 8163TIP3   OH248683   4.108   1.992  12.116 -1.4549 -0.2280  0.3842
 8163TIP3    H148684   4.054   1.928  12.069 -0.3919 -0.1704 -0.9727
 8163TIP3    H248685   4.096   1.970  12.209 -0.7718 -2.7238 -0.0344
 8164TIP3   OH248686   4.653   1.096  12.205 -0.3406  0.2596  0.1077
 8164TIP3    H148687   4.693   1.132  12.126  2.9666  0.5491  1.7257
 8164TIP3    H248688   4.663   1.001  12.197  0.4534  0.3139  0.3461
 8165TIP3   OH248689   4.474   5.106  11.816  0.1928 -0.0047  0.5403
 8165TIP3    H148690   4.446   5.049  11.887 -1.0806 -2.3895 -1.6793
 8165TIP3    H248691   4.410   5.178  11.816 -0.2296 -0.3762  1.3399
 8166TIP3   OH248692   7.484   2.706  12.217  0.0433  0.2014 -0.1020
 8166TIP3    H148693   7.413   2.770  12.214  1.5919  2.0304 -0.3109
 8166TIP3    H248694   7.534   2.730  12.295  0.2201 -1.3138  0.2789
 8167TIP3   OH248695   3.854   3.395  13.578 -0.0950  0.1643  0.1764
 8167TIP3    H148696   3.902   3.326  13.624  0.3234  0.1033 -0.3338
 8167TIP3    H248697   3.923   3.454  13.546 -0.3981  0.3904 -0.0656
 8168TIP3   OH248698   1.608   1.037  11.665  0.1425  0.2713 -0.1250
 8168TIP3    H148699   1.656   0.989  11.732 -1.6696 -0.0438  1.0222
 8168TIP3    H248700   1.575   1.115  11.710 -2.6133 -0.8191 -0.0520
 8169TIP3   OH248701   7.284   3.496  11.491  0.4938 -0.2170 -0.0813
 8169TIP3    H148702   7.202   3.545  11.498  0.1811 -0.8958  1.1565
 8169TIP3    H248703   7.330   3.538  11.418 -1.0823 -0.0272 -1.0212
 8170TIP3   OH248704   0.528   7.259  12.312 -0.0655  0.1835 -0.2165
 8170TIP3    H148705   0.479   7.179  12.293  0.8458 -0.0387 -1.7951
 8170TIP3    H248706   0.466   7.313  12.360 -1.5183 -0.5205 -1.1873
 8171TIP3   OH248707   0.704   0.330  12.390  0.5448  0.0609  0.5193
 8171TIP3    H148708   0.791   0.368  12.380  1.1652 -1.3002  0.5285
 8171TIP3    H248709   0.720   0.245  12.432 -0.6201 -0.9240 -0.9402
 8172TIP3   OH248710   3.303   4.004  10.337 -0.0890 -0.5765 -0.3595
 8172TIP3    H148711   3.275   4.066  10.404 -0.3995 -0.2771 -0.7542
 8172TIP3    H248712   3.270   4.042  10.255  2.9294  0.6867 -1.1009
 8173TIP3   OH248713   2.524   5.934  12.616 -0.1578  1.1060 -0.1539
 8173TIP3    H148714   2.603   5.926  12.564 -0.4593  0.6456 -0.5464
 8173TIP3    H248715   2.485   5.846  12.615  0.5353  0.7179  1.9747
 8174TIP3   OH248716   2.454   3.366  10.824  0.2926 -0.1212  0.4411
 8174TIP3    H148717   2.519   3.346  10.758  0.0083 -0.0296  0.1298
 8174TIP3    H248718   2.420   3.281  10.852 -0.7131 -0.1133 -0.6762
 8175TIP3   OH248719   2.152   6.764  11.151 -0.0621 -0.1504 -0.4175
 8175TIP3    H148720   2.244   6.741  11.141  0.1144  0.0922  0.5631
 8175TIP3    H248721   2.112   6.740  11.068  1.2219  1.4452 -1.5361
 8176TIP3   OH248722   4.437   4.594  11.498  0.1270 -0.0712  0.5174
 8176TIP3    H148723   4.345   4.609  11.477  0.1970  0.4435  0.5458
 8176TIP3    H248724   4.436   4.529  11.568 -0.0979 -2.0874 -1.2672
 8177TIP3   OH248725   3.964   2.498  12.149  0.1461 -1.1388 -0.2201
 8177TIP3    H148726   3.937   2.528  12.063  0.4589  0.3812  0.1816
 8177TIP3    H248727   3.968   2.403  12.141  0.2555 -1.0271 -1.9025
 8178TIP3   OH248728   3.007   7.629  12.969 -0.4259 -0.0031 -0.0093
 8178TIP3    H148729   2.964   7.590  13.045 -1.6489  2.7632  0.8401
 8178TIP3    H248730   2.998   7.563  12.900 -0.1493 -2.1917  1.9165
 8179TIP3   OH248731   4.888   1.472  10.829  0.1091 -0.3869  0.1919
 8179TIP3    H148732   4.977   1.438  10.823  0.7867  1.2779  0.3304
 8179TIP3    H248733   4.881   1.504  10.919  0.2837  1.7957 -0.5136
 8180TIP3   OH248734   6.258   0.732  12.020 -0.5796 -0.2837 -0.1678
 8180TIP3    H148735   6.293   0.709  11.934  0.2057 -0.5325  0.2048
 8180TIP3    H248736   6.330   0.714  12.080 -0.4977  1.5470  0.3409
 8181TIP3   OH248737   2.608   3.717  11.100 -0.0513  0.2383 -0.0968
 8181TIP3    H148738   2.629   3.626  11.082 -1.1019  0.3430 -2.1969
 8181TIP3    H248739   2.512   3.722  11.090 -0.0365  1.5026  0.2147
 8182TIP3   OH248740   0.058   0.697  12.033 -0.2852  0.0740  0.0368
 8182TIP3    H148741   0.133   0.664  12.082 -0.7945  0.4898  1.1395
 8182TIP3    H248742   0.096   0.752  11.965  0.4021  1.7360  1.6772
 8183TIP3   OH248743   4.632   1.432  12.174 -0.0318 -0.2122 -0.0962
 8183TIP3    H148744   4.714   1.382  12.168 -0.4159 -0.7402 -1.2052
 8183TIP3    H248745   4.659   1.524  12.166  0.6138 -0.2577  1.3212
 8184TIP3   OH248746   2.995   0.945  13.009 -0.0243  0.2205 -0.1377
 8184TIP3    H148747   3.029   1.017  13.061  0.0517 -0.1149  0.2777
 8184TIP3    H248748   2.900   0.948  13.022 -0.0344  0.3236 -0.2269
 8185TIP3   OH248749   4.314   7.677  11.294  0.3234 -0.0349 -0.0276
 8185TIP3    H148750   4.280   7.635  11.215 -0.1750 -1.9418  1.1566
 8185TIP3    H248751   4.409   7.676  11.282  0.2423  0.0309 -0.7541
 8186TIP3   OH248752   7.250   1.131  11.532  0.2034  0.1930 -0.2363
 8186TIP3    H148753   7.235   1.050  11.579  1.2129 -0.7584 -1.4830
 8186TIP3    H248754   7.170   1.144  11.480 -0.5135  0.7422  0.9614
 8187TIP3   OH248755   6.760   5.355  10.870 -0.4595 -0.2445  0.1054
 8187TIP3    H148756   6.803   5.345  10.955  0.7016 -2.7700 -0.6643
 8187TIP3    H248757   6.681   5.301  10.876 -0.6695  0.0219 -0.2240
 8188TIP3   OH248758   5.088   3.155  11.453  0.2803  0.8862 -0.1908
 8188TIP3    H148759   5.115   3.177  11.364  0.9661 -0.5425 -0.3521
 8188TIP3    H248760   5.000   3.119  11.444 -0.0891  1.7503 -0.1453
 8189TIP3   OH248761   2.173   4.473  12.288  0.0040  0.3226 -0.4771
 8189TIP3    H148762   2.099   4.447  12.343 -0.1788  0.6185 -0.5791
 8189TIP3    H248763   2.169   4.413  12.213  0.3979 -0.2367 -0.0566
 8190TIP3   OH248764   0.201   0.865  12.978  0.3159 -0.7573  0.9940
 8190TIP3    H148765   0.224   0.773  12.988  0.6784 -0.6195  1.4774
 8190TIP3    H248766   0.285   0.911  12.980  0.4653 -0.6345 -2.2538
 8191TIP3   OH248767   5.954   5.072  11.259  0.8665 -0.4402 -1.0206
 8191TIP3    H148768   5.881   5.103  11.206  1.4895  0.6023 -1.3072
 8191TIP3    H248769   6.018   5.143  11.254  0.8976 -0.2546  1.2318
 8192TIP3   OH248770   5.608   0.752  10.716  0.2548  0.2833  0.2356
 8192TIP3    H148771   5.515   0.744  10.694  0.5409  0.5518 -1.2009
 8192TIP3    H248772   5.639   0.662  10.718  0.2608  0.2470 -0.7800
 8193TIP3   OH248773   3.526   7.417  10.758 -0.6401 -0.3996  0.4970
 8193TIP3    H148774   3.454   7.467  10.718 -1.4924 -0.9959  1.2538
 8193TIP3    H248775   3.595   7.418  10.691 -0.3028  2.4130  0.7351
 8194TIP3   OH248776   2.629   2.189  10.534 -0.2758 -0.2543 -0.3106
 8194TIP3    H148777   2.704   2.155  10.486  0.2553 -0.6631  0.7704
 8194TIP3    H248778   2.667   2.247  10.600 -0.9282 -0.2003  0.0311
 8195TIP3   OH248779   0.970   5.894  10.338  0.3270  0.3250  0.5046
 8195TIP3    H148780   1.052   5.925  10.376  0.8617  1.2504 -1.2935
 8195TIP3    H248781   0.956   5.950  10.262 -1.1628 -0.8389 -0.1277
 8196TIP3   OH248782   2.059   2.077  12.108  0.1404 -0.6013  0.6606
 8196TIP3    H148783   2.003   2.152  12.086  1.3783  0.4987  1.1565
 8196TIP3    H248784   1.999   2.002  12.109 -1.7963  0.8323  3.2787
 8197TIP3   OH248785   5.005   2.634  10.679  0.3562  0.0596  0.0996
 8197TIP3    H148786   5.032   2.700  10.615  1.3927 -1.5188 -1.1550
 8197TIP3    H248787   5.019   2.550  10.635 -3.0555 -1.0271  0.7455
 8198TIP3   OH248788   0.301   0.312  12.342  0.4666  0.2145  0.0007
 8198TIP3    H148789   0.269   0.375  12.278  2.0479  0.8975 -0.1387
 8198TIP3    H248790   0.374   0.268  12.298  0.5880 -0.3849  0.7833
 8199TIP3   OH248791   1.162   6.612  12.108 -0.3328 -0.0691 -0.3498
 8199TIP3    H148792   1.067   6.601  12.107 -0.3525 -0.2656  1.0997
 8199TIP3    H248793   1.193   6.547  12.171  1.0775 -1.9244 -2.7887
 8200TIP3   OH248794   5.496   1.565  11.710 -0.8081  0.2315  0.0833
 8200TIP3    H148795   5.506   1.653  11.747  1.1747  0.3722 -0.6980
 8200TIP3    H248796   5.432   1.523  11.767 -0.9427  1.8037  1.1558
 8201TIP3   OH248797   2.599   6.300  12.076  0.2231 -0.1315  0.1132
 8201TIP3    H148798   2.671   6.336  12.023 -0.6015  1.3936 -0.0058
 8201TIP3    H248799   2.520   6.327  12.030 -0.5003  0.6277  1.7368
 8202TIP3   OH248800   2.458   4.773  12.607  0.2370 -0.0509  0.2908
 8202TIP3    H148801   2.544   4.810  12.587 -1.2247  2.0208 -3.0297
 8202TIP3    H248802   2.475   4.680  12.621  3.0086  0.2651 -0.3827
 8203TIP3   OH248803   6.377   3.996  10.700  0.1284 -0.3600 -0.0494
 8203TIP3    H148804   6.434   3.939  10.649 -1.4704 -0.4489 -1.8545
 8203TIP3    H248805   6.312   3.936  10.738  0.3889 -0.1001  0.8400
 8204TIP3   OH248806   0.061   3.245  10.611  0.0070 -0.0387  0.0190
 8204TIP3    H148807  -0.031   3.227  10.630 -0.4052  2.4782  0.8579
 8204TIP3    H248808   0.059   3.319  10.550  1.4657  0.4551  0.5242
 8205TIP3   OH248809   5.182   0.604  10.435  0.0704  0.3128  0.0329
 8205TIP3    H148810   5.108   0.630  10.491  0.1491 -0.2758  0.4120
 8205TIP3    H248811   5.179   0.667  10.362 -1.9085 -0.7664 -0.9067
 8206TIP3   OH248812   1.347   3.769  12.485 -0.7115  0.0387  0.2985
 8206TIP3    H148813   1.297   3.817  12.551 -3.0469  1.8157 -2.5402
 8206TIP3    H248814   1.437   3.799  12.497 -1.3192  1.4722  1.6798
 8207TIP3   OH248815   3.745   7.594  10.322 -0.1345  0.1106  0.2522
 8207TIP3    H148816   3.684   7.658  10.360 -1.0355 -0.6415  0.1203
 8207TIP3    H248817   3.689   7.520  10.298  0.3505  0.5860 -2.6816
 8208TIP3   OH248818   6.392   3.137  11.935 -0.9765 -0.0641 -0.2653
 8208TIP3    H148819   6.462   3.071  11.930 -1.5324 -0.5722 -1.9578
 8208TIP3    H248820   6.338   3.108  12.008 -1.3570 -1.6732 -1.1367
 8209TIP3   OH248821   6.981   2.836  11.130 -0.2318 -0.0734 -0.0480
 8209TIP3    H148822   7.069   2.806  11.153 -0.5336  0.2744  1.7061
 8209TIP3    H248823   6.932   2.830  11.212 -1.5113  0.9240 -0.7080
 8210TIP3   OH248824   0.092   4.210  11.397 -0.3281 -0.2600 -0.5346
 8210TIP3    H148825   0.170   4.260  11.420 -0.4048 -0.1362 -0.5430
 8210TIP3    H248826   0.125   4.125  11.368 -0.2730 -0.6898  0.7457
 8211TIP3   OH248827   4.188   4.897  12.235 -0.3305  0.1594 -0.3753
 8211TIP3    H148828   4.218   4.843  12.161 -0.0669 -0.3787  0.1163
 8211TIP3    H248829   4.225   4.983  12.217 -0.5757  0.1353 -1.0606
 8212TIP3   OH248830   5.988   4.616  10.991 -0.6122  0.1892  0.0736
 8212TIP3    H148831   6.006   4.530  10.954  0.3725  0.7477 -0.7719
 8212TIP3    H248832   5.986   4.675  10.916 -0.7612  0.9943  0.6960
 8213TIP3   OH248833   6.862   6.158  12.816 -0.1358 -0.0776 -0.2389
 8213TIP3    H148834   6.835   6.191  12.902  1.2299  0.7165 -0.0819
 8213TIP3    H248835   6.946   6.115  12.832 -0.4134 -0.9280 -0.9899
 8214TIP3   OH248836   7.101   0.736  13.161 -0.2980 -0.0466  0.2544
 8214TIP3    H148837   7.172   0.675  13.144  1.1016  1.2249  1.2638
 8214TIP3    H248838   7.047   0.693  13.228  0.7560 -0.1461  1.0631
 8215TIP3   OH248839   1.040   6.360  13.212 -0.5317 -0.3307 -0.3844
 8215TIP3    H148840   1.007   6.279  13.172 -0.5749 -1.0006  0.9647
 8215TIP3    H248841   1.082   6.331  13.293 -3.1872  1.2416  1.7261
 8216TIP3   OH248842   1.881   4.419  11.407  0.7737  0.5165  0.2423
 8216TIP3    H148843   1.902   4.326  11.404 -0.4700  0.1385  1.7293
 8216TIP3    H248844   1.964   4.462  11.427  1.5845 -0.1196 -1.5323
 8217TIP3   OH248845   3.232   4.066  10.936 -0.0901 -0.0206 -0.0367
 8217TIP3    H148846   3.280   4.014  10.871  0.1198  0.5211 -0.3211
 8217TIP3    H248847   3.290   4.139  10.956 -0.4504  0.1909  0.2435
 8218TIP3   OH248848   1.928   0.484  11.456  0.0322  0.2910 -0.1304
 8218TIP3    H148849   1.949   0.498  11.549 -1.2052 -1.4015  0.4638
 8218TIP3    H248850   1.924   0.572  11.419 -1.6133  1.2127  1.9710
 8219TIP3   OH248851   2.416   6.375  11.896 -0.1914  0.6101  0.1284
 8219TIP3    H148852   2.379   6.446  11.844 -0.3801 -0.3145 -1.0462
 8219TIP3    H248853   2.396   6.296  11.846  0.0826 -0.2697  1.3585
 8220TIP3   OH248854   6.923   3.736  12.332  0.7056  0.0418 -0.2174
 8220TIP3    H148855   6.987   3.689  12.386  2.1287 -0.2733 -2.0807
 8220TIP3    H248856   6.868   3.668  12.294 -1.3931  0.3485  1.9928
 8221TIP3   OH248857   1.229   0.919  10.506 -0.6130  0.2042  0.3633
 8221TIP3    H148858   1.171   0.995  10.497 -0.5430  0.1839 -0.2791
 8221TIP3    H248859   1.275   0.914  10.422 -0.8183 -0.7093  0.3019
 8222TIP3   OH248860   2.568   1.174  10.972 -0.3005 -0.4366 -0.6519
 8222TIP3    H148861   2.593   1.147  10.884 -1.3186  1.4065 -1.5817
 8222TIP3    H248862   2.642   1.226  11.003 -0.1562 -0.6510 -0.6377
 8223TIP3   OH248863   6.822   1.900  10.470  0.1693 -0.3758  0.3977
 8223TIP3    H148864   6.813   1.977  10.527 -0.5715 -0.2282  0.1017
 8223TIP3    H248865   6.745   1.847  10.491  0.1105 -0.5191 -0.1632
 8224TIP3   OH248866   7.238   6.660  10.755  0.0263 -0.1620  0.0632
 8224TIP3    H148867   7.178   6.715  10.806 -0.6458 -0.3539 -0.4955
 8224TIP3    H248868   7.187   6.580  10.737  0.1160  0.0460 -1.1948
 8225TIP3   OH248869   6.482   0.773  11.392  0.4908  0.1359 -0.2091
 8225TIP3    H148870   6.468   0.816  11.477  0.2435 -1.1768  0.4353
 8225TIP3    H248871   6.524   0.690  11.414 -1.2267 -1.0471 -1.1991
 8226TIP3   OH248872   1.784   0.100  10.769  0.1018  0.0765  0.6587
 8226TIP3    H148873   1.777   0.182  10.819 -0.8074 -0.0045  0.6752
 8226TIP3    H248874   1.877   0.077  10.774  0.2339  0.7140  1.2885
 8227TIP3   OH248875   0.834   4.158  11.088 -0.4547  0.4110 -0.0642
 8227TIP3    H148876   0.738   4.155  11.082 -0.4017  1.9453 -3.6824
 8227TIP3    H248877   0.854   4.250  11.107  0.3454 -0.0144  1.3030
 8228TIP3   OH248878   5.020   6.502  12.045  0.3125  0.2912  0.5464
 8228TIP3    H148879   4.991   6.416  12.074  1.0470  0.2847  1.2824
 8228TIP3    H248880   4.939   6.546  12.017  0.0823 -1.0512 -1.0246
 8229TIP3   OH248881   6.582   1.238  12.279 -0.0383  0.2032 -0.1363
 8229TIP3    H148882   6.493   1.272  12.286  0.5765  2.0197 -0.6319
 8229TIP3    H248883   6.608   1.258  12.189  0.3791 -1.6486 -0.4691
 8230TIP3   OH248884   5.362   0.388  11.516  0.0379  0.0522 -0.1164
 8230TIP3    H148885   5.370   0.370  11.609  0.1896 -1.5206 -0.4136
 8230TIP3    H248886   5.445   0.432  11.493  0.8700 -1.3563  0.1025
 8231TIP3   OH248887   2.475   5.224  12.485 -0.3079 -0.0174  0.1192
 8231TIP3    H148888   2.559   5.266  12.472  0.5159 -1.3703  0.7972
 8231TIP3    H248889   2.418   5.293  12.518  0.4830  0.9444 -0.4657
 8232TIP3   OH248890   0.386   3.352  12.302 -0.4468 -0.5042 -0.0112
 8232TIP3    H148891   0.328   3.425  12.280 -1.0173 -1.3487 -1.4722
 8232TIP3    H248892   0.417   3.372  12.390 -2.0551  0.5675  0.3704
 8233TIP3   OH248893   2.536   4.591  12.140 -0.2985  0.1786  0.3632
 8233TIP3    H148894   2.477   4.639  12.199  0.8142  1.4572  0.4982
 8233TIP3    H248895   2.597   4.658  12.108  0.8703 -1.0266 -0.0210
 8234TIP3   OH248896   0.261   5.626  10.743 -0.7794  0.3537  0.1178
 8234TIP3    H148897   0.270   5.621  10.838  0.5096 -1.6214 -0.0483
 8234TIP3    H248898   0.193   5.692  10.729 -1.0592  0.6383  2.3989
 8235TIP3   OH248899   5.623   3.194  11.836  0.7508  0.3467  0.8218
 8235TIP3    H148900   5.703   3.212  11.786 -0.3901  2.2366 -0.4744
 8235TIP3    H248901   5.619   3.265  11.899 -0.8129  1.3906 -0.3774
 8236TIP3   OH248902   6.056   1.659  11.855  0.3439 -0.1238  0.4892
 8236TIP3    H148903   6.021   1.571  11.843  2.5796 -1.3166  2.0347
 8236TIP3    H248904   6.068   1.668  11.949  1.2326  1.3929  0.2667
 8237TIP3   OH248905   5.469   3.533  11.270  0.2658  0.0530  0.0502
 8237TIP3    H148906   5.449   3.477  11.195 -1.1756  1.5109 -0.7177
 8237TIP3    H248907   5.471   3.474  11.344  0.0607 -1.1937 -0.9100
 8238TIP3   OH248908   6.411   4.016  11.355  0.0097  0.0851  0.0691
 8238TIP3    H148909   6.397   4.079  11.285 -1.5964  0.1244  0.3778
 8238TIP3    H248910   6.324   3.979  11.372  0.7824 -1.7109  0.3681
 8239TIP3   OH248911   4.979   7.594  11.675  0.3465  0.2955 -0.3967
 8239TIP3    H148912   4.945   7.579  11.586  0.6816  1.2244 -0.6983
 8239TIP3    H248913   4.930   7.670  11.706 -0.7024 -0.8141  0.7421
 8240TIP3   OH248914   3.213   0.627  11.309  0.6053 -0.0941  0.3220
 8240TIP3    H148915   3.188   0.683  11.236  0.6924  0.2372  0.5429
 8240TIP3    H248916   3.131   0.605  11.353  0.6850  1.0041  1.0573
 8241TIP3   OH248917   0.978   2.215  12.238  0.6029 -0.4453 -0.3329
 8241TIP3    H148918   1.019   2.141  12.193  0.7501 -0.4167 -0.2446
 8241TIP3    H248919   0.945   2.178  12.320 -1.2054 -0.9001 -1.2099
 8242TIP3   OH248920   7.447   1.878  13.003  0.3408 -0.4817 -0.4180
 8242TIP3    H148921   7.496   1.810  13.050 -0.6239 -0.9817 -0.1060
 8242TIP3    H248922   7.503   1.956  13.009  1.9627 -1.4880 -1.6893
 8243TIP3   OH248923   5.452   3.691  11.685 -0.0461 -0.0301 -0.2521
 8243TIP3    H148924   5.437   3.678  11.779 -3.2301 -1.8583 -0.9087
 8243TIP3    H248925   5.532   3.642  11.667  0.5065  0.1714  1.4203
 8244TIP3   OH248926   1.648   2.989  10.803  0.1514  0.3023 -0.0058
 8244TIP3    H148927   1.708   3.047  10.757  2.5074  0.5361  3.0326
 8244TIP3    H248928   1.705   2.921  10.840 -1.6165 -0.2105  1.9348
 8245TIP3   OH248929   1.141   5.620  11.976 -0.4292 -0.2635  0.0864
 8245TIP3    H148930   1.092   5.562  12.035  1.5241 -1.0205  1.0621
 8245TIP3    H248931   1.159   5.698  12.029 -0.4717 -0.0411 -0.2253
 8246TIP3   OH248932   1.752   3.484  13.269 -0.5244 -0.0732 -0.1541
 8246TIP3    H148933   1.780   3.410  13.214  0.6172 -0.7761  1.3062
 8246TIP3    H248934   1.820   3.550  13.256 -1.3685  0.6281 -1.1914
 8247TIP3   OH248935   7.329   4.647  12.401  0.8526  0.2481 -0.7680
 8247TIP3    H148936   7.361   4.626  12.488  1.2869  0.5192 -0.8592
 8247TIP3    H248937   7.370   4.581  12.344 -0.8428 -1.0770 -0.5487
 8248TIP3   OH248938   0.487   2.260  10.517  0.6483 -0.1668 -0.0983
 8248TIP3    H148939   0.575   2.232  10.542  1.4674  1.2217 -1.2258
 8248TIP3    H248940   0.502   2.332  10.455 -1.2884  0.7368  0.4031
 8249TIP3   OH248941   6.225   4.413  12.637 -0.2612 -0.1239 -0.0249
 8249TIP3    H148942   6.296   4.475  12.656 -1.4643  1.2261  0.2496
 8249TIP3    H248943   6.153   4.468  12.605 -0.1805 -1.7345 -3.4236
 8250TIP3   OH248944   1.755   4.489  12.982 -0.7523 -0.3185  0.2566
 8250TIP3    H148945   1.672   4.442  12.987  0.4435 -2.8807 -1.6456
 8250TIP3    H248946   1.812   4.441  13.043 -0.3960  0.8793  0.8950
 8251TIP3   OH248947   4.921   0.846  10.364  0.7365 -0.3286  0.5806
 8251TIP3    H148948   5.008   0.848  10.403 -0.2527 -0.4845  3.0286
 8251TIP3    H248949   4.899   0.938  10.348  1.6055 -0.3374 -0.7424
 8252TIP3   OH248950   4.839   4.740  12.610 -0.2816  0.4629  1.0427
 8252TIP3    H148951   4.894   4.799  12.558 -0.5055  0.2929  0.6052
 8252TIP3    H248952   4.882   4.655  12.603 -0.6855  0.2949  0.5617
 8253TIP3   OH248953   0.588   6.095  12.585  0.2434  0.2219 -0.0322
 8253TIP3    H148954   0.619   6.172  12.633 -0.7046  0.7708 -0.2485
 8253TIP3    H248955   0.622   6.107  12.496 -0.5735  0.8511 -0.2828
 8254TIP3   OH248956   1.596   4.639  12.808 -0.3051 -0.5904 -0.5704
 8254TIP3    H148957   1.680   4.605  12.839 -0.5752 -0.9244 -0.1823
 8254TIP3    H248958   1.616   4.679  12.724  0.2223 -0.7733 -0.5399
 8255TIP3   OH248959   0.470   4.894  10.798  0.3400  0.9854 -0.2520
 8255TIP3    H148960   0.418   4.953  10.744  0.4650  0.6786 -0.7122
 8255TIP3    H248961   0.500   4.949  10.870  0.2401  1.4221 -0.5350
 8256TIP3   OH248962   0.807   3.067  11.693  0.0043  0.2649  0.1649
 8256TIP3    H148963   0.712   3.066  11.682  0.1182 -1.3891 -1.0195
 8256TIP3    H248964   0.822   3.034  11.782 -0.5092  0.5429  0.3567
 8257TIP3   OH248965   3.995   3.993  12.722 -0.2532 -0.1464 -0.3131
 8257TIP3    H148966   3.932   4.017  12.654 -0.4549  2.1255  0.5726
 8257TIP3    H248967   4.079   4.022  12.688 -0.1103 -0.4914 -0.2592
 8258TIP3   OH248968   3.059   7.492  12.365 -0.1569 -0.4610  0.4354
 8258TIP3    H148969   3.118   7.418  12.377 -0.1883 -0.6033 -0.2603
 8258TIP3    H248970   3.116   7.566  12.345 -0.1581 -0.3934  0.6741
 8259TIP3   OH248971   4.562   4.135  11.652  0.3789 -0.0954  0.0532
 8259TIP3    H148972   4.534   4.161  11.740 -1.1304 -2.1781  0.2691
 8259TIP3    H248973   4.538   4.042  11.645 -0.4565  0.2210 -2.8839
 8260TIP3   OH248974   5.746   2.868  11.641 -0.4076  0.4916  0.0162
 8260TIP3    H148975   5.651   2.855  11.641 -0.4813  0.4547 -2.4401
 8260TIP3    H248976   5.760   2.940  11.580  1.2419 -0.8531 -1.3134
 8261TIP3   OH248977   2.975   4.709  12.331 -0.1883  0.4833 -0.0482
 8261TIP3    H148978   2.972   4.792  12.284  2.1080 -0.5811 -2.2865
 8261TIP3    H248979   2.925   4.648  12.276  0.4065 -0.2272  0.1867
 8262TIP3   OH248980   0.456   3.472  11.401  0.1683  0.2110 -0.1569
 8262TIP3    H148981   0.430   3.560  11.428  3.8677  1.3680  0.2094
 8262TIP3    H248982   0.507   3.438  11.475 -0.4734 -1.9568 -0.6273
 8263TIP3   OH248983   7.498   2.271  10.524  0.3043  0.3178 -0.3300
 8263TIP3    H148984   7.466   2.199  10.469  1.5124 -0.4998 -0.0051
 8263TIP3    H248985   7.527   2.338  10.462 -0.1069  0.2012 -0.6495
 8264TIP3   OH248986   4.662   7.504  11.804 -0.3229  0.2835  0.2458
 8264TIP3    H148987   4.643   7.446  11.730  1.3995  0.7043 -0.5792
 8264TIP3    H248988   4.697   7.446  11.872 -1.1283  0.0143  0.4478
 8265TIP3   OH248989   5.415   1.981  10.835 -0.2382  0.3871  0.4193
 8265TIP3    H148990   5.511   1.980  10.837 -0.2487 -0.1109  1.7908
 8265TIP3    H248991   5.390   1.896  10.872 -1.2256 -0.4454 -1.9280
 8266TIP3   OH248992   3.181   4.187  11.845  0.5302 -0.0589  0.1715
 8266TIP3    H148993   3.119   4.206  11.774  0.4769  0.9928  0.4706
 8266TIP3    H248994   3.264   4.169  11.800  0.7568  1.5978 -0.1701
 8267TIP3   OH248995   1.180   3.571  11.936 -0.6778 -0.8041 -0.3016
 8267TIP3    H148996   1.097   3.523  11.935 -1.0811 -0.9948  5.6539
 8267TIP3    H248997   1.245   3.506  11.962  0.1208  0.4669  1.0132
 8268TIP3   OH248998   6.557   4.770  12.327  0.3858 -0.3635 -0.3573
 8268TIP3    H148999   6.591   4.796  12.412  0.1405  0.2961 -0.4518
 8268TIP3    H249000   6.462   4.771  12.338  0.3690 -2.0398 -0.1334
 8269TIP3   OH249001   4.587   7.593  12.131  0.3174  0.0090 -0.6908
 8269TIP3    H149002   4.650   7.625  12.195  0.2483 -0.8878 -0.1705
 8269TIP3    H249003   4.518   7.659  12.131  0.4128  0.1157  0.0083
 8270TIP3   OH249004   5.209   2.217  11.948 -0.2934 -0.4289  0.0191
 8270TIP3    H149005   5.289   2.179  11.911 -1.2155 -1.6067 -0.8061
 8270TIP3    H249006   5.176   2.275  11.879  0.9052  1.7289  1.1291
 8271TIP3   OH249007   3.135   1.733  12.286 -0.3096  0.1674  0.1041
 8271TIP3    H149008   3.170   1.644  12.300  1.7598  0.9059  0.0502
 8271TIP3    H249009   3.052   1.719  12.241 -0.1107 -1.7529  0.2261
 8272TIP3   OH249010   3.971   7.074  12.834  0.4434 -0.0330  0.1343
 8272TIP3    H149011   3.957   7.044  12.924 -0.1224 -0.8192 -0.2007
 8272TIP3    H249012   4.062   7.104  12.833  0.5873 -0.4045  0.8683
 8273TIP3   OH249013   4.381   2.449  11.267  0.4046  0.0650 -0.3231
 8273TIP3    H149014   4.318   2.521  11.272 -2.3008 -2.1486  0.2481
 8273TIP3    H249015   4.329   2.371  11.287  3.5142 -1.8874  0.7878
 8274TIP3   OH249016   3.774   7.434  12.806 -0.3649 -0.1902  0.1619
 8274TIP3    H149017   3.841   7.424  12.874 -0.1462  0.3796  0.0384
 8274TIP3    H249018   3.783   7.356  12.752 -0.4893 -0.6123  0.7443
 8275TIP3   OH249019   1.603   1.100  12.589  0.2185  0.1550  1.1609
 8275TIP3    H149020   1.593   1.020  12.640 -0.7418 -0.9528 -0.6346
 8275TIP3    H249021   1.514   1.119  12.557  0.9210  0.1004 -1.0138
 8276TIP3   OH249022   0.998   6.827  11.141  0.7025  0.0827 -0.1371
 8276TIP3    H149023   0.990   6.835  11.046  1.2458  2.4646 -0.0263
 8276TIP3    H249024   1.068   6.763  11.154  1.1969  0.3507 -1.3642
 8277TIP3   OH249025   7.420   5.951  12.313  0.4409 -0.1555 -0.1238
 8277TIP3    H149026   7.387   5.960  12.403  1.1887  0.5079  0.1030
 8277TIP3    H249027   7.341   5.946  12.259 -0.1091 -3.5212  0.7723
 8278TIP3   OH249028   3.748   1.165  12.315  0.1471  0.2541  0.2619
 8278TIP3    H149029   3.663   1.145  12.276  1.2169 -2.1447 -1.0765
 8278TIP3    H249030   3.758   1.098  12.383  0.6810  0.9603  0.8846
 8279TIP3   OH249031   2.730   0.008  12.449  0.6812 -0.1788 -0.3670
 8279TIP3    H149032   2.671  -0.066  12.465  0.0378  0.0593 -1.5036
 8279TIP3    H249033   2.815  -0.022  12.481  0.0573 -0.7058  0.8871
 8280TIP3   OH249034   4.007   5.630  10.799 -0.1120 -0.2335 -0.1771
 8280TIP3    H149035   3.917   5.598  10.801 -0.6823  1.2403 -0.3776
 8280TIP3    H249036   4.061   5.555  10.823 -1.4117 -1.0954  0.1150
 8281TIP3   OH249037   4.593   7.537  11.312  0.4509 -0.7344  0.1900
 8281TIP3    H149038   4.670   7.492  11.277  2.2385  1.9990  0.2973
 8281TIP3    H249039   4.580   7.498  11.399  1.8205 -1.1390  0.2393
 8282TIP3   OH249040   0.425   2.448  11.309 -0.5405  0.3580  0.4197
 8282TIP3    H149041   0.373   2.375  11.275 -0.0291  0.5233 -0.7803
 8282TIP3    H249042   0.373   2.484  11.381 -1.9987  0.3742 -0.5962
 8283TIP3   OH249043   3.261   2.388  11.029  0.0219 -0.1327 -0.3827
 8283TIP3    H149044   3.322   2.371  11.100 -0.9372 -0.2374  0.4438
 8283TIP3    H249045   3.255   2.483  11.023  0.2281 -0.1231 -0.4373
 8284TIP3   OH249046   3.637   0.607  11.585 -0.2149  0.6470 -0.3714
 8284TIP3    H149047   3.628   0.593  11.679 -1.0769 -1.7887 -0.7401
 8284TIP3    H249048   3.566   0.667  11.563 -0.2715  0.8979  0.4676
 8285TIP3   OH249049   1.910   1.790  12.873  0.1550  0.4175  0.5160
 8285TIP3    H149050   1.862   1.837  12.941 -0.0524  0.5545  0.2779
 8285TIP3    H249051   1.858   1.712  12.857  1.4333 -0.8434  2.1958
 8286TIP3   OH249052   3.613   3.649  10.354 -0.3684  0.1578 -0.3558
 8286TIP3    H149053   3.703   3.630  10.380 -0.0123  1.9319 -0.2302
 8286TIP3    H249054   3.585   3.720  10.412 -1.8413 -0.3090 -0.4443
 8287TIP3   OH249055   6.384   4.078  11.071 -0.1785 -0.7009  0.5616
 8287TIP3    H149056   6.343   3.993  11.090  0.4512 -1.2842 -0.5714
 8287TIP3    H249057   6.462   4.056  11.022 -0.2109  0.5748 -0.1000
 8288TIP3   OH249058   1.211   1.887  12.973 -0.3368  0.1425 -0.1615
 8288TIP3    H149059   1.290   1.840  12.946  1.1277  1.3992  1.6530
 8288TIP3    H249060   1.231   1.980  12.956 -0.4623  0.6953  2.3832
 8289TIP3   OH249061   4.588   3.456  11.533 -1.2031  0.3118 -0.5039
 8289TIP3    H149062   4.653   3.413  11.588 -1.0690 -1.2166 -1.7790
 8289TIP3    H249063   4.524   3.387  11.513 -1.0897  0.7096 -2.4565
 8290TIP3   OH249064   6.042   2.699  12.043  0.2476 -0.1768  0.2575
 8290TIP3    H149065   6.053   2.743  12.127  1.8696  0.9029 -0.4659
 8290TIP3    H249066   5.949   2.708  12.022  0.0977  0.7704  1.2701
 8291TIP3   OH249067   4.497   4.925  10.726  0.4115  0.0930  0.5004
 8291TIP3    H149068   4.524   4.838  10.752 -0.5663 -0.5875 -0.6614
 8291TIP3    H249069   4.459   4.914  10.639 -0.3589  1.5548  0.6055
 8292TIP3   OH249070   5.451   1.968  12.519  0.4287  0.4921 -0.3507
 8292TIP3    H149071   5.470   2.011  12.436  1.6507 -1.8438 -1.3784
 8292TIP3    H249072   5.530   1.978  12.571  0.7910 -0.5368 -0.6620
 8293TIP3   OH249073   0.493   0.251  11.422  0.3647  0.4041 -0.5343
 8293TIP3    H149074   0.399   0.235  11.426  0.4326 -0.5166 -1.9463
 8293TIP3    H249075   0.511   0.308  11.496 -1.0557 -0.6762  0.7117
 8294TIP3   OH249076   3.415   1.768  11.462 -0.5292 -0.2266  0.4517
 8294TIP3    H149077   3.342   1.720  11.423  0.8754 -0.3068 -2.2941
 8294TIP3    H249078   3.458   1.811  11.389  2.5232 -0.6302  1.8302
 8295TIP3   OH249079   3.010   4.083  12.055  0.3498 -0.0434 -0.0041
 8295TIP3    H149080   3.072   4.121  11.993  2.2408 -1.1976  1.0887
 8295TIP3    H249081   2.970   4.010  12.007  2.0711 -1.1718  0.1695
 8296TIP3   OH249082   0.910   6.308  10.634 -0.1318  0.0918  0.8400
 8296TIP3    H149083   0.955   6.343  10.557 -2.0163 -1.3283 -1.0168
 8296TIP3    H249084   0.852   6.378  10.662 -1.0043 -0.1184 -0.3958
 8297TIP3   OH249085   6.444   3.332  11.723  0.1608  0.3185 -0.1467
 8297TIP3    H149086   6.485   3.408  11.765 -0.9745  0.0577  1.5108
 8297TIP3    H249087   6.459   3.260  11.784  1.2772 -0.8527 -1.7254
 8298TIP3   OH249088   7.613   0.451  12.451  0.3050  0.0700 -0.2845
 8298TIP3    H149089   7.646   0.366  12.421 -0.3926  0.2056 -1.5032
 8298TIP3    H249090   7.545   0.429  12.515  2.1820 -0.2142  1.7425
 8299TIP3   OH249091   5.953   3.627  10.890 -0.7418  0.0004 -0.2133
 8299TIP3    H149092   5.991   3.564  10.951  0.4911  0.8730 -0.0663
 8299TIP3    H249093   5.932   3.574  10.812  2.3377 -0.2709 -0.9774
 8300TIP3   OH249094   7.645   6.582  11.293  0.0261  0.2641 -0.2784
 8300TIP3    H149095   7.688   6.591  11.378  0.5244 -1.8317 -0.2419
 8300TIP3    H249096   7.693   6.642  11.235  2.8968 -1.7177 -0.1606
 8301TIP3   OH249097   4.342   1.591  10.511 -0.5796  0.3451 -0.2899
 8301TIP3    H149098   4.328   1.496  10.517  0.1367  0.1090 -2.0053
 8301TIP3    H249099   4.264   1.629  10.553 -0.8943 -0.9884  0.3899
 8302TIP3   OH249100   5.864   0.113  11.645 -0.1813  0.3317 -0.0003
 8302TIP3    H149101   5.939   0.143  11.696 -0.5130 -0.8739  1.2564
 8302TIP3    H249102   5.793   0.106  11.708 -0.4707 -1.7267 -0.4586
 8303TIP3   OH249103   5.521   7.226  12.120 -0.1450  0.4186 -0.0852
 8303TIP3    H149104   5.498   7.143  12.078 -2.5278  0.5067  0.9033
 8303TIP3    H249105   5.469   7.291  12.073  0.8971  1.2214 -0.1520
 8304TIP3   OH249106   2.987   6.503  12.258 -0.3476  0.3689 -0.1244
 8304TIP3    H149107   2.919   6.568  12.237 -0.8028  0.4765  1.5348
 8304TIP3    H249108   2.992   6.504  12.354  1.5332 -0.1365 -0.1816
 8305TIP3   OH249109   7.587   1.548  10.856  0.2082  0.6535 -0.1515
 8305TIP3    H149110   7.567   1.608  10.928 -2.2413 -0.9020  0.5651
 8305TIP3    H249111   7.681   1.532  10.864  0.2969  1.8006  1.6646
 8306TIP3   OH249112   0.839   4.164  10.623  0.2765  0.2776  0.0398
 8306TIP3    H149113   0.770   4.215  10.581 -0.6099  1.0700  2.3003
 8306TIP3    H249114   0.812   4.073  10.611 -0.8948  0.5583  0.3755
 8307TIP3   OH249115   0.476   5.146  11.448  0.2295 -0.6073  0.1596
 8307TIP3    H149116   0.510   5.197  11.522 -1.8661 -0.2557  0.9360
 8307TIP3    H249117   0.395   5.108  11.480  0.7189 -2.8348 -1.0738
 8308TIP3   OH249118   4.495   1.351  13.089  0.0768  0.0961  0.0195
 8308TIP3    H149119   4.538   1.435  13.108 -1.1115  0.9934 -1.1030
 8308TIP3    H249120   4.403   1.365  13.111 -0.4403 -0.3650 -1.7326
 8309TIP3   OH249121   7.419   6.363  12.121 -0.1446 -0.2458 -0.0608
 8309TIP3    H149122   7.365   6.332  12.194 -0.5214 -1.9261 -1.0089
 8309TIP3    H249123   7.356   6.389  12.054  0.1969  1.4600  0.2222
 8310TIP3   OH249124   1.641   7.444  11.690  0.0800  0.4517  0.2206
 8310TIP3    H149125   1.576   7.403  11.746  0.5087  0.9372  1.0818
 8310TIP3    H249126   1.592   7.508  11.638 -0.4794 -0.6544 -0.6582
 8311TIP3   OH249127   6.468   4.663  11.613 -0.1016 -0.2865 -0.7713
 8311TIP3    H149128   6.482   4.754  11.588 -4.2947  1.1389  1.1707
 8311TIP3    H249129   6.515   4.653  11.696 -1.2729  0.8371  0.0641
 8312TIP3   OH249130   6.643   0.807  10.783 -0.5190 -0.2239  0.2565
 8312TIP3    H149131   6.568   0.837  10.835 -0.8130  1.3330 -0.9677
 8312TIP3    H249132   6.634   0.712  10.780  0.2278 -0.5474  4.0119
 8313TIP3   OH249133   4.379   5.762  11.266  1.0512  0.4207  0.4665
 8313TIP3    H149134   4.454   5.739  11.212 -0.3689 -1.3434 -0.9092
 8313TIP3    H249135   4.340   5.838  11.223  1.8146  1.1162  0.9795
 8314TIP3   OH249136   1.980   1.570  11.800 -0.4031  0.2163  0.0441
 8314TIP3    H149137   2.023   1.590  11.883  0.6377 -1.3734 -0.0637
 8314TIP3    H249138   1.994   1.476  11.788 -3.4160 -0.2757 -0.3187
 8315TIP3   OH249139   0.385   0.977  12.015  0.0046 -0.4161  0.9594
 8315TIP3    H149140   0.436   1.058  12.017 -1.2699  0.4339  0.5834
 8315TIP3    H249141   0.308   0.996  12.070 -1.8331 -0.2488 -1.4962
 8316TIP3   OH249142   3.937   5.030  11.862 -0.3389 -0.1360 -0.1736
 8316TIP3    H149143   3.892   5.115  11.863 -0.8320 -0.3802 -0.7805
 8316TIP3    H249144   3.993   5.033  11.785  0.1689 -0.1046  0.1897
 8317TIP3   OH249145   1.561   0.208  12.744  0.0661 -0.4068 -0.1254
 8317TIP3    H149146   1.642   0.159  12.734 -0.3742 -1.4548  1.2402
 8317TIP3    H249147   1.493   0.141  12.752 -0.5580  0.3838  1.7204
 8318TIP3   OH249148   4.865   3.426  10.695  0.2012 -0.3923 -0.4995
 8318TIP3    H149149   4.814   3.421  10.775 -0.6512  0.4864 -0.9658
 8318TIP3    H249150   4.801   3.444  10.626  1.3211  3.9171 -0.7150
 8319TIP3   OH249151   4.327   1.716  11.865 -0.0701 -0.6012 -0.7934
 8319TIP3    H149152   4.236   1.685  11.866  0.0834 -1.0998 -1.4110
 8319TIP3    H249153   4.328   1.786  11.800 -0.2761  0.2988  0.1379
 8320TIP3   OH249154   1.394   2.815  11.608 -0.2526  0.2234 -0.1005
 8320TIP3    H149155   1.335   2.745  11.578  0.6822  0.1641 -1.9848
 8320TIP3    H249156   1.372   2.889  11.551 -0.8020  1.3017  1.4629
 8321TIP3   OH249157   6.190   0.478  10.945 -0.7727 -0.4784  0.0990
 8321TIP3    H149158   6.101   0.449  10.923 -0.6691 -2.0513  1.5554
 8321TIP3    H249159   6.247   0.423  10.892 -0.6402 -0.4602  0.2225
 8322TIP3   OH249160   1.141   1.158  13.487  0.2054  0.0189  0.8845
 8322TIP3    H149161   1.119   1.239  13.440  2.1472 -0.1660 -0.4349
 8322TIP3    H249162   1.064   1.102  13.474  0.4626  0.1455 -1.7694
 8323TIP3   OH249163   1.290   4.723  11.174 -0.2236  0.0237  0.6354
 8323TIP3    H149164   1.249   4.702  11.090  0.7636 -0.9393  0.3589
 8323TIP3    H249165   1.345   4.647  11.193 -0.6037  0.1229  2.2828
 8324TIP3   OH249166   6.817   3.971  10.790 -0.3700  0.1688  0.5858
 8324TIP3    H149167   6.890   3.910  10.780  0.7762  1.5421  0.1963
 8324TIP3    H249168   6.790   3.991  10.700 -0.1655  0.8590  0.6680
 8325TIP3   OH249169   1.753   1.841  13.140 -0.2924 -0.1305  0.6703
 8325TIP3    H149170   1.841   1.812  13.164  0.7927  1.3789 -1.2133
 8325TIP3    H249171   1.701   1.760  13.140  2.1371 -1.9712 -2.5401
 8326TIP3   OH249172   7.550   7.219  10.967  0.1466 -0.0823 -0.2275
 8326TIP3    H149173   7.505   7.252  11.045 -0.0532  0.1269 -0.4327
 8326TIP3    H249174   7.625   7.278  10.957 -0.0657  0.1515 -0.4428
 8327TIP3   OH249175   3.786   2.654  10.667  0.5253 -0.2452  0.4335
 8327TIP3    H149176   3.880   2.672  10.658  0.4719 -0.3556 -0.4935
 8327TIP3    H249177   3.772   2.575  10.615  0.0813 -0.7741  1.3392
 8328TIP3   OH249178   5.091   6.310  11.019  0.2240  0.0984 -0.1417
 8328TIP3    H149179   5.058   6.398  11.039  0.1686  0.1162 -0.3141
 8328TIP3    H249180   5.186   6.318  11.031  0.3265  0.4446 -1.1341
 8329TIP3   OH249181   4.447   4.618  12.236 -0.1798  0.2389  0.1748
 8329TIP3    H149182   4.443   4.691  12.297 -1.1010 -0.4689  0.9983
 8329TIP3    H249183   4.526   4.634  12.184  1.9595 -0.2525  3.0206
 8330TIP3   OH249184   4.586   0.328  11.810  0.1683  0.5670 -0.2415
 8330TIP3    H149185   4.654   0.313  11.875  0.0132 -1.2991 -0.4436
 8330TIP3    H249186   4.633   0.337  11.727  0.2764  1.3257 -0.0992
 8331TIP3   OH249187   4.992   5.795  12.400  0.0271 -0.1489  0.0593
 8331TIP3    H149188   5.064   5.784  12.339 -0.2155 -1.7897  0.0090
 8331TIP3    H249189   5.023   5.753  12.481 -0.4766  0.0332  0.3494
 8332TIP3   OH249190   0.566   2.311  10.890 -0.4229  0.5447  0.3150
 8332TIP3    H149191   0.553   2.352  10.975 -1.1125  0.5331  0.2166
 8332TIP3    H249192   0.661   2.300  10.884 -0.2230  1.9802  0.4028
 8333TIP3   OH249193   2.092   6.223  11.571 -0.0482  0.3320 -0.0870
 8333TIP3    H149194   2.069   6.189  11.485  0.9137 -0.2831 -0.1195
 8333TIP3    H249195   2.075   6.317  11.565 -1.3248  0.0873 -0.4829
 8334TIP3   OH249196   7.076   1.786  10.320  0.3110 -0.4763  0.2379
 8334TIP3    H149197   7.015   1.713  10.320 -1.9091  1.2383 -0.9083
 8334TIP3    H249198   7.031   1.855  10.370  1.1188  0.9672 -0.9412
 8335TIP3   OH249199   3.852   5.307  11.487  0.4329 -0.1101  0.1773
 8335TIP3    H149200   3.899   5.225  11.477  1.6507  0.4605  0.9484
 8335TIP3    H249201   3.920   5.372  11.508 -0.3387  1.3329 -1.5144
 8336TIP3   OH249202   3.056   2.168  18.297  0.0266 -0.0707  0.5600
 8336TIP3    H149203   2.998   2.136  18.229  0.1274  1.1252 -0.1145
 8336TIP3    H249204   3.144   2.144  18.268  0.1220  0.9830 -0.0632
 8337TIP3   OH249205   7.359   1.471  12.281  0.2602 -0.7558 -0.0498
 8337TIP3    H149206   7.337   1.552  12.236 -2.2950  1.2473  4.1940
 8337TIP3    H249207   7.276   1.423  12.286  0.8453 -1.7139  0.8736
 8338TIP3   OH249208   0.380   7.038  10.998  0.6540 -0.2312 -0.1052
 8338TIP3    H149209   0.285   7.048  10.990  0.4675 -1.8000 -0.1588
 8338TIP3    H249210   0.412   7.127  11.015 -1.0642  0.0153  2.4025
 8339TIP3   OH249211   6.107   5.298  10.716  0.1912  0.2278  0.4121
 8339TIP3    H149212   6.189   5.336  10.685  1.4674 -1.5041  1.4865
 8339TIP3    H249213   6.062   5.371  10.759  1.2313  1.1660 -0.0298
 8340TIP3   OH249214   1.444   1.672  10.537 -0.2105 -0.0398 -0.4245
 8340TIP3    H149215   1.384   1.682  10.610 -0.6461 -0.2728 -0.7475
 8340TIP3    H249216   1.388   1.657  10.461  0.2679 -0.5444 -0.6853
 8341TIP3   OH249217   6.515   6.083  11.549  0.4331 -0.0564 -0.1204
 8341TIP3    H149218   6.589   6.142  11.542  1.4283 -1.2435  0.1228
 8341TIP3    H249219   6.553   5.999  11.576 -0.8869 -0.9018 -0.7564
 8342TIP3   OH249220   5.129   2.111  10.712  0.0240  0.0436  0.4770
 8342TIP3    H149221   5.187   2.036  10.699 -0.2460 -0.3171  1.2980
 8342TIP3    H249222   5.086   2.122  10.627 -1.6931 -2.2416  0.9420
 8343TIP3   OH249223   5.915   4.016  11.197 -0.3604 -0.4262 -0.4043
 8343TIP3    H149224   5.919   4.033  11.103 -0.8837 -0.1389 -0.3742
 8343TIP3    H249225   5.879   4.096  11.235 -0.4021 -0.6411  0.0143
 8344TIP3   OH249226   3.346   3.249  11.477  0.4237  0.0245  0.6338
 8344TIP3    H149227   3.286   3.184  11.440 -0.9697  1.5318  0.1277
 8344TIP3    H249228   3.349   3.319  11.411  3.6590 -0.4598  0.1054
 8345TIP3   OH249229   2.520   4.102  11.861  0.0741  0.3653 -0.1645
 8345TIP3    H149230   2.503   4.132  11.951  1.3498 -2.0433  0.9953
 8345TIP3    H249231   2.453   4.036  11.845  0.2452  0.3318 -0.7540
 8346TIP3   OH249232   3.768   7.545  11.532 -0.2752  0.2398 -0.0036
 8346TIP3    H149233   3.850   7.593  11.525  0.1643 -0.5197 -0.1955
 8346TIP3    H249234   3.774   7.498  11.615  0.3359 -1.3128 -0.8710
 8347TIP3   OH249235   5.379   0.442  10.536 -0.6930 -0.2535 -0.5416
 8347TIP3    H149236   5.352   0.350  10.544 -1.4673 -0.0370 -0.6219
 8347TIP3    H249237   5.307   0.485  10.490 -0.4093  0.4354 -0.3614
 8348TIP3   OH249238   2.695   6.954  18.258  0.2133 -0.1958  0.0148
 8348TIP3    H149239   2.752   6.988  18.189 -0.2076  0.4182 -0.0328
 8348TIP3    H249240   2.750   6.954  18.337 -0.2887  2.3928  0.4486
 8349TIP3   OH249241   6.530   0.004  11.928  0.5868 -0.3014  0.1474
 8349TIP3    H149242   6.472   0.069  11.968  1.7061  0.1852  1.0496
 8349TIP3    H249243   6.552   0.041  11.843 -0.5273 -0.5777 -0.2902
 8350TIP3   OH249244   5.121   1.059  12.020  0.0111 -0.2156 -0.5349
 8350TIP3    H149245   5.047   1.116  12.003 -1.5183 -1.5486  1.1715
 8350TIP3    H249246   5.185   1.114  12.066  0.1607  0.9640 -2.0961
 8351TIP3   OH249247   0.732   0.444  10.795 -0.0466 -0.0747 -0.4289
 8351TIP3    H149248   0.653   0.479  10.753  0.3182  1.6914  0.2935
 8351TIP3    H249249   0.782   0.521  10.822  2.1112 -1.1289 -1.1359
 8352TIP3   OH249250   4.003   0.026  10.380  0.4147  0.8532  0.1164
 8352TIP3    H149251   3.967  -0.039  10.319  2.2246 -0.4315  0.3321
 8352TIP3    H249252   3.973   0.110  10.346  0.2132  0.0737 -1.7434
 8353TIP3   OH249253   0.565   6.277  13.183  0.1163  0.5273  0.4782
 8353TIP3    H149254   0.506   6.259  13.109 -0.4877 -0.1074  1.1044
 8353TIP3    H249255   0.512   6.328  13.244  1.0731  2.4036 -0.1781
 8354TIP3   OH249256   6.512   5.064  12.195 -0.2334  0.3992 -0.8261
 8354TIP3    H149257   6.536   5.107  12.113  0.8845  1.7324  0.1555
 8354TIP3    H249258   6.515   4.971  12.175  0.6172  0.6810 -2.1282
 8355TIP3   OH249259   7.337   4.470  12.637 -0.1264  0.4446  0.5411
 8355TIP3    H149260   7.268   4.491  12.701 -0.7509  1.1385 -0.3347
 8355TIP3    H249261   7.404   4.537  12.652  0.1784  0.0206  1.1125
 8356TIP3   OH249262   4.971   0.464  11.438 -0.3850  0.0633 -0.0697
 8356TIP3    H149263   5.054   0.417  11.438 -0.3398  0.0855  1.2776
 8356TIP3    H249264   4.995   0.555  11.425 -0.1298  0.1369  0.8322
 8357TIP3   OH249265   6.812   7.422  11.375 -0.4264  0.5335 -0.6454
 8357TIP3    H149266   6.772   7.505  11.401 -2.2698 -0.1655 -1.0834
 8357TIP3    H249267   6.808   7.422  11.280  1.4453  0.7873 -0.7611
 8358TIP3   OH249268   4.318   5.504  12.024  0.0150 -0.0883  0.3222
 8358TIP3    H149269   4.272   5.420  12.032  0.7071 -0.5583 -0.5093
 8358TIP3    H249270   4.283   5.543  11.944  0.9712 -0.4168 -0.2801
 8359TIP3   OH249271   0.495   1.957  11.294  0.3623  0.1235 -0.4715
 8359TIP3    H149272   0.438   2.009  11.238  0.5391 -0.8938 -1.6407
 8359TIP3    H249273   0.439   1.886  11.326  0.5322  0.0947 -0.2385
 8360TIP3   OH249274   5.350   5.406  10.718  0.1636  0.4520  0.3578
 8360TIP3    H149275   5.298   5.418  10.798 -0.2158  0.1471  0.1590
 8360TIP3    H249276   5.430   5.458  10.734 -0.2146  0.9605  0.6503
 8361TIP3   OH249277   7.113   5.410  12.235 -0.0004 -0.0393 -0.2178
 8361TIP3    H149278   7.024   5.447  12.231  0.1444  0.5656  1.3750
 8361TIP3    H249279   7.100   5.317  12.220 -0.7149  0.2359 -1.4886
 8362TIP3   OH249280   0.478   5.563  13.441  0.2523  0.0060 -0.4819
 8362TIP3    H149281   0.387   5.533  13.437 -0.0118  0.7468 -0.3479
 8362TIP3    H249282   0.474   5.653  13.408  0.9104  0.0908 -0.3335
 8363TIP3   OH249283   4.161   4.558  11.390 -0.0488  0.3441 -1.0618
 8363TIP3    H149284   4.076   4.564  11.432  0.2087  0.1107 -0.4997
 8363TIP3    H249285   4.143   4.521  11.303 -0.4285 -0.5120 -0.6308
 8364TIP3   OH249286   2.939   6.695  11.088 -0.2881  0.9082 -0.1800
 8364TIP3    H149287   2.889   6.776  11.094 -2.7986 -0.5835  0.2359
 8364TIP3    H249288   2.979   6.684  11.174 -1.4789  0.7916  0.3667
 8365TIP3   OH249289   7.222   7.650  12.110  0.1556  0.4705 -0.2608
 8365TIP3    H149290   7.272   7.573  12.137  0.6026  1.0869  0.7543
 8365TIP3    H249291   7.217   7.644  12.015  0.7683 -0.4536 -0.2439
 8366TIP3   OH249292   1.628   3.786  10.969  0.0421 -0.0114  0.1368
 8366TIP3    H149293   1.695   3.797  11.038 -0.4764  0.5972  0.5528
 8366TIP3    H249294   1.572   3.716  11.002  0.0207  0.0139  0.1543
 8367TIP3   OH249295   7.527   2.015  13.264  0.2754 -0.0965 -0.1570
 8367TIP3    H149296   7.527   2.066  13.182  1.4104  1.4072  0.7181
 8367TIP3    H249297   7.615   1.977  13.268  0.5239  0.5228  0.7200
 8368TIP3   OH249298   4.944   1.306  12.413  0.1519 -0.4952  0.2617
 8368TIP3    H149299   4.929   1.299  12.319  2.3240 -0.7459 -0.1051
 8368TIP3    H249300   4.988   1.225  12.437 -1.1827 -0.8583  1.7195
 8369TIP3   OH249301   6.547   3.664  12.525  0.2195  0.6299 -0.5746
 8369TIP3    H149302   6.578   3.751  12.499 -1.6394  1.0972 -1.3891
 8369TIP3    H249303   6.561   3.662  12.620 -0.1505  2.0402 -0.4542
 8370TIP3   OH249304   4.079   5.921  10.791 -0.0279 -0.3263 -0.6772
 8370TIP3    H149305   4.170   5.899  10.812 -0.5430 -0.9861  1.0854
 8370TIP3    H249306   4.045   5.843  10.747  0.1159 -0.2541 -0.9204
 8371TIP3   OH249307   1.497   5.483  12.769  0.3443 -0.1873  0.4183
 8371TIP3    H149308   1.495   5.579  12.771 -1.8820 -0.1665 -0.0117
 8371TIP3    H249309   1.588   5.461  12.784  1.1276  2.0263 -0.6282
 8372TIP3   OH249310   5.459   0.496  10.940  0.7049 -0.1385 -0.2163
 8372TIP3    H149311   5.534   0.531  10.892  1.2499  1.1287  1.4958
 8372TIP3    H249312   5.461   0.540  11.025 -2.3972  0.4853 -0.3437
 8373TIP3   OH249313   4.070   6.925  12.286  0.0390  0.1645 -0.2912
 8373TIP3    H149314   4.131   6.999  12.289 -1.4906  1.4989 -0.1528
 8373TIP3    H249315   4.067   6.893  12.376  0.3331  0.2624 -0.2436
 8374TIP3   OH249316   2.378   1.193  10.641 -0.4360 -0.3067  0.3412
 8374TIP3    H149317   2.460   1.153  10.668  0.7255  1.5943 -0.2268
 8374TIP3    H249318   2.335   1.217  10.724 -0.5000 -1.4178  0.6428
 8375TIP3   OH249319   3.476   1.210  12.278  0.5847 -0.3023  0.1670
 8375TIP3    H149320   3.422   1.132  12.293  0.3585 -0.2698 -0.4706
 8375TIP3    H249321   3.420   1.283  12.305  0.1245 -0.2336 -0.9271
 8376TIP3   OH249322   5.381   3.098  11.366  0.8963  0.0900  0.1328
 8376TIP3    H149323   5.286   3.105  11.359  0.8659  0.3637  0.7303
 8376TIP3    H249324   5.396   3.058  11.452  1.2346 -2.7744 -1.1149
 8377TIP3   OH249325   3.053   0.164  10.444  0.3552  0.0463 -0.6195
 8377TIP3    H149326   2.982   0.111  10.408  0.1461 -0.8817  1.0342
 8377TIP3    H249327   3.010   0.222  10.508  1.0112 -0.2965  0.1615
 8378TIP3   OH249328   1.596   3.419  11.931 -0.3000  0.1696 -0.9321
 8378TIP3    H149329   1.676   3.371  11.952  0.1006  1.7725  1.6292
 8378TIP3    H249330   1.625   3.495  11.881 -0.1317  0.9039  0.2426
 8379TIP3   OH249331   7.317   3.767  12.473 -0.1582  0.4711  0.0808
 8379TIP3    H149332   7.282   3.683  12.503  1.3066 -0.5467 -0.9372
 8379TIP3    H249333   7.240   3.824  12.467 -1.0179 -0.3626  2.0764
 8380TIP3   OH249334   1.629   3.062  11.859 -0.2095 -0.1645  0.1397
 8380TIP3    H149335   1.541   3.076  11.822  0.6858  0.6360 -1.8302
 8380TIP3    H249336   1.617   2.988  11.919 -2.0869 -0.6223 -0.6903
 8381TIP3   OH249337   6.987   5.127  12.808 -0.0203 -0.5349  0.0087
 8381TIP3    H149338   7.009   5.204  12.756  0.0932 -1.5288 -1.4579
 8381TIP3    H249339   6.964   5.163  12.894 -0.4894  1.1791 -0.7736
 8382TIP3   OH249340   2.718   3.999  12.258  0.4453  0.0260 -0.1362
 8382TIP3    H149341   2.770   4.078  12.245  1.1298 -0.4743 -0.5009
 8382TIP3    H249342   2.643   4.028  12.311 -0.5868  1.4239 -2.1975
 8383TIP3   OH249343   6.639   6.048  12.693 -0.0420  0.4051  0.3660
 8383TIP3    H149344   6.634   6.135  12.654 -0.3859  0.3831  0.3551
 8383TIP3    H249345   6.591   5.992  12.631  0.3311  0.1764  0.2811
 8384TIP3   OH249346   5.574   5.328  10.558  0.0206  0.3940  0.3317
 8384TIP3    H149347   5.508   5.260  10.565  1.0963 -0.9622 -1.7239
 8384TIP3    H249348   5.532   5.397  10.506 -0.0036 -0.1449 -0.3626
 8385TIP3   OH249349   6.753   6.219  11.588 -0.0906 -0.0390  0.3697
 8385TIP3    H149350   6.817   6.250  11.524 -1.8697 -0.2824 -1.6244
 8385TIP3    H249351   6.716   6.299  11.625  0.4357  0.1148  0.5725
 8386TIP3   OH249352   4.065   6.414  10.729 -0.1967  0.4208  0.4690
 8386TIP3    H149353   4.050   6.330  10.684  1.3399  0.5834 -0.4390
 8386TIP3    H249354   4.033   6.399  10.818  0.3065 -1.2467  0.4196
 8387TIP3   OH249355   6.283   6.692  12.180  0.6239 -0.7212  0.0659
 8387TIP3    H149356   6.356   6.721  12.235  2.8993 -4.1091 -0.8419
 8387TIP3    H249357   6.294   6.740  12.098 -0.3760  1.3556  1.0650
 8388TIP3   OH249358   1.001   5.831  11.264  0.4179  0.8850  0.1336
 8388TIP3    H149359   0.971   5.791  11.345  0.6619  1.1628  0.3627
 8388TIP3    H249360   0.939   5.902  11.247 -0.8194 -0.3810 -0.9812
 8389TIP3   OH249361   7.150   2.560  12.138 -0.4119  0.4209 -0.2938
 8389TIP3    H149362   7.230   2.595  12.098  0.5909  0.1413  1.3829
 8389TIP3    H249363   7.091   2.545  12.064  0.8856  1.1180 -1.5221
 8390TIP3   OH249364   7.654   1.350  11.956 -0.2524 -0.4038 -0.0172
 8390TIP3    H149365   7.651   1.340  12.052  1.7228  0.8436  0.2337
 8390TIP3    H249366   7.568   1.386  11.933  0.2395  2.1932  1.7334
 8391TIP3   OH249367   4.102   4.876  11.117 -0.3025  0.1887  0.3620
 8391TIP3    H149368   4.038   4.916  11.057 -1.7031  0.3296  1.8876
 8391TIP3    H249369   4.184   4.876  11.068 -1.2096  1.0700 -1.2339
 8392TIP3   OH249370   3.891   3.281  13.039 -0.4326  0.2807 -0.0862
 8392TIP3    H149371   3.856   3.362  13.001 -1.3518  0.8222  1.7842
 8392TIP3    H249372   3.913   3.305  13.129 -0.1045 -1.4103  0.3095
 8393TIP3   OH249373   4.390   7.214  10.792 -0.4163 -0.4938  0.2026
 8393TIP3    H149374   4.449   7.147  10.759  2.0292  1.2901  0.6626
 8393TIP3    H249375   4.436   7.296  10.777 -2.9436  1.0568  0.3640
 8394TIP3   OH249376   3.083   7.124  11.729  0.1313 -0.2083  0.0131
 8394TIP3    H149377   3.017   7.193  11.735  1.7275  1.5733 -1.5045
 8394TIP3    H249378   3.160   7.160  11.770  1.0742 -0.9940 -0.9875
 8395TIP3   OH249379   5.873   6.348  11.276  0.5764  0.3474 -0.2205
 8395TIP3    H149380   5.811   6.379  11.342 -0.3216 -0.4670 -0.6485
 8395TIP3    H249381   5.884   6.422  11.216 -1.1597  0.0493 -0.9681
 8396TIP3   OH249382   1.742   4.456  10.755 -0.0315  0.3004 -0.3824
 8396TIP3    H149383   1.738   4.433  10.848  1.5208  0.2267 -0.3104
 8396TIP3    H249384   1.735   4.551  10.753 -1.5436  0.2187 -0.3249
 8397TIP3   OH249385   5.122   1.268  11.713 -0.3820  0.2134  0.5822
 8397TIP3    H149386   5.112   1.235  11.624  0.8266  1.8161 -0.1968
 8397TIP3    H249387   5.192   1.216  11.751 -1.0046 -0.5788  0.6838
 8398TIP3   OH249388   4.398   2.388  13.307  0.6359  0.7661  0.7160
 8398TIP3    H149389   4.428   2.478  13.317  0.1081  0.8868  1.3289
 8398TIP3    H249390   4.332   2.377  13.376  0.6669 -0.0751  0.6253
 8399TIP3   OH249391   0.304   6.151  13.479  0.1154  0.4070  0.7880
 8399TIP3    H149392   0.273   6.197  13.402  2.9903  0.7678 -0.2947
 8399TIP3    H249393   0.251   6.071  13.483 -1.0115  1.0355 -0.7239
 8400TIP3   OH249394   2.707   4.649  10.668 -0.4674  0.5337  0.2649
 8400TIP3    H149395   2.618   4.679  10.649 -0.1160  1.1974 -0.3707
 8400TIP3    H249396   2.763   4.721  10.640  0.3505 -0.3356 -0.4089
 8401TIP3   OH249397   5.046   6.884  13.272 -0.3122  0.0800 -0.0504
 8401TIP3    H149398   5.129   6.848  13.305 -0.1691  1.6375  1.4507
 8401TIP3    H249399   5.070   6.964  13.226 -1.0314  1.3440  1.6487
 8402TIP3   OH249400   4.353   6.269  10.586  0.6380  0.0663  0.2995
 8402TIP3    H149401   4.421   6.202  10.583  1.1382  0.4935  1.5814
 8402TIP3    H249402   4.284   6.230  10.639  0.6829  0.3535  0.5667
 8403TIP3   OH249403   1.345   0.776  12.172  0.0863  0.5957 -0.1370
 8403TIP3    H149404   1.289   0.846  12.137 -0.2575 -0.7030 -2.3846
 8403TIP3    H249405   1.382   0.734  12.095 -0.5697 -2.4012  1.0242
 8404TIP3   OH249406   5.969   0.621  11.488  0.8887 -0.6337  0.0812
 8404TIP3    H149407   5.937   0.708  11.462  0.5143  0.2232  3.0635
 8404TIP3    H249408   6.064   0.633  11.499  1.0818 -1.0552 -0.9787
 8405TIP3   OH249409   7.002   3.059  11.874 -0.0572  0.1573  0.2323
 8405TIP3    H149410   6.942   3.003  11.922 -0.5451  1.1466  0.8274
 8405TIP3    H249411   7.006   3.139  11.927  0.2879  0.8408 -0.7998
 8406TIP3   OH249412   4.324   2.708  11.034 -0.1260  0.3147  0.5015
 8406TIP3    H149413   4.230   2.718  11.048 -0.1458 -0.4379  0.9260
 8406TIP3    H249414   4.331   2.654  10.955 -0.0602 -0.0644  0.7634
 8407TIP3   OH249415   2.524   5.775  11.463 -0.1600 -0.3778 -0.3168
 8407TIP3    H149416   2.492   5.848  11.516  0.7335  0.9019 -1.4594
 8407TIP3    H249417   2.456   5.708  11.472 -1.2495  0.7587  0.3987
 8408TIP3   OH249418   0.266   4.152  13.023 -0.0648  0.5392 -0.4356
 8408TIP3    H149419   0.335   4.086  13.018 -0.9330 -1.2640  4.9069
 8408TIP3    H249420   0.196   4.118  12.967  1.4046 -0.2845 -1.8661
 8409TIP3   OH249421   3.052   1.133  11.842  0.4928  0.2358  0.2280
 8409TIP3    H149422   3.058   1.124  11.747  1.4981  0.2875  0.2807
 8409TIP3    H249423   3.065   1.227  11.858 -0.1285  0.2994  0.3912
 8410TIP3   OH249424   6.218   4.873  11.653 -0.0109 -0.1525  0.3928
 8410TIP3    H149425   6.267   4.948  11.686  0.3418 -0.2052  0.0024
 8410TIP3    H249426   6.194   4.898  11.564  0.5010 -0.6779  0.0968
 8411TIP3   OH249427   3.303   7.059  12.655 -0.5412  0.3040 -0.0853
 8411TIP3    H149428   3.274   7.148  12.632  0.8909  0.4632 -1.4783
 8411TIP3    H249429   3.396   7.058  12.632 -0.7688 -1.8765 -1.1230
 8412TIP3   OH249430   5.866   5.721  12.332  0.2382  0.5509 -0.1335
 8412TIP3    H149431   5.856   5.630  12.305  1.0415  0.4482 -0.1073
 8412TIP3    H249432   5.948   5.723  12.381 -0.2661  1.0976  0.7331
 8413TIP3   OH249433   7.262   7.301  10.752  0.0085  0.2826  0.6284
 8413TIP3    H149434   7.325   7.373  10.753 -0.4448  0.8099 -1.5952
 8413TIP3    H249435   7.298   7.238  10.689 -1.9077  0.9414 -1.2777
 8414TIP3   OH249436   7.309   5.569  12.638  0.3881 -0.2961 -0.1246
 8414TIP3    H149437   7.229   5.538  12.680  0.5827  0.2958  0.7126
 8414TIP3    H249438   7.377   5.508  12.668  0.4640 -0.0831  0.1399
 8415TIP3   OH249439   7.312   3.284  10.857 -0.1169  0.1366  0.0450
 8415TIP3    H149440   7.268   3.356  10.811  0.7398 -0.4147 -1.7258
 8415TIP3    H249441   7.241   3.225  10.883 -0.6988  0.9006  0.2006
 8416TIP3   OH249442   0.029   0.224  12.096 -0.2691 -0.1766 -0.2950
 8416TIP3    H149443  -0.009   0.276  12.026  0.3850 -0.1123 -0.6135
 8416TIP3    H249444   0.102   0.177  12.054  0.3525  0.1334  0.4137
 8417TIP3   OH249445   5.153   5.617  10.777  0.0457 -0.3365  0.2319
 8417TIP3    H149446   5.135   5.541  10.832 -0.0059 -0.1755  0.4389
 8417TIP3    H249447   5.222   5.588  10.717  0.5652 -0.3196  0.8069
 8418TIP3   OH249448   3.521   2.845  11.383  0.0110  0.4976 -0.5245
 8418TIP3    H149449   3.532   2.772  11.444 -0.4976  1.5496  0.8779
 8418TIP3    H249450   3.610   2.875  11.366  0.1618  0.1653 -0.3453
 8419TIP3   OH249451   4.398   5.426  11.529  0.4011  0.1155  0.5728
 8419TIP3    H149452   4.392   5.521  11.531  0.7414  0.2694 -2.2688
 8419TIP3    H249453   4.482   5.406  11.571  1.2048  1.2274 -0.4582
 8420TIP3   OH249454   4.272   7.465  12.126 -0.0632  0.5979  0.1338
 8420TIP3    H149455   4.282   7.560  12.124  0.7938  0.5479 -3.1876
 8420TIP3    H249456   4.178   7.450  12.128 -0.2601  1.5757 -0.9621
 8421TIP3   OH249457   4.139   3.004  11.916 -0.7563 -0.3502  0.3326
 8421TIP3    H149458   4.166   2.925  11.963 -1.6825 -0.8251  0.0963
 8421TIP3    H249459   4.124   3.069  11.984  1.5266  0.1379  0.4469
 8422TIP3   OH249460   0.743   3.180  10.828  0.0897 -0.2910 -0.2420
 8422TIP3    H149461   0.777   3.267  10.848  0.1318 -0.1066 -1.0725
 8422TIP3    H249462   0.745   3.175  10.732 -1.0935 -0.7241 -0.2673
 8423TIP3   OH249463   3.816   3.317  12.161 -0.3356  0.2153 -0.7070
 8423TIP3    H149464   3.750   3.382  12.186 -0.1278  0.3181 -0.4251
 8423TIP3    H249465   3.886   3.328  12.225  0.1495  0.3977 -1.2605
 8424TIP3   OH249466   1.387   6.089  11.587 -0.2779  0.4015 -0.0310
 8424TIP3    H149467   1.356   6.107  11.498  0.3019 -0.6405 -0.4528
 8424TIP3    H249468   1.307   6.079  11.638 -0.6164  0.7721 -0.4747
 8425TIP3   OH249469   3.342   5.011  11.009  0.1184  0.5741 -0.6897
 8425TIP3    H149470   3.426   4.992  11.051  0.4836  0.6239 -1.3916
 8425TIP3    H249471   3.305   5.082  11.062  0.6592  0.7634 -0.5601
 8426TIP3   OH249472   0.287   6.791  10.762  0.7852  0.1481 -0.3022
 8426TIP3    H149473   0.245   6.721  10.812 -0.5056  0.8899 -0.3053
 8426TIP3    H249474   0.221   6.819  10.699  1.6223  0.7223 -0.9528
 8427TIP3   OH249475   3.002   5.598  11.351 -0.0174  0.3646 -0.1372
 8427TIP3    H149476   2.972   5.523  11.300  0.6679 -0.6381  0.8850
 8427TIP3    H249477   2.922   5.646  11.373 -0.3814  0.4821 -1.5887
 8428TIP3   OH249478   7.437   0.465  11.592  0.1355  0.1489  0.4877
 8428TIP3    H149479   7.408   0.552  11.563  0.4513 -0.5503 -2.1568
 8428TIP3    H249480   7.371   0.438  11.656 -0.2109  2.1289  1.0356
 8429TIP3   OH249481   6.238   0.746  10.914 -0.5141  0.0925  0.0160
 8429TIP3    H149482   6.231   0.787  11.001 -0.1734 -0.5095  0.3327
 8429TIP3    H249483   6.227   0.652  10.931  2.0277 -0.3216 -0.2347
 8430TIP3   OH249484   2.330   3.618  12.893 -0.1991  0.2771  0.3121
 8430TIP3    H149485   2.405   3.630  12.950 -0.7740  0.5163  1.0412
 8430TIP3    H249486   2.254   3.622  12.952 -0.7290 -1.2319 -0.2179
 8431TIP3   OH249487   2.670   4.163  10.880  0.6901  0.4817 -0.3780
 8431TIP3    H149488   2.691   4.256  10.868  2.0116 -0.0740 -3.2004
 8431TIP3    H249489   2.756   4.121  10.892  0.0654 -0.3639  1.6519
 8432TIP3   OH249490   5.038   7.093  12.655  0.7651  0.1010 -0.3045
 8432TIP3    H149491   5.118   7.066  12.610  1.1319  0.9303 -0.1742
 8432TIP3    H249492   5.066   7.111  12.745  0.1634 -0.9274  0.0971
 8433TIP3   OH249493   6.977   1.548  10.414 -0.1265  0.3852 -0.1060
 8433TIP3    H149494   6.950   1.462  10.380 -1.3097  0.9276 -0.5633
 8433TIP3    H249495   6.948   1.547  10.505 -0.6848  0.5279 -0.2797
 8434TIP3   OH249496   1.278   0.809  11.185 -0.7870 -0.5282 -0.2154
 8434TIP3    H149497   1.192   0.783  11.220  0.7987 -2.1227  2.9050
 8434TIP3    H249498   1.307   0.734  11.133 -1.0733 -0.1427 -0.9502
 8435TIP3   OH249499   0.926   5.742  11.513 -0.4679 -0.3250 -0.0051
 8435TIP3    H149500   0.831   5.735  11.517 -0.3697 -1.2397  1.2201
 8435TIP3    H249501   0.954   5.750  11.604  0.5809  0.9246 -0.3984
 8436TIP3   OH249502   0.321   0.065  11.721 -0.2176  0.5573  0.3622
 8436TIP3    H149503   0.353   0.135  11.779  2.2045 -0.2576  0.1254
 8436TIP3    H249504   0.282   0.001  11.780  0.5729  0.5775  0.9160
 8437TIP3   OH249505   0.625   2.165  11.483  0.1808  0.0252  0.6166
 8437TIP3    H149506   0.619   2.163  11.387 -1.4018 -0.6304  0.6892
 8437TIP3    H249507   0.535   2.150  11.512  0.3265  1.8612  2.2075
 8438TIP3   OH249508   5.947   0.752  11.087 -0.2690 -0.2619  0.0431
 8438TIP3    H149509   5.958   0.727  10.995 -0.4610  1.8477 -0.6039
 8438TIP3    H249510   5.964   0.671  11.136  0.1795 -1.3549 -1.8155
 8439TIP3   OH249511   1.174   3.976  11.731 -0.3329  0.0092  0.3714
 8439TIP3    H149512   1.172   4.055  11.784 -0.4570  1.0309 -1.0891
 8439TIP3    H249513   1.255   3.982  11.681  0.1179 -1.2644  0.9011
 8440TIP3   OH249514   3.370   1.808  10.368 -0.4125  0.1491 -0.4569
 8440TIP3    H149515   3.344   1.894  10.335 -2.3903  0.0138  0.5997
 8440TIP3    H249516   3.288   1.766  10.394  0.7589 -0.5781  2.5663
 8441TIP3   OH249517   2.220   5.220  13.334 -0.5125 -0.4801 -0.2247
 8441TIP3    H149518   2.227   5.256  13.245 -1.4805 -1.8660 -0.8904
 8441TIP3    H249519   2.150   5.156  13.329 -2.0978  0.9197  2.0813
 8442TIP3   OH249520   3.242   6.763  10.928 -0.0421 -0.2562  0.0881
 8442TIP3    H149521   3.188   6.800  10.997  0.0091 -0.4396  0.2286
 8442TIP3    H249522   3.218   6.670  10.926  1.6595 -0.7768  1.4882
 8443TIP3   OH249523   0.132   1.754  10.661  0.5429  0.0043  0.1297
 8443TIP3    H149524   0.155   1.669  10.699 -0.4515 -1.0558 -1.5347
 8443TIP3    H249525   0.040   1.745  10.635  1.3104  0.3856 -3.0912
 8444TIP3   OH249526   0.638   0.894  12.965 -0.2522 -0.2512 -0.3066
 8444TIP3    H149527   0.634   0.800  12.984  0.0117 -0.0951  0.5490
 8444TIP3    H249528   0.547   0.920  12.954 -0.3129 -0.6560 -0.8123
 8445TIP3   OH249529   3.185   3.406  11.002 -0.1041  0.1208 -0.2380
 8445TIP3    H149530   3.160   3.498  11.013 -0.4752  0.1672 -1.3675
 8445TIP3    H249531   3.123   3.372  10.938  0.1872 -0.8599 -0.0083
 8446TIP3   OH249532   4.980   3.851  10.957 -0.1011 -0.0991  0.4372
 8446TIP3    H149533   5.015   3.812  10.876  0.5612  1.0824  0.1315
 8446TIP3    H249534   4.887   3.865  10.938 -0.2152 -0.9267  0.3270
 8447TIP3   OH249535   1.209   3.232  10.377 -0.0455 -0.7874  0.2822
 8447TIP3    H149536   1.213   3.156  10.318  0.6961 -1.4399  1.1351
 8447TIP3    H249537   1.288   3.283  10.355 -0.1636 -0.6395  0.2008
 8448TIP3   OH249538   7.674   2.048  10.850  0.0707  0.0855 -0.5842
 8448TIP3    H149539   7.619   2.000  10.912  0.0978  1.0195  0.1945
 8448TIP3    H249540   7.673   1.995  10.771 -1.5660 -0.1777 -0.4294
 8449TIP3   OH249541   6.377   6.343  11.701  0.0166 -0.0035 -0.3067
 8449TIP3    H149542   6.365   6.273  11.765  0.8103 -0.6849 -0.8906
 8449TIP3    H249543   6.294   6.392  11.703 -0.0088 -0.0457  1.1811
 8450TIP3   OH249544   2.387   7.026  11.848  0.0368  0.2557  0.3737
 8450TIP3    H149545   2.461   6.988  11.800  0.5179  1.3193  0.2513
 8450TIP3    H249546   2.312   6.970  11.824  1.1537 -2.2338  2.2529
 8451TIP3   OH249547   5.615   6.233  12.252 -0.1161  0.0914  0.7275
 8451TIP3    H149548   5.646   6.321  12.232 -0.5910  0.5181  1.8275
 8451TIP3    H249549   5.555   6.212  12.180  0.7471  0.2656 -0.0568
 8452TIP3   OH249550   3.875   5.633  11.484 -0.6519 -0.1333  0.6990
 8452TIP3    H149551   3.945   5.655  11.422 -0.7049  1.0110  1.0244
 8452TIP3    H249552   3.807   5.593  11.430  0.5116 -1.9085  0.4761
 8453TIP3   OH249553   0.647   1.551  12.640  0.1581  0.2512  0.3717
 8453TIP3    H149554   0.741   1.535  12.651  0.2572 -0.6389 -1.3929
 8453TIP3    H249555   0.616   1.574  12.727  2.0910  1.0165  0.9101
 8454TIP3   OH249556   2.616   6.008  13.273 -0.3332 -0.7275 -0.5446
 8454TIP3    H149557   2.682   6.068  13.309  0.2615 -1.1602 -0.8982
 8454TIP3    H249558   2.537   6.062  13.263 -0.3448 -0.4476  0.8354
 8455TIP3   OH249559   0.319   5.218  11.819 -0.7298 -0.4056  0.1876
 8455TIP3    H149560   0.340   5.304  11.855 -2.3271  0.2553 -0.3534
 8455TIP3    H249561   0.392   5.162  11.844  2.4937  2.0066 -2.8516
 8456TIP3   OH249562   5.496   5.904  11.754 -0.5156  0.1045 -0.1219
 8456TIP3    H149563   5.532   5.880  11.668 -1.7227  0.1978 -0.6731
 8456TIP3    H249564   5.468   5.995  11.743  0.5504  0.5732  0.8000
 8457TIP3   OH249565   7.526   6.074  10.476  0.4016  0.9171  0.7624
 8457TIP3    H149566   7.487   5.993  10.507  0.0835  0.5796 -0.4591
 8457TIP3    H249567   7.598   6.046  10.419 -0.1869  1.4452 -0.2824
 8458TIP3   OH249568   7.025   5.582  11.139  0.0600  0.7375 -0.7677
 8458TIP3    H149569   6.979   5.536  11.209 -0.2460  1.0364 -0.7643
 8458TIP3    H249570   7.027   5.520  11.066 -1.7163  1.2364 -1.2891
 8459TIP3   OH249571   2.396   4.175  11.476 -0.2084  0.2000 -0.1738
 8459TIP3    H149572   2.485   4.140  11.466 -0.7171 -0.8052 -1.3971
 8459TIP3    H249573   2.342   4.098  11.495 -0.9414  0.7062 -0.1553
 8460TIP3   OH249574   4.141   2.046  12.395  0.0994  0.1900  0.4751
 8460TIP3    H149575   4.189   2.100  12.331 -0.5075 -0.1087 -0.2552
 8460TIP3    H249576   4.116   2.107  12.464  0.1299  0.6881  0.0588
 8461TIP3   OH249577   4.358   2.470  10.803  0.0451 -0.2433  0.3795
 8461TIP3    H149578   4.423   2.540  10.800  0.2336 -0.3542  1.5313
 8461TIP3    H249579   4.393   2.407  10.866 -2.5075  1.0972  3.4002
 8462TIP3   OH249580   1.179   4.969  11.708 -0.3154 -0.0235  0.2924
 8462TIP3    H149581   1.146   5.036  11.648  0.0098 -0.4145 -0.3272
 8462TIP3    H249582   1.179   5.012  11.794  1.2716  1.2848 -0.3070
 8463TIP3   OH249583   1.039   5.658  10.532  0.2156  0.1155  0.4746
 8463TIP3    H149584   1.036   5.694  10.621  1.2107  1.7093 -0.1097
 8463TIP3    H249585   0.971   5.706  10.485  1.3665  1.0974 -0.2400
 8464TIP3   OH249586   4.417   5.597  10.995  0.0091  0.3600 -0.5173
 8464TIP3    H149587   4.352   5.561  11.056 -0.9485  0.5142 -1.4331
 8464TIP3    H249588   4.492   5.618  11.051 -1.0539  1.0431  0.7154
 8465TIP3   OH249589   6.742   3.491  12.359  0.4952 -0.4328  0.1736
 8465TIP3    H149590   6.816   3.500  12.419  0.6479  2.0228 -0.2780
 8465TIP3    H249591   6.667   3.527  12.407  0.0113 -1.0454 -0.1035
 8466TIP3   OH249592   3.602   0.947  13.064  0.4945  0.2295  0.2188
 8466TIP3    H149593   3.525   0.891  13.053  1.2642 -0.8013 -0.1054
 8466TIP3    H249594   3.585   1.022  13.007  0.0231 -0.3184 -0.3863
 8467TIP3   OH249595   0.103   2.323  11.912 -0.1479 -0.0340 -0.6004
 8467TIP3    H149596   0.186   2.278  11.899 -0.2342 -0.3424 -0.1395
 8467TIP3    H249597   0.115   2.373  11.993 -0.6746 -0.7414 -0.0684
 8468TIP3   OH249598   1.566   4.986  11.323  0.1176 -0.2653 -0.0293
 8468TIP3    H149599   1.602   4.917  11.378 -0.1718  0.7603  1.5055
 8468TIP3    H249600   1.637   5.048  11.312 -0.6617  1.0354  1.7894
 8469TIP3   OH249601   3.664   0.012  11.865 -0.2936 -0.4275 -0.3243
 8469TIP3    H149602   3.651   0.012  11.771 -1.6183  1.1245 -0.1738
 8469TIP3    H249603   3.737   0.072  11.880 -0.1386 -0.6096 -0.3339
 8470TIP3   OH249604   3.022   1.439  10.348  0.1191  0.1269  0.0923
 8470TIP3    H149605   3.070   1.357  10.340 -0.1165  0.0363 -0.4008
 8470TIP3    H249606   2.930   1.415  10.343  0.0521  0.4381 -0.2178
 8471TIP3   OH249607   1.238   1.432  12.153  0.1823 -0.2250  0.2520
 8471TIP3    H149608   1.332   1.437  12.169  0.0661  0.2383  0.8081
 8471TIP3    H249609   1.206   1.369  12.218 -0.4634  2.4930  2.7868
 8472TIP3   OH249610   4.793   3.732  13.072  0.3941 -0.3770 -0.2552
 8472TIP3    H149611   4.885   3.738  13.045  0.3130 -1.9598 -0.9906
 8472TIP3    H249612   4.762   3.823  13.071  1.5710  0.0490 -1.3986
 8473TIP3   OH249613   2.266   5.346  13.095 -0.2809  0.5169  0.6583
 8473TIP3    H149614   2.352   5.346  13.137  0.7003  0.5789 -1.2584
 8473TIP3    H249615   2.274   5.283  13.024 -1.1353  2.0613 -0.8829
 8474TIP3   OH249616   0.403   7.067  11.360 -0.2897 -0.9869 -0.1075
 8474TIP3    H149617   0.371   6.988  11.317 -2.1305 -0.6184  0.5294
 8474TIP3    H249618   0.361   7.139  11.312  1.1038 -0.3818 -0.4719
 8475TIP3   OH249619   0.586   0.848  11.793  0.0516 -0.4029 -0.1607
 8475TIP3    H149620   0.492   0.845  11.775 -0.1930 -0.5367  1.0847
 8475TIP3    H249621   0.619   0.764  11.762 -0.0025  0.1374 -1.7653
 8476TIP3   OH249622   5.365   5.356  12.941 -0.0953  0.0177 -0.1935
 8476TIP3    H149623   5.308   5.432  12.947  0.1235  0.2058 -0.4589
 8476TIP3    H249624   5.318   5.287  12.987 -1.0784 -0.1585 -1.4227
 8477TIP3   OH249625   6.145   1.633  12.622 -0.2704  0.2605 -0.6731
 8477TIP3    H149626   6.201   1.703  12.590 -0.3232  0.7719  0.3207
 8477TIP3    H249627   6.137   1.573  12.548  1.2915  0.3550 -0.9476
 8478TIP3   OH249628   2.450   6.005  11.625 -0.5149  0.3447 -0.1687
 8478TIP3    H149629   2.502   6.073  11.582 -1.1582  1.0247  0.1033
 8478TIP3    H249630   2.489   5.997  11.712 -0.8146  0.8218  0.0184
 8479TIP3   OH249631   6.307   4.709  12.066 -0.2139 -0.4020 -0.3057
 8479TIP3    H149632   6.238   4.702  12.000  0.2696  2.3951 -1.2340
 8479TIP3    H249633   6.383   4.666  12.026 -0.6321 -1.0027 -0.4607
 8480TIP3   OH249634   7.144   1.099  11.227  0.0176 -0.0646 -0.0297
 8480TIP3    H149635   7.234   1.068  11.239 -0.2201 -1.2388 -1.0934
 8480TIP3    H249636   7.092   1.046  11.286 -0.5330 -2.6015 -2.6089
 8481TIP3   OH249637   1.054   7.328  12.809 -0.6117 -0.0518  0.3311
 8481TIP3    H149638   1.054   7.303  12.901  1.4311  1.5183  0.8247
 8481TIP3    H249639   1.104   7.409  12.806  1.6343 -1.3854 -2.4725
 8482TIP3   OH249640   5.573   5.386  11.975 -0.2644 -0.3051 -0.3058
 8482TIP3    H149641   5.653   5.418  12.018 -0.3023  0.2673 -0.6535
 8482TIP3    H249642   5.516   5.360  12.047 -0.0063 -0.1270 -0.0364
 8483TIP3   OH249643   2.778   5.619  12.739 -0.2579  0.1121 -0.5351
 8483TIP3    H149644   2.840   5.623  12.811  0.4496 -1.9263 -0.9522
 8483TIP3    H249645   2.694   5.598  12.780 -0.0324 -0.1915 -0.2336
 8484TIP3   OH249646   3.493   5.702  12.491 -0.0161 -0.0524  0.2185
 8484TIP3    H149647   3.408   5.713  12.449  0.5630  0.5975 -0.8435
 8484TIP3    H249648   3.495   5.611  12.519 -1.6076  0.2812  1.5275
 8485TIP3   OH249649   6.251   7.418  10.555 -0.0753 -0.0856 -0.1398
 8485TIP3    H149650   6.254   7.439  10.461 -1.3719 -1.0084 -0.4221
 8485TIP3    H249651   6.172   7.461  10.586  0.2611  0.0769  0.4956
 8486TIP3   OH249652   4.293   6.630  11.152  1.0676 -0.1143 -0.0565
 8486TIP3    H149653   4.302   6.642  11.058  0.4623 -0.2554 -0.1365
 8486TIP3    H249654   4.336   6.707  11.190  0.8183  0.2331 -0.4633
 8487TIP3   OH249655   6.440   4.266  10.741 -0.3995  0.7576 -0.3307
 8487TIP3    H149656   6.358   4.314  10.743 -0.6467  0.3292 -0.2026
 8487TIP3    H249657   6.415   4.174  10.736  0.0522  0.5290  1.0628
 8488TIP3   OH249658   6.673   0.065  11.035  0.0776 -0.0155  0.6460
 8488TIP3    H149659   6.652   0.040  10.945  0.4075 -0.4967  0.7025
 8488TIP3    H249660   6.761   0.031  11.050 -1.1417 -2.8054  2.2017
 8489TIP3   OH249661   7.407   0.550  11.180 -0.0423  0.3213 -0.4506
 8489TIP3    H149662   7.409   0.490  11.255 -0.7935 -0.7610 -1.2758
 8489TIP3    H249663   7.399   0.493  11.104 -1.6717  1.4925 -1.2183
 8490TIP3   OH249664   6.912   6.196  11.847 -0.1432  0.7569 -0.0501
 8490TIP3    H149665   6.904   6.129  11.779  1.0343  0.4896  0.0662
 8490TIP3    H249666   6.860   6.162  11.920  2.1681 -1.1240  0.8319
 8491TIP3   OH249667   7.239   2.244  10.914 -0.2344  0.1500  0.4072
 8491TIP3    H149668   7.254   2.281  11.001 -1.1710  1.8529 -0.0972
 8491TIP3    H249669   7.325   2.244  10.873  0.1905 -0.5255  1.2579
 8492TIP3   OH249670   4.256   5.673  11.797 -0.5028  0.0568  0.2400
 8492TIP3    H149671   4.225   5.687  11.708 -1.3481  1.2757  0.6792
 8492TIP3    H249672   4.342   5.715  11.800 -0.4699  0.0052 -0.0116
 8493TIP3   OH249673   3.317   6.788  12.743 -0.1741  0.2367  0.6796
 8493TIP3    H149674   3.303   6.882  12.736  1.4032  0.4682  0.1681
 8493TIP3    H249675   3.384   6.778  12.810 -0.7919 -0.5743  1.1919
 8494TIP3   OH249676   3.777   7.565  12.381  0.3489  0.3834 -0.2627
 8494TIP3    H149677   3.800   7.638  12.323 -0.9353  1.5657  0.6640
 8494TIP3    H249678   3.852   7.556  12.440  1.4143 -0.4491 -1.6749
 8495TIP3   OH249679   3.491   1.413  10.986  0.2974 -0.5221 -0.0913
 8495TIP3    H149680   3.567   1.469  10.968 -0.2703  0.0033 -0.9052
 8495TIP3    H249681   3.525   1.324  10.979  1.0435 -0.2930  0.4750
 8496TIP3   OH249682   6.588   0.429  12.975  0.1116  0.2445 -0.2634
 8496TIP3    H149683   6.505   0.474  12.961  0.6742  1.0265 -1.2601
 8496TIP3    H249684   6.565   0.337  12.984 -0.8727  0.4708 -0.4260
 8497TIP3   OH249685   0.634   5.281  11.257 -0.3412  0.3059 -0.0763
 8497TIP3    H149686   0.576   5.254  11.186 -1.3835  0.5205  0.6736
 8497TIP3    H249687   0.602   5.234  11.334 -2.8624  4.1103  1.5491
 8498TIP3   OH249688   6.033   1.208  12.525 -0.2645  0.0366 -0.5230
 8498TIP3    H149689   6.116   1.225  12.569  0.3937 -0.2691 -1.6272
 8498TIP3    H249690   6.056   1.198  12.433 -1.1792 -2.3441 -0.5570
 8499TIP3   OH249691   5.656   1.740  12.336 -0.4088 -0.0995 -0.4412
 8499TIP3    H149692   5.651   1.829  12.371 -1.4324 -0.4461  0.3392
 8499TIP3    H249693   5.629   1.748  12.245 -0.9381  0.3190 -0.2518
 8500TIP3   OH249694   5.836   5.956  11.053 -0.1182 -0.4273 -0.5723
 8500TIP3    H149695   5.897   6.007  10.999 -0.4809 -0.3039 -0.8707
 8500TIP3    H249696   5.753   6.001  11.043  0.2525  0.9328  1.8716
 8501TIP3   OH249697   5.673   6.724  11.011 -0.3307  0.2859  0.1839
 8501TIP3    H149698   5.596   6.667  11.020  0.8964 -1.6540 -0.7809
 8501TIP3    H249699   5.739   6.685  11.068  0.7419  0.3052 -0.9811
 8502TIP3   OH249700   0.702   7.097  12.455  0.9621  0.0306 -0.1663
 8502TIP3    H149701   0.777   7.064  12.406 -0.8031 -2.5297 -1.3690
 8502TIP3    H249702   0.659   7.160  12.396  1.3061  0.3458 -0.0825
 8503TIP3   OH249703   2.171   1.361  11.507 -0.2813 -0.2792  0.5428
 8503TIP3    H149704   2.100   1.419  11.536  1.1676  1.8148  0.1252
 8503TIP3    H249705   2.148   1.275  11.544 -2.2442  0.6506  1.6534
 8504TIP3   OH249706   1.086   6.451  10.478  0.3722 -0.3883  0.3586
 8504TIP3    H149707   1.082   6.520  10.411 -1.4957 -0.9097 -0.1117
 8504TIP3    H249708   1.103   6.499  10.560  0.5181  0.4699 -0.1563
 8505TIP3   OH249709   3.333   3.535  11.640 -0.1052  0.3471  0.0036
 8505TIP3    H149710   3.291   3.568  11.720  1.1248  1.2763  0.3044
 8505TIP3    H249711   3.329   3.440  11.648 -0.7486  0.4254  0.7600
 8506TIP3   OH249712   0.193   5.578  11.709  0.2367 -0.0715 -0.1852
 8506TIP3    H149713   0.115   5.628  11.685  0.5926 -0.8554 -3.4525
 8506TIP3    H249714   0.160   5.491  11.730  0.1371 -0.0830 -0.3907
 8507TIP3   OH249715   4.403   4.219  12.502  0.1544 -0.6841  0.2045
 8507TIP3    H149716   4.426   4.310  12.522 -0.5896 -0.7747  1.5381
 8507TIP3    H249717   4.485   4.170  12.515  0.0784 -0.4973  1.5498
 8508TIP3   OH249718   4.381   0.940  13.120  0.9640 -0.1607  0.0468
 8508TIP3    H149719   4.352   0.959  13.031  0.7405 -0.5952  0.0241
 8508TIP3    H249720   4.403   0.847  13.119 -1.8146 -0.9431  1.1575
 8509TIP3   OH249721   5.504   0.817  11.700 -0.2851 -0.4143 -0.2897
 8509TIP3    H149722   5.530   0.909  11.698 -0.6389 -0.2873  0.4486
 8509TIP3    H249723   5.540   0.780  11.620 -2.5357  0.9901 -2.0679
 8510TIP3   OH249724   0.247   3.631  11.950  0.3937  0.2470  0.2387
 8510TIP3    H149725   0.259   3.667  12.038  0.7028 -0.9768  0.7135
 8510TIP3    H249726   0.300   3.552  11.949  0.6124  0.3929 -1.1543
 8511TIP3   OH249727   5.174   0.907  10.493 -0.6507 -0.2573  0.0948
 8511TIP3    H149728   5.237   0.850  10.536  0.7106 -0.0477 -1.5044
 8511TIP3    H249729   5.218   0.992  10.487 -1.4660  0.1655 -0.2180
 8512TIP3   OH249730   2.011   5.708  11.641 -0.3084  0.1876  0.2750
 8512TIP3    H149731   2.078   5.775  11.627 -1.4417  0.9901 -1.6722
 8512TIP3    H249732   2.018   5.651  11.564  0.4264 -1.8402  1.7325
 8513TIP3   OH249733   2.293   3.836  11.078  0.7899 -0.0286  0.1032
 8513TIP3    H149734   2.301   3.776  11.004 -0.5947  0.1336 -0.2245
 8513TIP3    H249735   2.341   3.914  11.051  0.4899 -0.0606 -0.5411
 8514TIP3   OH249736   3.030   0.673  12.660  0.1413 -0.6799  0.3402
 8514TIP3    H149737   3.117   0.640  12.639  0.4933 -0.4922  1.4756
 8514TIP3    H249738   3.007   0.727  12.584  1.7030  0.5913  0.7246
 8515TIP3   OH249739   1.192   4.563  12.303 -0.1978  0.3413 -0.2187
 8515TIP3    H149740   1.204   4.505  12.229 -0.3749  0.9844 -0.7636
 8515TIP3    H249741   1.280   4.572  12.341  0.4375  2.0982 -1.9646
 8516TIP3   OH249742   4.961   2.899  10.608  0.2766 -0.3886 -0.1773
 8516TIP3    H149743   4.938   2.867  10.695  0.6643 -0.2570 -0.0267
 8516TIP3    H249744   4.987   2.990  10.622  0.0746 -0.2840 -0.4707
 8517TIP3   OH249745   5.017   1.744  11.070 -0.1385  0.2180  0.1873
 8517TIP3    H149746   4.991   1.751  11.162 -2.5982  1.1036 -0.5028
 8517TIP3    H249747   4.980   1.822  11.029  1.8682  0.4095 -1.3809
 8518TIP3   OH249748   5.901   7.325  11.200 -0.1543  0.3755 -0.2122
 8518TIP3    H149749   5.847   7.401  11.225 -0.8179  0.0936 -0.7524
 8518TIP3    H249750   5.986   7.362  11.178  0.2490  0.7075  1.7820
 8519TIP3   OH249751   0.970   7.521  12.454  0.0456  0.5305 -0.2756
 8519TIP3    H149752   0.948   7.476  12.535  0.5153  0.5648 -0.1265
 8519TIP3    H249753   0.984   7.612  12.480 -1.0633  0.8165 -0.6031
 8520TIP3   OH249754   0.219   0.500  11.771  0.0318  0.6600 -0.1739
 8520TIP3    H149755   0.132   0.479  11.738 -0.1527  0.4601  0.4261
 8520TIP3    H249756   0.256   0.559  11.705  0.0750 -0.5398 -1.2701
 8521TIP3   OH249757   4.887   0.607  13.597  0.3976  0.3454 -0.0258
 8521TIP3    H149758   4.928   0.617  13.510 -0.1556  2.5384 -0.0959
 8521TIP3    H249759   4.805   0.561  13.579  0.1991  0.9367 -0.7259
 8522TIP3   OH249760   6.927   2.373  12.113 -0.1094 -0.4763 -0.3059
 8522TIP3    H149761   6.897   2.293  12.156 -1.8055  0.0608 -0.4484
 8522TIP3    H249762   7.006   2.398  12.162  0.6800 -2.4088 -0.4919
 8523TIP3   OH249763   0.288   5.955  13.281 -0.4088 -0.2109  0.6613
 8523TIP3    H149764   0.285   5.870  13.237 -0.3741 -0.4524  1.1264
 8523TIP3    H249765   0.198   5.971  13.308 -0.4359 -0.0459  0.4776
 8524TIP3   OH249766   6.043   4.372  11.741  0.4740  0.1457  0.1340
 8524TIP3    H149767   6.070   4.295  11.792 -0.8371 -2.0397 -2.2715
 8524TIP3    H249768   6.124   4.406  11.703  0.8319 -1.4063 -0.5318
 8525TIP3   OH249769   3.349   2.871  14.061  0.2072  0.0049  0.0039
 8525TIP3    H149770   3.288   2.881  13.988 -0.0018  1.4237  0.3406
 8525TIP3    H249771   3.391   2.957  14.069  0.0061 -0.0195  1.7435
 8526TIP3   OH249772   6.753   6.826  11.017 -0.0001 -0.0378  0.2187
 8526TIP3    H149773   6.707   6.836  11.100  0.1621 -0.2747  0.3376
 8526TIP3    H249774   6.787   6.737  11.019 -1.8531 -0.8429 -1.0307
 8527TIP3   OH249775   6.342   3.097  12.212  0.2767  0.1809  0.2474
 8527TIP3    H149776   6.248   3.084  12.221  0.1838  1.1733  0.8511
 8527TIP3    H249777   6.372   3.119  12.300  0.6791  2.2229 -0.3509
 8528TIP3   OH249778   1.344   5.271  12.831  0.3780 -0.1654 -0.5631
 8528TIP3    H149779   1.391   5.240  12.909  0.4745  0.1965 -0.4728
 8528TIP3    H249780   1.401   5.338  12.794  0.8671 -1.1425 -1.6105
 8529TIP3   OH249781   5.892   7.166  11.785  0.5447  0.6631 -0.2830
 8529TIP3    H149782   5.807   7.194  11.751 -0.6195  0.0321  1.9305
 8529TIP3    H249783   5.895   7.201  11.874  2.2147 -0.1304  0.0103
 8530TIP3   OH249784   6.272   7.082  12.070  0.8190  0.3017 -0.2479
 8530TIP3    H149785   6.282   7.061  12.163 -2.8000  0.2203  0.2778
 8530TIP3    H249786   6.288   6.999  12.025  1.4593  0.0554  0.4087
 8531TIP3   OH249787   2.276   6.447  12.766 -0.8522 -1.1157 -0.1808
 8531TIP3    H149788   2.309   6.525  12.810  1.4010 -1.8225 -0.5061
 8531TIP3    H249789   2.237   6.479  12.685 -0.4068 -0.2847 -0.0735
 8532TIP3   OH249790   1.060   0.534  11.999  0.2163 -0.1222 -0.5278
 8532TIP3    H149791   1.040   0.612  12.051  1.0090  1.0454 -1.9117
 8532TIP3    H249792   1.015   0.548  11.916  2.0005 -0.1503 -1.5551
 8533TIP3   OH249793   0.576   5.811  11.082  0.3779 -0.0568 -0.2833
 8533TIP3    H149794   0.579   5.726  11.036 -1.0249 -1.2784  1.7315
 8533TIP3    H249795   0.601   5.790  11.172 -1.0144  1.4783  0.5055
 8534TIP3   OH249796   0.064   5.941  11.976 -0.2510  0.2363  0.0843
 8534TIP3    H149797  -0.005   6.004  11.996 -0.9129 -1.0255  2.0943
 8534TIP3    H249798   0.127   5.951  12.047  0.7761  0.1677 -0.7969
 8535TIP3   OH249799   5.189   3.091  12.661  0.0273  0.7492  0.1112
 8535TIP3    H149800   5.140   3.080  12.580  0.4828 -2.0290  0.1294
 8535TIP3    H249801   5.128   3.065  12.730  0.9859 -1.4543  0.2294
 8536TIP3   OH249802   2.004   0.054  12.593  0.1150 -0.0749 -0.0781
 8536TIP3    H149803   2.001   0.122  12.661  1.4790  0.0943 -0.1509
 8536TIP3    H249804   2.094   0.022  12.595  0.1682 -0.1324 -1.7481
 8537TIP3   OH249805   1.247   4.181  10.697  0.5783 -0.3395 -0.1082
 8537TIP3    H149806   1.186   4.107  10.701 -1.6064  1.3226 -0.7004
 8537TIP3    H249807   1.329   4.142  10.665 -0.4860 -2.4764 -0.4740
 8538TIP3   OH249808   2.281   2.958  12.029 -0.5508 -0.3033 -0.0339
 8538TIP3    H149809   2.308   2.885  11.973  0.3586 -0.7557  0.9642
 8538TIP3    H249810   2.359   3.012  12.037  0.0199 -1.3766  2.5198
 8539TIP3   OH249811   7.496   3.505  12.509  0.3017 -0.4290  0.3466
 8539TIP3    H149812   7.511   3.509  12.604 -0.1815  2.7665  0.3885
 8539TIP3    H249813   7.409   3.543  12.497  1.8959  3.1277 -1.5752
 8540TIP3   OH249814   7.382   0.369  12.016 -0.1481  0.1410 -0.2439
 8540TIP3    H149815   7.332   0.346  12.095  2.0150 -0.7107  0.9802
 8540TIP3    H249816   7.452   0.425  12.049  1.4639 -1.1321 -1.3270
 8541TIP3   OH249817   4.855   3.512  13.226  0.0834 -0.3891  0.1256
 8541TIP3    H149818   4.798   3.570  13.174 -0.3450 -0.1370  0.8594
 8541TIP3    H249819   4.831   3.424  13.197  1.4397 -0.2043 -1.7182
 8542TIP3   OH249820   5.903   3.073  12.069 -0.2801  0.1585  0.3003
 8542TIP3    H149821   5.972   3.084  12.003 -1.0601 -0.8977 -0.7434
 8542TIP3    H249822   5.825   3.050  12.018 -1.0602 -0.0713  1.5627
 8543TIP3   OH249823   7.274   1.646  13.301 -0.0545  0.0738  0.2895
 8543TIP3    H149824   7.353   1.612  13.258  0.0287  0.6658 -0.0290
 8543TIP3    H249825   7.307   1.708  13.366 -0.2827  0.8141 -0.2905
 8544TIP3   OH249826   3.206   7.337  12.112  0.6819 -0.0662  0.2013
 8544TIP3    H149827   3.218   7.347  12.206  0.2241 -1.5767  0.4434
 8544TIP3    H249828   3.152   7.411  12.086 -0.4388 -0.4390  1.3974
 8545TIP3   OH249829   3.814   0.282  12.814  0.2122 -0.6189  0.4872
 8545TIP3    H149830   3.825   0.337  12.892 -2.0469  1.6789 -0.6641
 8545TIP3    H249831   3.720   0.264  12.810  0.5386 -2.2939 -0.7040
 8546TIP3   OH249832   2.926   5.483  12.425  0.2780  0.0088  0.4421
 8546TIP3    H149833   2.860   5.552  12.433  1.2532  0.9969  0.2257
 8546TIP3    H249834   2.990   5.519  12.364  0.9522 -0.9892  0.5410
 8547TIP3   OH249835   1.295   1.465  12.864  0.1646 -0.2666 -0.1066
 8547TIP3    H149836   1.308   1.414  12.944 -0.1213  2.3056  1.7148
 8547TIP3    H249837   1.383   1.492  12.838  0.1244  0.4214  0.4452
 8548TIP3   OH249838   2.731   1.588  12.857 -0.2120 -0.7673 -0.4545
 8548TIP3    H149839   2.766   1.678  12.851 -0.2157 -0.8379 -2.0303
 8548TIP3    H249840   2.671   1.591  12.932  1.3545 -0.0171  0.8350
 8549TIP3   OH249841   4.096   3.413  11.176 -0.2159  0.0609  0.0149
 8549TIP3    H149842   4.082   3.498  11.219  0.0007  0.5169 -0.7884
 8549TIP3    H249843   4.018   3.362  11.197 -0.7827  0.7944 -0.2688
 8550TIP3   OH249844   2.006   2.567  19.036  0.5142 -0.1618 -1.1774
 8550TIP3    H149845   2.091   2.609  19.027  0.4995 -0.1755 -1.3978
 8550TIP3    H249846   1.981   2.544  18.946  1.5830 -2.7657 -0.8841
 8551TIP3   OH249847   5.136   0.459  13.024  0.1636 -0.2717  0.2056
 8551TIP3    H149848   5.184   0.381  13.051  1.1534 -0.3393 -1.5784
 8551TIP3    H249849   5.178   0.531  13.071  1.1103 -0.5032 -0.2614
 8552TIP3   OH249850   0.385   1.418  10.677  0.1912  0.1678 -0.1046
 8552TIP3    H149851   0.456   1.459  10.627  0.1662  0.0963 -0.2000
 8552TIP3    H249852   0.404   1.324  10.672  0.3064  0.1736  0.2012
 8553TIP3   OH249853   4.662   0.904  11.143 -0.1887 -0.0032  0.2708
 8553TIP3    H149854   4.617   0.827  11.178  1.6193 -0.6694  1.2623
 8553TIP3    H249855   4.735   0.918  11.203  0.7133  1.2436 -1.0634
 8554TIP3   OH249856   4.082   1.967  11.384  0.0269  0.6979 -0.0815
 8554TIP3    H149857   4.023   1.915  11.329  0.9570  0.9607 -1.3798
 8554TIP3    H249858   4.169   1.946  11.350  0.6500  0.7186  1.4461
 8555TIP3   OH249859   2.709   2.531  11.931  0.1292 -0.2891  0.0682
 8555TIP3    H149860   2.670   2.598  11.876  3.2874  1.3513 -0.3770
 8555TIP3    H249861   2.707   2.451  11.878  0.2614  0.5089 -1.1551
 8556TIP3   OH249862   3.841   0.785  11.429 -0.5203 -0.4792 -0.2043
 8556TIP3    H149863   3.775   0.723  11.460 -1.5046  0.7870  0.3116
 8556TIP3    H249864   3.805   0.871  11.450  1.0274  0.2684 -0.4719
 8557TIP3   OH249865   3.338   0.612  10.905 -0.0766  0.0520  0.2761
 8557TIP3    H149866   3.387   0.663  10.969  0.6160  1.1287 -1.0493
 8557TIP3    H249867   3.394   0.537  10.885  0.1900  0.3015  0.1045
 8558TIP3   OH249868   4.039   2.707  10.992 -0.1585  0.6058 -0.0543
 8558TIP3    H149869   4.032   2.782  10.933  2.2408  1.8514  1.0855
 8558TIP3    H249870   4.040   2.631  10.934 -0.0910  1.6267 -1.4441
 8559TIP3   OH249871   4.738   2.736  11.928 -0.3617 -0.2115 -0.1583
 8559TIP3    H149872   4.754   2.643  11.912  1.0169  0.2316 -1.6388
 8559TIP3    H249873   4.762   2.778  11.846 -0.4705  1.5181  0.6666
 8560TIP3   OH249874   6.544   2.166  11.819  0.8282  0.0381 -0.0677
 8560TIP3    H149875   6.482   2.099  11.844  0.8297 -0.6229 -1.6848
 8560TIP3    H249876   6.599   2.125  11.752  1.1719  1.4774 -0.7230
 8561TIP3   OH249877   5.271   2.243  11.143 -0.4173  0.0081  0.1296
 8561TIP3    H149878   5.280   2.171  11.205  2.0193 -0.0834 -0.2521
 8561TIP3    H249879   5.293   2.205  11.058  0.4672  1.0984 -0.1452
 8562TIP3   OH249880   4.739   3.591  18.831  0.1942 -0.2904 -0.2849
 8562TIP3    H149881   4.658   3.578  18.880  0.9142  0.3840  1.1244
 8562TIP3    H249882   4.710   3.622  18.745 -1.0312 -0.0004  0.2126
 8563TIP3   OH249883   1.837   3.326  13.066 -0.2472 -0.4574 -0.4574
 8563TIP3    H149884   1.844   3.238  13.028 -1.6982 -0.2479 -1.2860
 8563TIP3    H249885   1.909   3.375  13.025 -0.2317 -0.9145 -1.0022
 8564TIP3   OH249886   3.040   3.645  13.270 -0.0087 -0.3260  0.1566
 8564TIP3    H149887   2.957   3.601  13.287 -1.1850  0.7173 -2.3257
 8564TIP3    H249888   3.027   3.689  13.186  2.8350  0.4803  0.0253
 8565TIP3   OH249889   3.743   7.435  11.204  0.4285  0.3839 -1.0435
 8565TIP3    H149890   3.819   7.417  11.259 -0.7126  2.2656  1.3794
 8565TIP3    H249891   3.759   7.522  11.167 -0.6625  1.0161 -0.1226
 8566TIP3   OH249892   0.891   5.039  11.873  0.4623  0.3100  0.1738
 8566TIP3    H149893   0.986   5.037  11.863  0.4384  1.1084 -0.3099
 8566TIP3    H249894   0.860   4.969  11.817  0.8429 -0.9965  1.5439
 8567TIP3   OH249895   3.411   3.484  10.414  0.2439  0.1212 -0.5625
 8567TIP3    H149896   3.408   3.512  10.505 -1.9957 -1.4970 -0.0548
 8567TIP3    H249897   3.484   3.533  10.376  1.7635  0.2464  2.2651
 8568TIP3   OH249898   5.966   5.715  11.520 -0.3191 -0.4269  0.3027
 8568TIP3    H149899   5.963   5.796  11.469  1.1287  0.0427  0.9146
 8568TIP3    H249900   5.895   5.725  11.584 -1.7205 -0.7392 -1.1264
 8569TIP3   OH249901   5.751   3.578  12.276  0.2246 -0.5735  0.3266
 8569TIP3    H149902   5.792   3.534  12.201  1.6459  0.1824  0.6308
 8569TIP3    H249903   5.825   3.612  12.327 -0.7852  1.3437  0.5961
 8570TIP3   OH249904   2.358   6.642  11.026 -0.0816 -0.1782 -0.4863
 8570TIP3    H149905   2.404   6.602  10.953 -0.8163 -0.5336 -0.7707
 8570TIP3    H249906   2.377   6.585  11.100  0.5598  0.1100 -0.4250
 8571TIP3   OH249907   1.961   6.529  10.363 -0.2810  0.6047  0.4126
 8571TIP3    H149908   1.999   6.607  10.404 -0.9498  1.1691 -0.0276
 8571TIP3    H249909   2.036   6.484  10.325  0.0001  1.5740 -0.2245
 8572TIP3   OH249910   3.751   2.139  12.408 -0.0777 -0.0701 -0.3332
 8572TIP3    H149911   3.762   2.175  12.496 -0.6049  0.8570 -0.6428
 8572TIP3    H249912   3.736   2.045  12.423 -1.1280  0.2321  0.6299
 8573TIP3   OH249913   3.237   7.029  10.821  0.1644 -0.5566 -0.0079
 8573TIP3    H149914   3.152   6.990  10.802  0.0300 -0.5270  0.5205
 8573TIP3    H249915   3.298   6.955  10.820  0.1296 -0.5830 -0.3514
 8574TIP3   OH249916   4.282   3.572  11.360  0.1254 -0.1492  0.3949
 8574TIP3    H149917   4.271   3.587  11.266 -0.7964  0.1594  0.5417
 8574TIP3    H249918   4.353   3.508  11.366  0.0092 -0.3789 -0.5206
 8575TIP3   OH249919   5.998   3.670  11.486  0.3040 -0.1143 -0.2391
 8575TIP3    H149920   5.913   3.648  11.449  0.0959  0.0997  0.1097
 8575TIP3    H249921   6.023   3.752  11.443  0.0570  0.1402  0.0977
 8576TIP3   OH249922   4.252   3.184  11.693 -0.3808 -0.0337 -0.6488
 8576TIP3    H149923   4.257   3.127  11.616 -1.3385 -1.4403  0.2823
 8576TIP3    H249924   4.228   3.125  11.764  1.2257  1.0902  0.9037
 8577TIP3   OH249925   2.400   3.604  12.166 -0.1232  0.3351  0.2910
 8577TIP3    H149926   2.462   3.550  12.117  1.1508 -0.0889  2.2428
 8577TIP3    H249927   2.420   3.694  12.140  0.4675  0.1184 -0.0121
 8578TIP3   OH249928   5.044   5.089  12.153  0.4455 -0.3926  0.3950
 8578TIP3    H149929   5.021   5.170  12.197 -0.7362 -0.0332 -0.8188
 8578TIP3    H249930   5.090   5.117  12.073  0.9121 -0.9597  0.4509
 8579TIP3   OH249931   6.353   0.500  10.636  0.8908 -0.5946 -0.3513
 8579TIP3    H149932   6.332   0.411  10.608 -1.1877  0.0056 -0.8319
 8579TIP3    H249933   6.269   0.540  10.655  1.6662  1.6658 -1.3433
 8580TIP3   OH249934   5.418   3.468  10.183  1.0524 -0.3681  0.1181
 8580TIP3    H149935   5.465   3.469  10.100 -0.8092  0.3936 -1.0006
 8580TIP3    H249936   5.427   3.378  10.215  3.1558 -0.2649 -0.0442
 8581TIP3   OH249937   0.212   4.256  12.756  0.1303  0.3879  0.2626
 8581TIP3    H149938   0.147   4.249  12.826 -1.1233 -0.4750 -0.9202
 8581TIP3    H249939   0.232   4.349  12.751 -2.2390  0.9378 -0.3505
 8582TIP3   OH249940   7.453   2.444  12.206 -0.0558  0.1244  0.0528
 8582TIP3    H149941   7.399   2.425  12.282 -1.0677 -0.5170 -0.7943
 8582TIP3    H249942   7.479   2.536  12.217  1.4826 -0.4768  2.1329
 8583TIP3   OH249943   2.815   0.799  10.824  0.6070 -0.4277  0.1567
 8583TIP3    H149944   2.790   0.891  10.837  0.2856 -0.7097  1.8113
 8583TIP3    H249945   2.875   0.801  10.751  0.6189  1.1184  0.1667
 8584TIP3   OH249946   7.480   2.220  10.791 -0.3047 -0.0332 -0.7204
 8584TIP3    H149947   7.559   2.173  10.819 -0.8209 -0.9146 -0.6794
 8584TIP3    H249948   7.498   2.247  10.702  0.4146  0.6260 -0.3829
 8585TIP3   OH249949   7.546   4.300  11.597 -0.0842  0.4356  0.5819
 8585TIP3    H149950   7.510   4.239  11.663 -1.0769 -0.3490 -0.6411
 8585TIP3    H249951   7.621   4.253  11.560 -0.4764  0.2015  0.0711
 8586TIP3   OH249952   5.670   1.860  10.921 -0.6143 -0.0825  0.2132
 8586TIP3    H149953   5.629   1.818  10.996 -1.6860 -2.1156 -1.3936
 8586TIP3    H249954   5.691   1.787  10.862  1.2171  1.3310 -0.9848
 8587TIP3   OH249955   4.032   1.144  13.239  0.0329  0.8170  0.1935
 8587TIP3    H149956   3.955   1.187  13.276  0.1081  0.2832  0.9926
 8587TIP3    H249957   3.998   1.063  13.199  0.2148  0.4130  0.8423
 8588TIP3   OH249958   6.574   2.930  11.922 -0.2138  0.4310 -0.2473
 8588TIP3    H149959   6.640   2.884  11.973  0.8833  2.2087  0.0388
 8588TIP3    H249960   6.505   2.865  11.907  0.1736 -0.6263  2.0938
 8589TIP3   OH249961   2.781   5.959  12.022 -0.4551  0.8268  0.4015
 8589TIP3    H149962   2.827   6.042  12.031  1.1517  0.0120  0.1316
 8589TIP3    H249963   2.851   5.894  12.015 -1.6653 -0.5835  0.8964
 8590TIP3   OH249964   6.469   3.230  12.461  0.0634  0.2720  0.1962
 8590TIP3    H149965   6.378   3.254  12.477 -0.3563 -1.0966 -0.0156
 8590TIP3    H249966   6.515   3.252  12.542 -0.3579  1.3898  0.1439
 8591TIP3   OH249967   6.296   4.011  12.588  0.0323 -0.2443  0.1507
 8591TIP3    H149968   6.342   4.084  12.548  0.0765 -0.9842 -1.2049
 8591TIP3    H249969   6.249   4.050  12.662  0.6995  0.9888 -0.0512
 8592TIP3   OH249970   0.126   3.965  10.687  0.0423 -0.1693 -0.2460
 8592TIP3    H149971   0.041   3.992  10.721  1.6225  1.5269  2.6845
 8592TIP3    H249972   0.149   4.033  10.623 -0.0245  0.3568  0.2855
 8593TIP3   OH249973   5.664   5.189  12.247  0.0764  0.3989 -0.0577
 8593TIP3    H149974   5.721   5.265  12.256 -0.2038  0.5556  0.3871
 8593TIP3    H249975   5.723   5.114  12.256  0.2084  0.5600  0.4307
 8594TIP3   OH249976   1.118   4.223  11.841 -0.0253  0.1415 -0.0156
 8594TIP3    H149977   1.092   4.186  11.925 -0.9124 -1.0433 -0.7907
 8594TIP3    H249978   1.038   4.263  11.806 -0.0382 -0.6788 -0.9634
 8595TIP3   OH249979   0.072   6.325  11.458  0.2365  0.0770  0.0143
 8595TIP3    H149980   0.041   6.296  11.544  0.5121 -1.5028 -0.3791
 8595TIP3    H249981   0.167   6.317  11.463  0.2189 -0.6209 -0.6225
 8596TIP3   OH249982   2.259   1.455  11.258  0.7916 -0.3692  0.0774
 8596TIP3    H149983   2.237   1.422  11.346  1.4973  2.3534  1.3897
 8596TIP3    H249984   2.188   1.516  11.237  0.7115 -0.8802 -1.2110
 8597TIP3   OH249985   5.705   5.155  10.724  0.6089 -0.1481  0.6956
 8597TIP3    H149986   5.665   5.231  10.681  0.2807 -0.0912  1.0987
 8597TIP3    H249987   5.740   5.189  10.807 -0.3032 -0.6047  1.2779
 8598TIP3   OH249988   5.736   2.306  11.772 -0.0799 -0.3730 -0.1548
 8598TIP3    H149989   5.657   2.307  11.719  0.4568 -1.1588 -0.9909
 8598TIP3    H249990   5.799   2.359  11.722 -0.0502  0.2129  0.4819
 8599TIP3   OH249991   2.807   5.936  12.493 -0.3097  0.7529  0.0625
 8599TIP3    H149992   2.867   5.969  12.559 -1.7989  0.6346  1.5550
 8599TIP3    H249993   2.862   5.918  12.416  1.8985 -1.2064  1.9593
 8600TIP3   OH249994   2.611   5.636  12.113  0.0665  0.4385  0.2938
 8600TIP3    H149995   2.587   5.545  12.129 -0.1095  0.3662 -0.3507
 8600TIP3    H249996   2.626   5.672  12.200  0.3403 -0.2608  0.5422
 8601TIP3   OH249997   6.279   1.638  11.030  0.2784  0.1577 -0.1608
 8601TIP3    H149998   6.317   1.665  11.113  0.0989 -0.4050  0.1120
 8601TIP3    H249999   6.204   1.696  11.017  2.1359  2.4661 -1.5521
 8602TIP3   OH250000   0.420   2.912  12.141 -0.0052  0.6306 -0.4903
 8602TIP3    H150001   0.378   2.936  12.224 -2.5912 -0.2818 -1.4552
 8602TIP3    H250002   0.457   2.826  12.157 -0.1731  0.6143 -0.1809
 8603TIP3   OH250003   0.953   2.608  10.476  0.1758  0.3978  0.3164
 8603TIP3    H150004   0.968   2.524  10.518 -0.6454 -0.4069 -0.9088
 8603TIP3    H250005   0.877   2.645  10.521  0.3167  0.3180  0.6202
 8604TIP3   OH250006   1.689   1.635  11.141 -0.2132 -0.1281 -0.4415
 8604TIP3    H150007   1.690   1.540  11.127 -0.1316 -0.1163 -0.5196
 8604TIP3    H250008   1.706   1.647  11.234 -0.5321 -0.2021 -0.3727
 8605TIP3   OH250009   3.727   7.368  10.535 -0.4231 -0.4712  0.5737
 8605TIP3    H150010   3.795   7.423  10.497 -0.3887 -1.5010 -0.9716
 8605TIP3    H250011   3.773   7.312  10.597  0.1161 -0.9567 -0.2457
 8606TIP3   OH250012   0.658   2.780  11.202  0.1398 -0.3452  0.5982
 8606TIP3    H150013   0.570   2.758  11.172  0.0068 -0.2028  0.8796
 8606TIP3    H250014   0.681   2.860  11.155  1.0922 -1.6624 -1.3328
 8607TIP3   OH250015   3.502   5.514  11.606 -0.5108  0.5863  0.5053
 8607TIP3    H150016   3.409   5.503  11.590 -0.2610  1.3306 -1.8322
 8607TIP3    H250017   3.543   5.445  11.553  0.2761 -1.2961  3.3037
 8608TIP3   OH250018   6.613   0.345  11.161 -0.0715 -0.3227  0.5692
 8608TIP3    H150019   6.633   0.251  11.160  1.2935 -0.0538  0.0272
 8608TIP3    H250020   6.548   0.356  11.092 -0.1348 -0.8396  0.5351
 8609TIP3   OH250021   3.387   6.084  11.940 -0.1360 -0.4478 -0.6153
 8609TIP3    H150022   3.395   6.179  11.944  0.4766 -0.5235  0.0423
 8609TIP3    H250023   3.365   6.066  11.848 -2.1003  0.4468 -0.3635
 8610TIP3   OH250024   7.502   6.601  10.861  0.2078  0.1276 -0.1398
 8610TIP3    H150025   7.421   6.618  10.813 -0.0789  0.9604  0.6101
 8610TIP3    H250026   7.481   6.621  10.952  0.7407 -1.4181  0.3470
 8611TIP3   OH250027   4.498   2.355  11.036 -0.7653 -0.1287  0.3093
 8611TIP3    H150028   4.462   2.401  11.112 -0.5312 -0.6274  0.7283
 8611TIP3    H250029   4.463   2.266  11.043 -1.7603  0.1325 -0.8637
 8612TIP3   OH250030   3.017   3.855  10.750  0.2982  0.0703  0.2971
 8612TIP3    H150031   3.052   3.834  10.663  1.4145  2.9235 -0.0387
 8612TIP3    H250032   3.079   3.813  10.811  0.5767 -0.3610 -0.2746
 8613TIP3   OH250033   1.526   4.582  10.996 -0.5394  0.3714 -0.6053
 8613TIP3    H150034   1.522   4.491  11.025 -1.3546  0.3855 -0.6667
 8613TIP3    H250035   1.438   4.602  10.964  0.2663  0.3469 -3.1060
 8614TIP3   OH250036   0.539   4.636  12.262 -0.1854  0.1615  0.3137
 8614TIP3    H150037   0.477   4.648  12.334  1.2956  1.6983  1.4013
 8614TIP3    H250038   0.617   4.600  12.304  0.1524 -0.4621 -0.8166
 8615TIP3   OH250039   7.073   0.137  11.819  0.2439 -0.5590 -0.1327
 8615TIP3    H150040   7.048   0.055  11.778 -1.1296 -0.4710  0.4902
 8615TIP3    H250041   6.991   0.174  11.853  1.0884  0.1720  1.2183
 8616TIP3   OH250042   5.613   0.214  13.258  0.2887  0.3464 -0.9136
 8616TIP3    H150043   5.521   0.189  13.258  0.8976 -2.1392 -1.2498
 8616TIP3    H250044   5.661   0.131  13.255  2.5605  1.5250 -0.1119
 8617TIP3   OH250045   3.774   4.868  12.900  0.0238  0.6286 -0.1075
 8617TIP3    H150046   3.858   4.892  12.862  0.5156  0.4648  0.8399
 8617TIP3    H250047   3.767   4.774  12.884  1.1718  0.1367  1.8769
 8618TIP3   OH250048   7.139   4.385  11.577 -0.2105  0.3464  0.3119
 8618TIP3    H150049   7.213   4.443  11.594  0.1889 -0.3994  1.2655
 8618TIP3    H250050   7.164   4.337  11.498  0.8638 -0.6920  1.2442
 8619TIP3   OH250051   5.989   7.480  11.797  0.2158 -0.7128  0.0287
 8619TIP3    H150052   6.058   7.428  11.839  0.1803 -1.1752 -0.4826
 8619TIP3    H250053   5.909   7.454  11.842  0.4654  0.5063  1.2749
 8620TIP3   OH250054   2.039   0.739  12.549  0.7868  0.1376  0.4057
 8620TIP3    H150055   2.109   0.805  12.545  0.4555  0.4688 -0.0186
 8620TIP3    H250056   2.034   0.715  12.641  2.1518 -0.6433  0.3026
 8621TIP3   OH250057   3.845   5.177  12.694 -0.9602  0.4533  0.1037
 8621TIP3    H150058   3.821   5.248  12.634 -0.9464 -0.6960 -1.3299
 8621TIP3    H250059   3.776   5.112  12.682 -2.4831  1.2568  3.3773
 8622TIP3   OH250060   2.185   0.807  12.034  0.4099  0.4457  0.1922
 8622TIP3    H150061   2.280   0.819  12.037  0.4770 -0.2254  1.3642
 8622TIP3    H250062   2.173   0.712  12.036 -0.2869  0.5237 -0.0087
 8623TIP3   OH250063   2.493   5.562  12.401  0.0008  0.0652  0.7890
 8623TIP3    H150064   2.578   5.584  12.438 -0.4166 -0.0107  1.8112
 8623TIP3    H250065   2.433   5.626  12.439 -0.2818  0.6092 -0.5258
 8624TIP3   OH250066   5.555   3.917  12.988  0.1783 -0.2759 -0.1094
 8624TIP3    H150067   5.535   3.879  13.073 -0.1326  0.1646  0.0170
 8624TIP3    H250068   5.489   3.986  12.976 -0.6310 -1.2401 -1.3282
 8625TIP3   OH250069   2.174   2.302  13.446 -0.3298 -0.1339 -0.1601
 8625TIP3    H150070   2.132   2.306  13.360 -0.8402  0.2561  0.1034
 8625TIP3    H250071   2.102   2.309  13.508  0.1776  1.2293  0.2989
 8626TIP3   OH250072   6.247   5.417  11.023 -0.2815 -0.1110  0.0470
 8626TIP3    H150073   6.168   5.445  10.977 -1.0332 -3.1601 -0.7110
 8626TIP3    H250074   6.271   5.334  10.982  0.6518 -1.5916  3.2974
 8627TIP3   OH250075   4.426   3.939  11.139  0.2686  0.1684 -0.0468
 8627TIP3    H150076   4.350   3.881  11.134 -0.1995  0.8727 -1.8509
 8627TIP3    H250077   4.493   3.887  11.183 -1.5406 -0.1050  2.6605
 8628TIP3   OH250078   6.991   7.233  12.321  0.9536 -0.4443 -0.0002
 8628TIP3    H150079   6.934   7.157  12.311  0.2612 -0.0682  0.9437
 8628TIP3    H250080   6.984   7.279  12.237  0.1305 -0.5849 -0.0150
 8629TIP3   OH250081   1.926   2.680  11.057  0.1156 -0.2715 -0.5805
 8629TIP3    H150082   1.860   2.710  11.118  0.0111 -0.2813 -0.6889
 8629TIP3    H250083   1.960   2.760  11.017  1.1838 -0.1465  0.5106
 8630TIP3   OH250084   0.824   7.494  10.782 -0.5288 -0.1030  0.0013
 8630TIP3    H150085   0.762   7.448  10.725 -0.0137 -0.6881 -0.0991
 8630TIP3    H250086   0.833   7.436  10.858 -0.9445  0.5053  0.5315
 8631TIP3   OH250087   4.818   3.700  11.488 -0.0075  0.2680  0.4057
 8631TIP3    H150088   4.870   3.633  11.444 -0.2421  1.1342 -1.2810
 8631TIP3    H250089   4.871   3.780  11.481  0.0007  0.4179  1.8496
 8632TIP3   OH250090   0.647   1.104  12.328 -0.4637 -0.5851  0.2138
 8632TIP3    H150091   0.572   1.045  12.313 -0.1490 -1.0779  0.5238
 8632TIP3    H250092   0.611   1.176  12.378 -0.3972 -1.7261  2.0048
 8633TIP3   OH250093   7.642   6.926  13.246  0.4751 -0.3125 -0.3050
 8633TIP3    H150094   7.644   6.994  13.313 -0.3023 -1.7804  1.2818
 8633TIP3    H250095   7.559   6.939  13.201 -0.6947 -1.4065  1.3956
 8634TIP3   OH250096   0.247   7.244  11.248  0.3350 -0.2159 -0.7188
 8634TIP3    H150097   0.269   7.337  11.251  0.5587 -0.2845  0.4823
 8634TIP3    H250098   0.167   7.237  11.300  0.4201 -0.7105 -0.6497
 8635TIP3   OH250099   3.363   1.052  12.675  0.1260  0.3856  1.0486
 8635TIP3    H150100   3.282   1.038  12.725 -0.8290  0.1888 -0.4657
 8635TIP3    H250101   3.421   1.098  12.735 -1.4624  1.3851  1.8780
 8636TIP3   OH250102   2.912   4.659  11.984  0.3589  0.2600  0.1786
 8636TIP3    H150103   3.007   4.652  11.995  0.2137  0.1813  1.4848
 8636TIP3    H250104   2.875   4.607  12.055 -0.6815  0.0649 -0.4683
 8637TIP3   OH250105   3.553   0.101  10.392  0.0393  0.6259  0.8120
 8637TIP3    H150106   3.559   0.188  10.353  1.2004 -0.1012 -0.7267
 8637TIP3    H250107   3.459   0.085  10.404 -0.2724  1.3804 -0.5542
 8638TIP3   OH250108   1.932   6.547  11.399 -0.3087  0.4796  0.8106
 8638TIP3    H150109   1.982   6.503  11.468  2.5596  2.1460 -0.0426
 8638TIP3    H250110   1.966   6.637  11.399 -1.1955  0.8847 -1.8477
 8639TIP3   OH250111   5.165   5.565  11.774 -0.0957 -0.1434  0.5296
 8639TIP3    H150112   5.253   5.536  11.751 -0.9965 -4.2084  1.2777
 8639TIP3    H250113   5.127   5.596  11.692  1.2483 -0.7216 -0.3358
 8640TIP3   OH250114   5.564   6.917  12.285  0.3216 -0.3471  0.0961
 8640TIP3    H150115   5.601   6.925  12.197  1.6214 -1.2333  0.5365
 8640TIP3    H250116   5.517   6.834  12.284 -0.2810 -0.0140  0.0407
 8641TIP3   OH250117   4.324   4.421  12.922  0.1497 -0.4629 -0.9396
 8641TIP3    H150118   4.329   4.460  13.010  0.0466 -1.0392 -0.6772
 8641TIP3    H250119   4.230   4.412  12.905  0.1648 -0.1374 -1.2096
 8642TIP3   OH250120   4.034   0.190  10.872 -0.8031 -0.0788 -0.4604
 8642TIP3    H150121   4.021   0.128  10.799  0.9498 -0.3423 -0.5909
 8642TIP3    H250122   4.000   0.273  10.839  0.1534 -0.1431 -1.7071
 8643TIP3   OH250123   0.731   6.827  11.217 -0.2536  0.2244  0.2645
 8643TIP3    H150124   0.697   6.916  11.208  2.1864  1.0522 -2.5441
 8643TIP3    H250125   0.819   6.832  11.179  0.0199 -3.3820  0.1349
 8644TIP3   OH250126   3.667   1.646  11.297 -0.1140 -0.0871  0.3735
 8644TIP3    H150127   3.609   1.712  11.259  1.6083  1.5150  0.3819
 8644TIP3    H250128   3.638   1.638  11.388 -1.3803 -0.6000 -0.0489
 8645TIP3   OH250129   1.040   5.124  10.928  0.6639  0.2743 -0.1877
 8645TIP3    H150130   0.956   5.160  10.956  1.4824  2.3701 -0.3056
 8645TIP3    H250131   1.017   5.064  10.856 -0.8498 -0.4433  0.8300
 8646TIP3   OH250132   1.958   3.498  12.525 -0.1021  0.0816 -0.3282
 8646TIP3    H150133   1.902   3.530  12.454 -0.6717 -0.4916 -0.1377
 8646TIP3    H250134   1.903   3.438  12.575  0.9485 -1.2448 -0.7076
 8647TIP3   OH250135   4.349   3.651  12.860 -0.5010  0.2434  0.0284
 8647TIP3    H150136   4.399   3.726  12.828  0.9136  0.1822  1.9055
 8647TIP3    H250137   4.326   3.674  12.950  0.1047 -1.5946  0.7080
 8648TIP3   OH250138   3.721   5.797  11.231 -0.6343  1.0407 -0.2145
 8648TIP3    H150139   3.653   5.789  11.164 -1.1456 -0.0714  0.4041
 8648TIP3    H250140   3.768   5.713  11.229  1.0337  1.9491 -0.9284
 8649TIP3   OH250141   4.900   2.075  12.368 -0.4633  0.3524  0.2432
 8649TIP3    H150142   4.862   2.075  12.456  2.1721  1.2508  1.4970
 8649TIP3    H250143   4.909   2.168  12.346  1.2260  0.2003  0.1664
 8650TIP3   OH250144   6.469   2.336  10.882 -0.1072 -0.0601  0.0542
 8650TIP3    H150145   6.512   2.416  10.911  0.2070 -0.0369 -0.4491
 8650TIP3    H250146   6.451   2.287  10.962 -0.0991  0.4125  0.3453
 8651TIP3   OH250147   3.007   2.209  11.349  0.0558  0.5956 -0.2125
 8651TIP3    H150148   3.097   2.206  11.383 -0.2615 -0.6946  0.5667
 8651TIP3    H250149   3.017   2.193  11.255  0.5041 -1.9975  0.2073
 8652TIP3   OH250150   1.026   7.122  11.110  0.5736 -0.3077  0.5769
 8652TIP3    H150151   1.095   7.126  11.044  0.3694 -0.7886  0.3291
 8652TIP3    H250152   1.041   7.038  11.154  0.3666 -0.2469  0.7622
 8653TIP3   OH250153   6.965   6.667  11.293  0.0562  0.3491  0.5363
 8653TIP3    H150154   7.021   6.603  11.337  0.0052 -1.1574 -1.4326
 8653TIP3    H250155   6.912   6.614  11.233 -0.1240  2.2226 -1.0431
 8654TIP3   OH250156   5.713   5.509  12.669 -0.4595  0.8001 -0.3798
 8654TIP3    H150157   5.663   5.591  12.665  0.0198  1.0879 -3.9052
 8654TIP3    H250158   5.785   5.527  12.729  0.1459  3.3903 -1.7308
 8655TIP3   OH250159   3.742   6.630  11.810 -0.0901 -0.0531 -0.6997
 8655TIP3    H150160   3.784   6.550  11.842 -0.2293 -0.4119 -1.4054
 8655TIP3    H250161   3.750   6.625  11.715 -0.5951  0.5004 -0.7742
 8656TIP3   OH250162   6.263   6.498  11.315  0.3750 -0.1221 -0.4140
 8656TIP3    H150163   6.285   6.545  11.234  2.1780  1.0288  0.6740
 8656TIP3    H250164   6.332   6.522  11.376 -0.9935 -0.8764  1.5273
 8657TIP3   OH250165   1.650   3.418  13.539 -0.0418 -0.1773  0.2182
 8657TIP3    H150166   1.714   3.372  13.594 -0.8727 -1.9750 -0.2452
 8657TIP3    H250167   1.692   3.424  13.453 -0.9576 -2.6276 -0.4752
 8658TIP3   OH250168   3.796   6.666  10.645  0.2022  0.1572 -0.0638
 8658TIP3    H150169   3.860   6.617  10.594 -0.1607 -0.4057  0.0138
 8658TIP3    H250170   3.849   6.721  10.703  0.6350 -1.1253  0.7993
 8659TIP3   OH250171   6.086   1.777  11.611  0.4903  0.1453 -0.9070
 8659TIP3    H150172   6.092   1.700  11.555 -0.6983  0.4081 -1.4346
 8659TIP3    H250173   6.053   1.743  11.694  2.0805 -0.2181 -0.3958
 8660TIP3   OH250174   5.751   4.926  12.506 -0.0842  0.3106  0.4016
 8660TIP3    H150175   5.776   5.017  12.490 -0.0324  0.1409 -0.5858
 8660TIP3    H250176   5.783   4.907  12.594 -1.4726  1.7083  1.2479
 8661TIP3   OH250177   6.402   6.208  11.327 -0.1916 -0.3938 -0.0010
 8661TIP3    H150178   6.400   6.292  11.373  1.3552  0.2057 -0.9693
 8661TIP3    H250179   6.449   6.149  11.386  0.7918  0.0677 -0.3122
 8662TIP3   OH250180   1.088   4.664  11.645  0.0149 -0.3414 -0.2887
 8662TIP3    H150181   1.123   4.692  11.560  0.1216 -1.1422 -0.5187
 8662TIP3    H250182   1.020   4.727  11.665 -0.1141 -0.2298 -1.0436
 8663TIP3   OH250183   1.606   5.976  11.039  0.1721  0.2775  0.2186
 8663TIP3    H150184   1.557   5.937  10.966 -0.4934  1.0392  0.2527
 8663TIP3    H250185   1.590   5.916  11.112  1.3731 -0.8468 -0.4019
 8664TIP3   OH250186   7.415   4.466  12.218  0.2166  0.6318  0.0189
 8664TIP3    H150187   7.501   4.441  12.185  0.0407 -0.8563  0.5895
 8664TIP3    H250188   7.354   4.436  12.151  0.0440  0.0959  0.4048
 8665TIP3   OH250189   3.347   0.969  12.252 -0.1825 -0.0350  0.1822
 8665TIP3    H150190   3.414   0.902  12.238 -0.7285 -0.2610 -1.6882
 8665TIP3    H250191   3.280   0.927  12.305 -0.3159 -0.8632 -0.6168
 8666TIP3   OH250192   5.151   1.612  11.620 -0.0546 -0.2402  0.2222
 8666TIP3    H150193   5.159   1.565  11.537  0.0813  0.6703 -0.2961
 8666TIP3    H250194   5.143   1.543  11.686  1.3832 -1.0317 -0.3694
 8667TIP3   OH250195   5.807   0.386  12.326 -0.1002 -0.4128  0.3628
 8667TIP3    H150196   5.729   0.332  12.340 -0.1065 -0.6970 -0.6808
 8667TIP3    H250197   5.835   0.411  12.414  0.0869 -2.3955  0.9189
 8668TIP3   OH250198   2.077   0.701  11.154  0.3697 -0.2323  0.3330
 8668TIP3    H150199   2.044   0.733  11.070  1.3201  1.0590  0.4315
 8668TIP3    H250200   2.002   0.705  11.213  0.1366  0.5519 -0.0091
 8669TIP3   OH250201   2.609   1.063  11.353  0.1920 -0.1089  0.2368
 8669TIP3    H150202   2.596   1.032  11.264 -0.1435 -0.8055  0.5198
 8669TIP3    H250203   2.580   0.990  11.408 -0.9672  0.8296  0.9250
 8670TIP3   OH250204   5.554   0.166  12.750  0.4724 -0.0084  0.9019
 8670TIP3    H150205   5.550   0.107  12.825  0.4667 -1.7749 -0.4233
 8670TIP3    H250206   5.643   0.158  12.718  0.2710  0.1764  0.2845
 8671TIP3   OH250207   0.837   2.420  10.854 -0.2060 -0.1363 -0.0791
 8671TIP3    H150208   0.868   2.339  10.813 -0.0735 -1.8455  3.0761
 8671TIP3    H250209   0.917   2.470  10.872 -0.2637  0.6234 -1.6863
 8672TIP3   OH250210   2.983   0.256  12.273  0.5534  0.2732 -0.1718
 8672TIP3    H150211   3.021   0.305  12.201  1.6638 -2.6273 -1.7485
 8672TIP3    H250212   2.946   0.177  12.232  2.1542 -2.0431  2.4306
 8673TIP3   OH250213   6.085   4.091  11.840 -0.2114  0.2396 -0.5031
 8673TIP3    H150214   6.080   3.997  11.856  1.0648 -0.1508 -2.0637
 8673TIP3    H250215   6.170   4.103  11.797 -0.7456  1.9806 -1.1561
 8674TIP3   OH250216   0.217   7.518  11.235  0.4768  0.9666 -0.7398
 8674TIP3    H150217   0.309   7.541  11.251  0.7100  0.0923 -0.7658
 8674TIP3    H250218   0.172   7.542  11.316  0.8642  0.7229 -0.4499
 8675TIP3   OH250219   3.334   3.186  10.711 -0.4795  0.5542 -0.3585
 8675TIP3    H150220   3.318   3.097  10.743 -0.4909  1.4699  2.3510
 8675TIP3    H250221   3.249   3.228  10.713 -0.0865  1.3295  0.7182
 8676TIP3   OH250222   3.630   7.191  12.073  0.2016 -0.2907  0.4071
 8676TIP3    H150223   3.595   7.253  12.137  0.2143  0.0955  0.0439
 8676TIP3    H250224   3.693   7.139  12.122 -1.7794 -1.8982  1.4328
 8677TIP3   OH250225   3.293   5.127  11.981 -0.7733 -0.1885 -0.2604
 8677TIP3    H150226   3.233   5.199  12.000  1.4901  1.2140  2.1690
 8677TIP3    H250227   3.376   5.170  11.959  0.3340 -2.0597  0.0170
 8678TIP3   OH250228   1.773   3.214  11.098  0.3982 -0.1974 -0.6450
 8678TIP3    H150229   1.679   3.229  11.104  0.7759  2.3767  0.0584
 8678TIP3    H250230   1.804   3.279  11.036  1.9039  0.0730  0.3211
 8679TIP3   OH250231   3.175   0.374  12.106  0.4893  0.0566  0.1754
 8679TIP3    H150232   3.226   0.318  12.046 -1.0387  0.4976 -1.6174
 8679TIP3    H250233   3.182   0.461  12.068 -0.9447  0.2538  0.3280
 8680TIP3   OH250234   2.549   5.029  13.678  0.3031 -0.5067  0.0130
 8680TIP3    H150235   2.616   4.964  13.655  0.4640 -0.1409 -0.5621
 8680TIP3    H250236   2.595   5.112  13.680 -0.0942 -0.2776 -0.1922
 8681TIP3   OH250237   7.055   4.045  10.976 -0.4587 -0.1491  1.0947
 8681TIP3    H150238   6.983   3.989  11.006 -0.9936  0.3013  0.6811
 8681TIP3    H250239   7.015   4.131  10.965  0.2161  0.1714  1.1345
 8682TIP3   OH250240   4.435   0.593  10.583  0.2174  0.4948 -0.0199
 8682TIP3    H150241   4.417   0.645  10.505  0.0081 -0.7895 -0.8602
 8682TIP3    H250242   4.529   0.601  10.596  0.7528 -1.4144 -2.0553
 8683TIP3   OH250243   6.905   0.638  11.629  0.7429 -0.0653 -0.3127
 8683TIP3    H150244   6.918   0.698  11.555  0.9486  1.0697  0.6030
 8683TIP3    H250245   6.987   0.590  11.635  1.6858  1.5598  0.6364
 8684TIP3   OH250246   1.483   4.027  11.789  0.0968  0.6114  0.0754
 8684TIP3    H150247   1.447   3.960  11.731 -0.0746 -0.4365  1.3460
 8684TIP3    H250248   1.562   3.987  11.826  1.4879  2.1141 -1.1178
 8685TIP3   OH250249   4.029   5.125  10.566 -0.2962 -0.1578  0.0690
 8685TIP3    H150250   4.105   5.082  10.604 -0.6403  0.0350  0.9781
 8685TIP3    H250251   3.956   5.065  10.580 -1.1143  1.3241  2.7916
 8686TIP3   OH250252   3.133   5.974  11.719  0.0432 -0.0996  0.8285
 8686TIP3    H150253   3.078   5.922  11.779  0.1473 -0.3483  0.7104
 8686TIP3    H250254   3.072   6.006  11.653  0.2741 -1.7397 -0.2439
 8687TIP3   OH250255   1.308   3.788  10.830 -0.2955  0.3732  0.2433
 8687TIP3    H150256   1.373   3.802  10.898  0.4859  0.1518 -0.4387
 8687TIP3    H250257   1.324   3.699  10.799 -2.0881 -0.3556  1.2575
 8688TIP3   OH250258   4.934   1.349  11.885 -0.2624  0.0222 -0.0405
 8688TIP3    H150259   4.913   1.440  11.869 -1.0660 -0.4147 -1.6516
 8688TIP3    H250260   4.998   1.327  11.817 -0.1952 -0.6650  0.2338
 8689TIP3   OH250261   1.617   3.470  12.388  0.0746  0.5004  0.5907
 8689TIP3    H150262   1.555   3.531  12.347  0.9076  2.1894  1.7043
 8689TIP3    H250263   1.701   3.491  12.347  0.4264  0.2924  1.1955
 8690TIP3   OH250264   1.887   2.169  13.403 -0.1623 -0.0165  0.2880
 8690TIP3    H150265   1.793   2.153  13.396 -0.1174 -1.1092  1.7294
 8690TIP3    H250266   1.923   2.085  13.433  1.1940  0.5656  0.3486
 8691TIP3   OH250267   3.860   0.318  10.691  0.4821  0.2713 -0.3544
 8691TIP3    H150268   3.797   0.389  10.677  0.2081  0.0832 -0.0802
 8691TIP3    H250269   3.813   0.238  10.668  0.3057  0.0387  0.7521
 8692TIP3   OH250270   4.572   6.069  10.654 -0.5448  0.5318 -0.1904
 8692TIP3    H150271   4.664   6.071  10.681 -0.9451  1.3194  1.2171
 8692TIP3    H250272   4.543   5.979  10.672 -0.5638  0.8080  1.2692
 8693TIP3   OH250273   0.932   0.289  11.828 -0.1938 -0.3007  0.3922
 8693TIP3    H150274   0.925   0.312  11.735  0.6586 -0.3955  0.2960
 8693TIP3    H250275   0.847   0.253  11.850 -0.0718 -1.2977 -0.6511
 8694TIP3   OH250276   7.402   0.808  12.906 -0.0018  0.1774 -0.3550
 8694TIP3    H150277   7.419   0.722  12.866 -1.5450  0.4848 -1.8090
 8694TIP3    H250278   7.308   0.807  12.925  0.0908  1.3045  0.2065
 8695TIP3   OH250279   3.240   3.853  12.172  0.4339 -0.6096 -0.2511
 8695TIP3    H150280   3.148   3.854  12.144  0.6791 -0.8115 -1.1165
 8695TIP3    H250281   3.237   3.871  12.266 -0.3892  0.8540 -0.5250
 8696TIP3   OH250282   5.734   5.613  11.716 -0.0254 -0.2811 -0.5677
 8696TIP3    H150283   5.741   5.707  11.727 -0.9430 -0.2594 -0.0018
 8696TIP3    H250284   5.822   5.579  11.733  0.1396  0.4087 -0.0394
 8697TIP3   OH250285   7.539   2.159  11.664  0.5407  0.4900  0.4320
 8697TIP3    H150286   7.586   2.094  11.717 -0.1613  0.9796  1.7157
 8697TIP3    H250287   7.520   2.230  11.726  1.6214  2.1083 -1.0051
 8698TIP3   OH250288   5.544   4.809  12.766  0.4840 -0.0149  0.3038
 8698TIP3    H150289   5.486   4.790  12.839  0.7793  1.5680  0.9918
 8698TIP3    H250290   5.511   4.756  12.694 -0.3783 -0.8998  1.3223
 8699TIP3   OH250291   2.990   3.917  12.324 -0.2170 -0.2875 -0.2326
 8699TIP3    H150292   2.903   3.956  12.329  0.4463  1.1775  0.6655
 8699TIP3    H250293   3.001   3.895  12.231 -0.9953  0.8573 -0.6247
 8700TIP3   OH250294   1.903   2.475  13.003  0.1337 -0.4951  0.6168
 8700TIP3    H150295   1.826   2.457  12.948  0.2052 -1.8788  0.9231
 8700TIP3    H250296   1.867   2.515  13.082  0.0371  1.5864 -0.4075
 8701TIP3   OH250297   7.469   4.745  11.610 -0.6028 -0.4927 -0.2131
 8701TIP3    H150298   7.481   4.810  11.541 -0.5289  0.2317  0.4670
 8701TIP3    H250299   7.410   4.788  11.673 -1.2590 -1.4140 -0.1771
 8702TIP3   OH250300   1.115   5.666  12.964  0.2050 -0.1549  0.2977
 8702TIP3    H150301   1.091   5.754  12.994 -0.3350 -0.3482  0.4365
 8702TIP3    H250302   1.059   5.607  13.014 -1.6003 -0.4368 -1.8895
 8703TIP3   OH250303   0.859   1.190  11.292 -0.7628 -0.1313  0.3948
 8703TIP3    H150304   0.941   1.157  11.257 -1.0479  0.7998 -1.2731
 8703TIP3    H250305   0.794   1.168  11.224 -1.8345 -0.5623  1.5269
 8704TIP3   OH250306   5.259   6.081  13.258 -0.6789  0.1671 -0.0484
 8704TIP3    H150307   5.249   5.986  13.268  0.1499 -0.0197 -0.8851
 8704TIP3    H250308   5.174   6.110  13.224 -1.1420 -0.1788  0.7822
 8705TIP3   OH250309   6.702   3.404  11.564  0.0388  0.4528  0.1148
 8705TIP3    H150310   6.661   3.371  11.644 -0.6093  0.4977 -0.1886
 8705TIP3    H250311   6.629   3.444  11.515  0.4438  0.5091 -0.4502
 8706TIP3   OH250312   0.870   4.419  11.152  0.1877 -0.2903 -0.3416
 8706TIP3    H150313   0.834   4.507  11.163 -0.9509 -0.6157 -1.2720
 8706TIP3    H250314   0.962   4.428  11.176 -0.1104  0.9452  0.4710
 8707TIP3   OH250315   1.457   2.753  12.632 -0.9892  0.5513  0.7988
 8707TIP3    H150316   1.453   2.751  12.536 -1.4708 -1.2456  0.8162
 8707TIP3    H250317   1.373   2.789  12.659 -1.0999  0.4884  0.5435
 8708TIP3   OH250318   3.272   3.671  10.978  0.2320  0.3368  0.0221
 8708TIP3    H150319   3.359   3.699  11.007  0.8172 -1.2771 -0.0774
 8708TIP3    H250320   3.216   3.687  11.055  1.1158 -0.8534  0.9524
 8709TIP3   OH250321   1.250   2.960  11.402 -0.5802  0.7568  0.0072
 8709TIP3    H150322   1.224   2.931  11.314  1.0846 -0.5545 -0.1214
 8709TIP3    H250323   1.324   3.019  11.386  0.2194 -0.0843  0.5415
 8710TIP3   OH250324   5.459   2.065  12.265  0.0991  0.1946 -0.9535
 8710TIP3    H150325   5.437   2.090  12.175 -0.0626  2.7988 -0.2545
 8710TIP3    H250326   5.547   2.027  12.257 -0.1431 -0.1703 -2.2640
 8711TIP3   OH250327   7.180   0.730  11.196  0.6568  0.2268  0.2148
 8711TIP3    H150328   7.254   0.683  11.159  0.0500 -0.3858 -0.2529
 8711TIP3    H250329   7.143   0.779  11.123 -0.3662 -0.7542  0.0321
 8712TIP3   OH250330   0.155   3.987  12.307 -0.2952 -0.3225 -0.2291
 8712TIP3    H150331   0.184   3.936  12.232 -1.1722  0.0682 -0.8526
 8712TIP3    H250332   0.071   4.025  12.280 -0.4391  0.1464  0.8004
 8713TIP3   OH250333   2.066   2.765  10.701 -0.2360  0.2770 -0.3886
 8713TIP3    H150334   2.079   2.844  10.648  0.2597  1.5108  1.4455
 8713TIP3    H250335   2.092   2.792  10.789 -2.0596 -1.3473  0.7113
 8714TIP3   OH250336   4.699   1.588  11.381  0.2695  0.3848 -0.2768
 8714TIP3    H150337   4.647   1.550  11.451  0.7555 -0.3650 -0.3168
 8714TIP3    H250338   4.635   1.618  11.316 -0.2254  1.6742  0.7598
 8715TIP3   OH250339   6.520   2.429  11.845 -0.3438  0.0651  0.1455
 8715TIP3    H150340   6.438   2.405  11.888  1.2435 -2.1516  2.2039
 8715TIP3    H250341   6.575   2.351  11.853  3.3400  2.5518  2.4074
 8716TIP3   OH250342   3.206   3.574  10.722 -0.4780  0.2640  0.0671
 8716TIP3    H150343   3.212   3.597  10.815  1.3746 -0.2582  0.1226
 8716TIP3    H250344   3.290   3.603  10.685 -1.1909  0.4733 -1.4591
 8717TIP3   OH250345   2.810   6.460  11.528  0.3417  0.0019  0.2197
 8717TIP3    H150346   2.897   6.462  11.568  0.3982  0.2865  0.0829
 8717TIP3    H250347   2.827   6.452  11.434  0.2024 -1.4189  0.2910
 8718TIP3   OH250348   0.872   1.385  11.667 -0.2377 -0.3361  0.0061
 8718TIP3    H150349   0.959   1.359  11.635 -0.5918 -1.1527 -0.3364
 8718TIP3    H250350   0.818   1.390  11.588 -0.6946 -0.6269  0.2963
 8719TIP3   OH250351   0.168   7.288  11.741 -0.4675  0.3970  0.4824
 8719TIP3    H150352   0.157   7.276  11.835 -0.2975 -1.4915  0.3125
 8719TIP3    H250353   0.094   7.240  11.703 -1.1480  2.0405 -0.3447
 8720TIP3   OH250354   2.409   3.390  12.745 -0.0249  0.8790 -0.1116
 8720TIP3    H150355   2.352   3.405  12.670 -0.7569 -0.4905  0.1407
 8720TIP3    H250356   2.390   3.463  12.805 -0.8368  0.9367 -0.4298
 8721TIP3   OH250357   5.670   0.782  10.997  0.1724 -0.0480 -0.0660
 8721TIP3    H150358   5.635   0.795  10.909 -2.2710 -1.9835  0.5147
 8721TIP3    H250359   5.764   0.797  10.987 -0.3291  2.3153 -2.4222
 8722TIP3   OH250360   1.704   1.026  12.317  0.7603  0.0351  0.1756
 8722TIP3    H150361   1.673   0.939  12.296 -0.4750 -0.4505  3.3843
 8722TIP3    H250362   1.627   1.073  12.349  1.9791  1.1649  1.6663
 8723TIP3   OH250363   0.359   0.987  11.093  0.0246 -0.2302  0.7834
 8723TIP3    H150364   0.344   1.006  11.001 -0.0447 -0.3443  0.7712
 8723TIP3    H250365   0.454   0.990  11.103  0.1299 -1.6052  0.4027
 8724TIP3   OH250366   5.601   7.062  11.489 -0.0300 -0.7189  0.0448
 8724TIP3    H150367   5.613   7.156  11.477 -1.9660 -0.6945 -2.5550
 8724TIP3    H250368   5.649   7.022  11.417 -0.2652 -1.6521  0.3927
 8725TIP3   OH250369   2.323   0.277  12.828  0.2001 -0.0671  0.0091
 8725TIP3    H150370   2.322   0.198  12.882  1.8157 -0.5355 -0.5997
 8725TIP3    H250371   2.401   0.324  12.856 -0.8473  1.4565  0.4999
 8726TIP3   OH250372   1.751   6.804  12.904 -1.0681  0.2729 -0.6730
 8726TIP3    H150373   1.690   6.832  12.972 -2.7171 -0.8860 -1.6182
 8726TIP3    H250374   1.707   6.732  12.860 -0.5336  1.6228 -3.6560
 8727TIP3   OH250375   1.019   4.361  10.778  0.5523  0.1405  0.0004
 8727TIP3    H150376   0.941   4.311  10.752  0.4213  0.2254  0.2302
 8727TIP3    H250377   1.092   4.303  10.755  0.3611 -0.7388  1.4699
 8728TIP3   OH250378   7.054   4.421  11.279 -0.0222 -0.1507  0.0714
 8728TIP3    H150379   7.118   4.367  11.325 -0.3739  0.3791  1.2212
 8728TIP3    H250380   7.062   4.395  11.187  1.7172 -0.2212  0.2057
 8729TIP3   OH250381   4.145   6.075  11.212 -0.1949  0.1667  0.0266
 8729TIP3    H150382   4.120   6.066  11.304  2.0866  2.2238  0.9415
 8729TIP3    H250383   4.085   6.016  11.166 -0.2330 -2.4092  2.9778
 8730TIP3   OH250384   0.698   0.864  12.485 -0.2634  0.0560 -0.3021
 8730TIP3    H150385   0.693   0.944  12.431 -0.8474  0.3238  0.1334
 8730TIP3    H250386   0.744   0.801  12.430  0.3700  0.7506 -0.5828
 8731TIP3   OH250387   1.256   3.061  11.143 -0.1364 -0.0297 -0.6354
 8731TIP3    H150388   1.199   3.002  11.094 -0.9767  0.0104  0.2630
 8731TIP3    H250389   1.337   3.065  11.092 -1.1367  0.3624 -2.2510
 8732TIP3   OH250390   2.686   6.317  10.373 -0.4707 -0.5270  0.2515
 8732TIP3    H150391   2.677   6.223  10.389  1.1969 -0.5659  1.1554
 8732TIP3    H250392   2.684   6.356  10.460 -1.2366  0.3009 -0.1275
 8733TIP3   OH250393   0.290   5.911  12.174 -0.4118  0.3226  0.3174
 8733TIP3    H150394   0.385   5.903  12.179  0.0323  1.2943 -3.5905
 8733TIP3    H250395   0.259   5.822  12.159  0.3279  0.3703 -1.8650
 8734TIP3   OH250396   4.344   0.041  12.118  0.0101 -0.3335 -0.3525
 8734TIP3    H150397   4.348   0.123  12.167  1.3192 -0.4698 -0.1914
 8734TIP3    H250398   4.340   0.068  12.026 -2.0264 -0.0841 -0.2347
 8735TIP3   OH250399   5.243   0.678  13.169 -0.2652  0.2212  0.1737
 8735TIP3    H150400   5.335   0.674  13.196 -0.0147  0.0428 -0.6627
 8735TIP3    H250401   5.238   0.757  13.115 -0.5038 -0.0010 -0.1308
 8736TIP3   OH250402   1.599   3.877  12.195  0.1691  0.1340  0.2046
 8736TIP3    H150403   1.514   3.920  12.192  1.5046  3.1340  1.1506
 8736TIP3    H250404   1.626   3.871  12.103 -1.7224 -2.5876 -0.2876
 8737TIP3   OH250405   5.991   4.068  10.892 -0.4267 -0.3023 -0.2346
 8737TIP3    H150406   6.058   4.002  10.876 -0.8485 -1.1133  1.1444
 8737TIP3    H250407   6.036   4.152  10.881  0.4236 -0.8263 -0.8022
 8738TIP3   OH250408   4.041   3.677  10.824  0.0515  0.0747 -0.6835
 8738TIP3    H150409   4.042   3.762  10.780  0.7257 -0.0961 -1.0075
 8738TIP3    H250410   4.133   3.661  10.847 -0.3408  0.4697  1.3826
 8739TIP3   OH250411   7.358   7.421  12.180 -0.2390  0.0422  0.1931
 8739TIP3    H150412   7.450   7.415  12.155 -0.2921 -0.9119  0.1876
 8739TIP3    H250413   7.359   7.416  12.275 -0.2970 -0.0850  0.1859
 8740TIP3   OH250414   0.235   2.936  10.774 -0.0928  0.0673 -0.2989
 8740TIP3    H150415   0.226   2.890  10.857 -1.1902  0.2887 -0.2743
 8740TIP3    H250416   0.269   3.022  10.798 -0.4623  0.1506 -0.0693
 8741TIP3   OH250417   0.479   5.760  10.609  0.0462  0.2268  0.3746
 8741TIP3    H150418   0.417   5.825  10.640 -2.6100 -1.1214 -1.7357
 8741TIP3    H250419   0.450   5.677  10.647  0.4556 -0.4452 -0.6953
 8742TIP3   OH250420   7.097   1.322  12.257 -0.0699 -0.3548  0.1144
 8742TIP3    H150421   7.087   1.322  12.162  0.3651  0.1680  0.0678
 8742TIP3    H250422   7.033   1.386  12.288  2.4153  2.4811 -0.1353
 8743TIP3   OH250423   0.596   0.244  13.196  0.6417 -0.0546 -0.3802
 8743TIP3    H150424   0.540   0.302  13.144 -0.0243 -1.5032 -1.3547
 8743TIP3    H250425   0.682   0.251  13.155 -0.0283 -1.7190 -2.2320
 8744TIP3   OH250426   4.812   1.043  10.777 -0.2777 -0.0001 -0.5414
 8744TIP3    H150427   4.848   1.057  10.864 -0.1411 -0.7767 -0.4614
 8744TIP3    H250428   4.791   1.131  10.745 -1.7491  0.2178  0.8703
 8745TIP3   OH250429   4.718   3.976  10.987  0.0829 -0.1693  0.2347
 8745TIP3    H150430   4.779   4.048  10.969 -1.6392  1.0671 -0.9716
 8745TIP3    H250431   4.704   3.980  11.082 -0.6320  1.7231  0.1059
 8746TIP3   OH250432   4.698   1.666  12.056 -0.1282 -0.2165 -0.4602
 8746TIP3    H150433   4.764   1.710  12.111  0.2965 -0.4784 -0.7591
 8746TIP3    H250434   4.676   1.731  11.990  1.4060 -0.8475 -1.6496
 8747TIP3   OH250435   0.547   4.371  11.898  0.1516  0.0970  0.0198
 8747TIP3    H150436   0.579   4.365  11.808  0.6659 -0.5489  0.2397
 8747TIP3    H250437   0.589   4.450  11.934  2.0174 -1.0522  0.4905
 8748TIP3   OH250438   4.574   6.898  11.719  0.0518  0.1369  0.3060
 8748TIP3    H150439   4.566   6.827  11.784 -0.0738  0.6977  0.9112
 8748TIP3    H250440   4.529   6.972  11.759  1.5743  1.0412  0.3918
 8749TIP3   OH250441   3.112   1.330  11.282  0.5048  0.7410 -0.4517
 8749TIP3    H150442   3.091   1.281  11.361  0.7660  2.2274  0.5911
 8749TIP3    H250443   3.205   1.349  11.290 -0.0483  3.5270  0.4975
 8750TIP3   OH250444   7.434   7.667  12.442  0.2052 -0.2949 -0.3820
 8750TIP3    H150445   7.488   7.591  12.461  0.7547 -0.1563 -1.2887
 8750TIP3    H250446   7.452   7.686  12.350 -1.6321 -0.4314 -0.8142
 8751TIP3   OH250447   3.506   0.704  11.116  0.3175  0.8390  0.2301
 8751TIP3    H150448   3.601   0.717  11.121  0.6660 -0.5907 -1.5387
 8751TIP3    H250449   3.469   0.792  11.124  1.7078  1.3454  1.8175
 8752TIP3   OH250450   3.568   1.546  12.324  0.3887  0.3470  0.3073
 8752TIP3    H150451   3.554   1.531  12.231 -1.0366 -0.8840  0.6867
 8752TIP3    H250452   3.485   1.523  12.365  1.0972  0.5429  1.9247
 8753TIP3   OH250453   3.933   2.225  12.216  0.8315 -0.0440  0.3802
 8753TIP3    H150454   3.980   2.149  12.182 -1.2860 -0.7239 -1.2300
 8753TIP3    H250455   3.867   2.188  12.276  0.3698  0.5965  0.2765
 8754TIP3   OH250456   2.906   3.267  11.893  0.1566  0.1597  0.0039
 8754TIP3    H150457   2.991   3.245  11.855  1.1300 -0.6169  2.4943
 8754TIP3    H250458   2.927   3.309  11.976 -1.8978 -0.0102  0.6491
 8755TIP3   OH250459   1.059   1.665  11.580  0.0732  0.0159 -0.1748
 8755TIP3    H150460   1.052   1.677  11.485 -0.4569 -0.0393 -0.1464
 8755TIP3    H250461   1.096   1.578  11.590 -0.2138 -0.1287 -0.3319
 8756TIP3   OH250462   7.618   4.341  12.080  0.5089  0.2216 -0.5165
 8756TIP3    H150463   7.607   4.257  12.125 -0.0954  0.2073 -0.6807
 8756TIP3    H250464   7.594   4.322  11.989  0.8082  0.4663 -0.6467
 8757TIP3   OH250465   6.842   1.196  12.400  0.6181 -0.3402  0.1762
 8757TIP3    H150466   6.877   1.285  12.405  0.2239  0.1169 -3.0105
 8757TIP3    H250467   6.748   1.208  12.388  0.0275 -1.3829  3.0709
 8758TIP3   OH250468   3.237   3.258  12.590  0.1275 -0.0202  0.5949
 8758TIP3    H150469   3.172   3.295  12.531  1.2834  0.5082 -0.3875
 8758TIP3    H250470   3.251   3.169  12.558 -0.1941 -0.1756  0.8816
 8759TIP3   OH250471   5.037   2.648  13.647 -0.6505  0.5653 -0.2929
 8759TIP3    H150472   4.991   2.593  13.710  1.9733 -1.1694  0.2380
 8759TIP3    H250473   5.020   2.606  13.562  1.8127 -1.5941  0.1677
 8760TIP3   OH250474   4.247   4.784  11.969  0.7736 -0.4284  0.2222
 8760TIP3    H150475   4.325   4.819  11.926  1.1664  0.4477  1.5808
 8760TIP3    H250476   4.176   4.798  11.906  1.7920 -1.8501 -1.3025
 8761TIP3   OH250477   4.550   0.178  13.099 -0.0783  0.0857 -0.2337
 8761TIP3    H150478   4.459   0.158  13.076 -0.0093  0.3149 -0.7263
 8761TIP3    H250479   4.578   0.104  13.152 -0.9668  0.6414  1.0561
 8762TIP3   OH250480   3.485   7.329  10.441  0.1602  0.5294 -0.4072
 8762TIP3    H150481   3.475   7.238  10.468 -3.6660  1.3207  1.5484
 8762TIP3    H250482   3.576   7.350  10.459  0.4391 -2.1267  1.8518
 8763TIP3   OH250483   3.517   3.889  11.427  0.0364 -0.3546 -0.1500
 8763TIP3    H150484   3.607   3.920  11.412 -0.9131  1.4382 -2.9918
 8763TIP3    H250485   3.476   3.960  11.475 -0.1185 -0.7456  0.2966
 8764TIP3   OH250486   3.409   2.193  19.480 -0.0372 -0.3459 -0.1897
 8764TIP3    H150487   3.460   2.223  19.404  1.0363 -0.5111  0.4374
 8764TIP3    H250488   3.453   2.232  19.555 -0.9731 -0.3472  0.3689
 8765TIP3   OH250489   1.477   6.367  11.685 -0.2120 -0.0518  0.2329
 8765TIP3    H150490   1.402   6.384  11.742 -0.4348  1.0178 -0.3565
 8765TIP3    H250491   1.446   6.389  11.597  0.8693  0.7263  0.0184
 8766TIP3   OH250492   5.680   7.417  12.666  0.1697 -0.0330  0.0982
 8766TIP3    H150493   5.744   7.488  12.659  0.5796 -0.3406  0.6868
 8766TIP3    H250494   5.636   7.433  12.750  0.4966 -0.6688  0.3901
 8767TIP3   OH250495   1.280   7.540  10.750 -0.4893  0.1374  0.2486
 8767TIP3    H150496   1.270   7.628  10.785 -0.5206  0.7138 -1.1667
 8767TIP3    H250497   1.367   7.539  10.711 -0.6206 -0.3579 -0.0405
 8768TIP3   OH250498   2.012   4.154  11.708 -0.4438  0.4900  0.6929
 8768TIP3    H150499   1.941   4.102  11.670 -1.5776  1.0844  1.9256
 8768TIP3    H250500   1.982   4.175  11.796  0.9878  1.3168  1.0104
 8769TIP3   OH250501   7.108   3.103  10.928 -0.1292 -0.3401 -0.4953
 8769TIP3    H150502   7.079   3.012  10.933 -0.2166 -0.4932 -2.7521
 8769TIP3    H250503   7.034   3.150  10.891 -0.1206  0.7009  0.7416
 8770TIP3   OH250504   1.356   0.713  13.279 -0.2499 -0.4457 -0.0030
 8770TIP3    H150505   1.294   0.642  13.264 -0.0205 -1.0577  1.7303
 8770TIP3    H250506   1.301   0.792  13.284 -0.9187 -0.9733  1.4429
 8771TIP3   OH250507   5.814   7.527  11.561  0.4756 -0.3291 -0.1301
 8771TIP3    H150508   5.803   7.578  11.481  2.4966 -0.0182 -0.2589
 8771TIP3    H250509   5.844   7.590  11.626 -0.7578 -0.6544  0.7987
 8772TIP3   OH250510   1.939   4.518  12.740 -0.0179  0.6597  0.1937
 8772TIP3    H150511   1.914   4.477  12.823  1.2596  1.9752  1.2664
 8772TIP3    H250512   2.007   4.581  12.763 -0.8212  2.2839 -1.6206
 8773TIP3   OH250513   1.313   0.773  12.439  0.5008 -0.0937  0.0344
 8773TIP3    H150514   1.318   0.781  12.344  1.8180  0.4078  0.1134
 8773TIP3    H250515   1.260   0.848  12.467 -1.6729 -1.3845 -0.4097
 8774TIP3   OH250516   5.847   2.813  10.756  0.2008 -0.2836 -0.3954
 8774TIP3    H150517   5.778   2.785  10.816 -0.5818  1.4110 -0.4404
 8774TIP3    H250518   5.832   2.761  10.677 -1.7063  0.7270 -0.7679
 8775TIP3   OH250519   7.522   0.021  12.170  0.1151 -0.3574 -0.0123
 8775TIP3    H150520   7.576   0.092  12.135 -1.5463  0.9082 -0.1393
 8775TIP3    H250521   7.495  -0.028  12.093 -1.3554  0.8350 -0.2998
 8776TIP3   OH250522   6.957   2.680  18.746  0.7880  0.0171  0.5551
 8776TIP3    H150523   6.929   2.622  18.675  1.6113  0.0379  0.2061
 8776TIP3    H250524   7.004   2.623  18.807  2.2015  0.4214 -0.1287
 8777TIP3   OH250525   0.694   0.921  10.524  0.0056  0.1457  0.4454
 8777TIP3    H150526   0.765   0.974  10.488 -0.4915  0.7732  0.3700
 8777TIP3    H250527   0.735   0.838  10.548  0.3805 -0.2376 -1.3995
 8778TIP3   OH250528   4.608   1.857  11.860  0.5855 -0.4946  0.1294
 8778TIP3    H150529   4.514   1.841  11.847  0.5163  0.1186 -0.1360
 8778TIP3    H250530   4.613   1.947  11.890  1.1471 -0.2927 -0.5570
 8779TIP3   OH250531   0.918   6.980  12.342  0.4501 -0.2714  0.3570
 8779TIP3    H150532   0.990   7.012  12.396  0.8914 -1.0179  0.2206
 8779TIP3    H250533   0.935   6.886  12.332  0.9203 -0.0073 -1.8809
 8780TIP3   OH250534   1.639   5.254  11.813 -0.2971  0.1625  0.2651
 8780TIP3    H150535   1.659   5.288  11.901 -1.5159  0.3486  0.4879
 8780TIP3    H250536   1.689   5.172  11.807 -0.2895  0.0918  1.1692
 8781TIP3   OH250537   3.800   3.941  11.601  0.4045  0.6731 -0.1081
 8781TIP3    H150538   3.771   3.938  11.693 -0.6630  2.4041 -0.3312
 8781TIP3    H250539   3.891   3.970  11.606  0.2976  0.9394  0.4051
 8782TIP3   OH250540   7.622   3.484  13.114 -0.6605 -0.5202 -0.2018
 8782TIP3    H150541   7.566   3.409  13.093  0.7386 -1.6705  0.0337
 8782TIP3    H250542   7.704   3.467  13.068 -0.2290  0.7612  0.0465
 8783TIP3   OH250543   7.619   7.171  13.435 -0.7381 -0.0465  0.6629
 8783TIP3    H150544   7.597   7.212  13.352  2.4848 -0.6299 -0.6487
 8783TIP3    H250545   7.627   7.243  13.497  1.2725  1.0166 -0.7238
 8784TIP3   OH250546   2.723   2.391  10.695  0.2607  0.5102  0.7875
 8784TIP3    H150547   2.773   2.395  10.777 -1.5568 -1.1563  2.0850
 8784TIP3    H250548   2.690   2.480  10.683  3.8632  1.8445 -0.4550
 8785TIP3   OH250549   2.259   3.386  13.088 -0.2148 -0.1113  0.3886
 8785TIP3    H150550   2.225   3.312  13.139 -0.0671 -1.6931 -1.6633
 8785TIP3    H250551   2.351   3.393  13.117 -1.0929  1.6514  3.1225
 8786TIP3   OH250552   5.936   7.252  11.502  0.5231 -0.3690 -0.0695
 8786TIP3    H150553   5.875   7.326  11.514  0.2223 -0.5355 -0.5620
 8786TIP3    H250554   5.942   7.213  11.589  1.4381  0.8069  0.4283
 8787TIP3   OH250555   3.088   6.359  11.087 -0.2411 -0.1986 -0.3669
 8787TIP3    H150556   3.175   6.328  11.110 -0.5722  0.1616  1.4850
 8787TIP3    H250557   3.097   6.389  10.996  2.0209  1.4990  0.3164
 8788TIP3   OH250558   1.672   7.123  11.410  0.1670 -0.3651 -1.1286
 8788TIP3    H150559   1.731   7.182  11.363  0.2628  0.9080  0.4946
 8788TIP3    H250560   1.701   7.127  11.501 -2.2048  0.0837 -0.3049
 8789TIP3   OH250561   1.434   7.307  11.831  0.4009 -0.4202 -0.3765
 8789TIP3    H150562   1.382   7.373  11.876  1.7560  0.0607  0.5551
 8789TIP3    H250563   1.461   7.247  11.900 -0.4434 -1.7288 -1.1462
 8790TIP3   OH250564   2.786   4.408  13.081 -0.2263  0.4335  0.1204
 8790TIP3    H150565   2.803   4.473  13.013 -0.3195  1.6566  1.2378
 8790TIP3    H250566   2.695   4.422  13.107 -0.0605  0.2943  0.8161
 8791TIP3   OH250567   5.755   2.240  12.453 -0.0185  0.3262  0.1966
 8791TIP3    H150568   5.750   2.290  12.535 -0.2244  0.5637  0.0407
 8791TIP3    H250569   5.790   2.303  12.389 -0.4830  0.3387 -0.0534
 8792TIP3   OH250570   1.879   5.889  11.024  0.2580  0.0328 -0.4531
 8792TIP3    H150571   1.789   5.916  11.043  0.9556  1.9860  0.2503
 8792TIP3    H250572   1.902   5.833  11.098  0.4595  1.6270  0.7357
 8793TIP3   OH250573   2.188   2.238  11.819 -0.9054 -0.3202  0.0132
 8793TIP3    H150574   2.280   2.212  11.819 -0.7217 -0.1157  3.2261
 8793TIP3    H250575   2.150   2.194  11.744  1.4877 -1.7150 -0.4732
 8794TIP3   OH250576   1.235   4.974  10.627  0.4005 -0.0340 -1.1324
 8794TIP3    H150577   1.329   4.968  10.648  0.3064 -0.0536 -0.7186
 8794TIP3    H250578   1.231   4.957  10.533  0.6596 -1.5871 -0.8833
 8795TIP3   OH250579   4.968   4.882  12.414  0.1488  0.3676  0.0422
 8795TIP3    H150580   5.061   4.861  12.424  0.4202  1.1983 -0.5216
 8795TIP3    H250581   4.965   4.978  12.424 -0.7771  0.2587  0.9142
 8796TIP3   OH250582   2.673   2.696  11.723  0.3771  0.0187  0.0246
 8796TIP3    H150583   2.714   2.627  11.671 -0.5755  0.1247 -0.8911
 8796TIP3    H250584   2.649   2.764  11.659  1.9569  1.5662  0.9817
 8797TIP3   OH250585   1.890   5.654  13.446 -0.3799  0.0122 -0.6271
 8797TIP3    H150586   1.981   5.637  13.422 -0.6076 -0.7791 -0.9654
 8797TIP3    H250587   1.869   5.737  13.403  0.2876  0.3751 -0.2569
 8798TIP3   OH250588   1.261   3.948  11.079  0.0918  0.0656  0.1477
 8798TIP3    H150589   1.336   3.989  11.036  0.1661 -0.3398 -0.1083
 8798TIP3    H250590   1.192   3.949  11.014 -0.1410  0.4758  0.3971
 8799TIP3   OH250591   3.788   7.094  11.267 -0.3052 -0.2596 -0.2772
 8799TIP3    H150592   3.718   7.097  11.202 -1.0708 -0.4203  0.5293
 8799TIP3    H250593   3.797   7.001  11.288  0.9409 -0.3850 -1.1900
 8800TIP3   OH250594   4.990   2.811  12.038 -0.3224  0.5244  0.1351
 8800TIP3    H150595   4.948   2.760  12.107  0.6235  0.6952  0.8542
 8800TIP3    H250596   4.917   2.845  11.986 -0.9668 -2.2143 -0.8774
 8801TIP3   OH250597   2.324   6.573  11.709  0.0038 -0.2705 -0.1802
 8801TIP3    H150598   2.342   6.667  11.712 -0.0123 -0.2044 -1.4172
 8801TIP3    H250599   2.400   6.536  11.663  0.6814 -1.0726  1.5088
 8802TIP3   OH250600   3.838   5.546  11.203  0.6269  0.4555  0.5587
 8802TIP3    H150601   3.924   5.532  11.164 -0.6438 -0.4663 -2.1607
 8802TIP3    H250602   3.809   5.459  11.230  0.4567  0.7451  1.3523
 8803TIP3   OH250603   5.409   2.417  11.320  0.0863  0.2854  0.3505
 8803TIP3    H150604   5.444   2.503  11.300 -1.3014  0.6523 -0.6160
 8803TIP3    H250605   5.344   2.400  11.252  0.6380 -1.7303  0.2519
 8804TIP3   OH250606   7.315   0.711  12.233  1.0068  0.4140 -0.2015
 8804TIP3    H150607   7.346   0.745  12.149  1.9533  0.2071  0.0511
 8804TIP3    H250608   7.365   0.630  12.246  0.5923  0.2467  0.3835
 8805TIP3   OH250609   7.115   5.469  10.894 -0.6662  0.2932 -0.0498
 8805TIP3    H150610   7.087   5.473  10.802 -0.5739 -0.0724 -0.0941
 8805TIP3    H250611   7.178   5.540  10.903 -0.8845  0.5056 -0.2010
 8806TIP3   OH250612   3.347   3.441  11.258 -0.2875 -0.2108  0.3922
 8806TIP3    H150613   3.324   3.518  11.311 -1.6515 -0.3428  0.0160
 8806TIP3    H250614   3.290   3.445  11.182  0.2274 -1.1427 -0.0688
 8807TIP3   OH250615   6.959   3.599  11.196  0.0092 -0.3631 -0.3403
 8807TIP3    H150616   6.891   3.641  11.249  1.1820 -0.0502  0.9710
 8807TIP3    H250617   6.948   3.506  11.213 -1.9577 -0.6387 -2.4848
 8808TIP3   OH250618   5.755   5.336  11.432  0.3579  0.0801  0.0515
 8808TIP3    H150619   5.786   5.327  11.523 -0.2210 -2.8306  0.0412
 8808TIP3    H250620   5.694   5.264  11.420 -0.1187  0.8162 -2.4842
 8809TIP3   OH250621   4.808   1.114  11.966  0.0047 -0.4568 -0.6048
 8809TIP3    H150622   4.728   1.094  11.917 -0.7475 -0.1144  0.4451
 8809TIP3    H250623   4.831   1.202  11.938 -0.6051 -0.1362 -0.1442
 8810TIP3   OH250624   2.715   4.451  10.854 -0.0313  0.1548 -0.1066
 8810TIP3    H150625   2.763   4.485  10.929  1.3756 -0.9503 -0.4751
 8810TIP3    H250626   2.714   4.524  10.791 -1.7195  1.2911  1.1314
 8811TIP3   OH250627   6.170   4.252  11.018 -0.5094  0.3231 -0.7972
 8811TIP3    H150628   6.246   4.194  11.027  0.0503  0.7158 -2.5990
 8811TIP3    H250629   6.171   4.305  11.098 -0.4865 -1.4584  0.4631
 8812TIP3   OH250630   0.615   4.880  12.769 -0.0865 -0.2217  0.5766
 8812TIP3    H150631   0.550   4.810  12.757 -0.4597  0.0467  1.0069
 8812TIP3    H250632   0.699   4.836  12.761 -0.3208 -0.6510  0.4344
 8813TIP3   OH250633   2.270   3.259  11.898 -0.5482  0.1250  0.0998
 8813TIP3    H150634   2.288   3.165  11.893 -1.2345 -0.0321  0.4072
 8813TIP3    H250635   2.250   3.275  11.990  0.3604  0.7333  0.2088
 8814TIP3   OH250636   4.225   6.365  10.987 -0.6973 -0.3865  0.2771
 8814TIP3    H150637   4.268   6.338  11.068 -1.2802 -0.9474  0.4034
 8814TIP3    H250638   4.295   6.361  10.921 -0.1306  0.4194  0.8036
 8815TIP3   OH250639   3.318   0.222  11.939 -0.2894  0.1814  0.2476
 8815TIP3    H150640   3.382   0.258  11.878 -0.8576 -1.6509 -1.5223
 8815TIP3    H250641   3.338   0.128  11.943 -0.8620  0.0897  2.1935
 8816TIP3   OH250642   6.682   3.150  10.551  0.6175  0.1917  0.4466
 8816TIP3    H150643   6.633   3.073  10.523  1.9487 -0.7688  0.6915
 8816TIP3    H250644   6.740   3.170  10.477 -1.5146  2.5984 -0.7157
 8817TIP3   OH250645   2.957   3.548  10.600  0.3868  0.0013  0.2522
 8817TIP3    H150646   3.038   3.539  10.650 -0.2905 -1.9303  1.1112
 8817TIP3    H250647   2.986   3.582  10.515  1.9558  0.3572  0.8797
 8818TIP3   OH250648   3.355   7.234  12.968 -0.0543 -0.3795  0.0255
 8818TIP3    H150649   3.358   7.193  13.055 -1.0730 -2.2090 -0.7448
 8818TIP3    H250650   3.265   7.223  12.939  0.2626  0.2184 -1.2668
 8819TIP3   OH250651   0.772   0.061  12.462 -0.2185 -0.1802 -0.0573
 8819TIP3    H150652   0.858   0.090  12.490 -0.8166  0.2680  1.3749
 8819TIP3    H250653   0.783  -0.032  12.443  0.7090  0.0081 -0.4819
 8820TIP3   OH250654   4.285   2.194  11.996 -0.1892  0.2723 -0.1018
 8820TIP3    H150655   4.237   2.127  12.044  1.3659 -0.3163  0.7004
 8820TIP3    H250656   4.377   2.178  12.018  0.3385  1.7216 -1.1084
 8821TIP3   OH250657   1.499   6.845  10.574  0.4687 -0.3640  0.2453
 8821TIP3    H150658   1.439   6.853  10.500 -1.0848 -2.2872  1.2191
 8821TIP3    H250659   1.577   6.803  10.538  0.8985  1.2206 -0.8131
 8822TIP3   OH250660   4.850   2.879  11.732 -0.1998 -0.3337  0.1142
 8822TIP3    H150661   4.808   2.898  11.648 -1.6031 -0.9250  0.6588
 8822TIP3    H250662   4.911   2.952  11.745 -2.8093  1.9560  0.4247
 8823TIP3   OH250663   0.237   6.157  10.564 -0.2099  0.4701  0.1864
 8823TIP3    H150664   0.267   6.106  10.639  3.6096  0.5522 -1.0834
 8823TIP3    H250665   0.213   6.092  10.499  1.3279  0.2916 -0.2259
 8824TIP3   OH250666   1.468   1.368  11.433  0.0368  0.0144  0.1520
 8824TIP3    H150667   1.389   1.351  11.485  0.2726 -0.9821  0.1949
 8824TIP3    H250668   1.528   1.411  11.494  0.3164 -1.1614  0.7350
 8825TIP3   OH250669   0.212   4.550  11.761 -0.2640 -0.1534 -0.2897
 8825TIP3    H150670   0.195   4.569  11.853  0.9603  1.3574 -0.3204
 8825TIP3    H250671   0.304   4.525  11.758 -0.5911 -1.3690 -0.9757
 8826TIP3   OH250672   3.648   3.313  13.281  0.1478  0.2282  0.5804
 8826TIP3    H150673   3.740   3.318  13.254  0.1531  2.2203  0.7890
 8826TIP3    H250674   3.634   3.221  13.300  1.8187 -0.2934 -0.4213
 8827TIP3   OH250675   1.773   6.923  11.137  0.5017  0.0257  0.2142
 8827TIP3    H150676   1.846   6.978  11.107 -0.5200  1.4433  0.2046
 8827TIP3    H250677   1.698   6.982  11.138 -0.7297 -1.4845 -0.0868
 8828TIP3   OH250678   2.068   1.063  10.915 -0.3576  0.0108 -0.1190
 8828TIP3    H150679   2.000   1.074  10.849 -2.5591  0.6855  2.1374
 8828TIP3    H250680   2.132   1.131  10.895 -1.7576  1.2256 -0.6202
 8829TIP3   OH250681   0.530   3.810  11.158 -0.1323  0.2239  0.0447
 8829TIP3    H150682   0.580   3.794  11.078  1.5173  3.3720  0.2762
 8829TIP3    H250683   0.545   3.732  11.212  2.1143 -0.2370 -1.1272
 8830TIP3   OH250684   0.715   2.350  12.699  0.9444  0.1305  0.6124
 8830TIP3    H150685   0.751   2.261  12.704 -0.0136 -0.2897  0.4634
 8830TIP3    H250686   0.632   2.344  12.746  0.4683  0.7305 -0.1235
 8831TIP3   OH250687   1.779   1.602  11.403 -0.2781  0.1606  0.1913
 8831TIP3    H150688   1.757   1.639  11.489  1.2778  0.9853  0.2594
 8831TIP3    H250689   1.809   1.513  11.423 -2.5718 -0.6710  0.1795
 8832TIP3   OH250690   7.018   1.138  12.956  0.2841  0.3306  0.2536
 8832TIP3    H150691   7.080   1.137  12.882 -0.3044  1.1852 -0.2643
 8832TIP3    H250692   6.932   1.141  12.915 -0.2088 -2.0142  0.9430
 8833TIP3   OH250693   1.249   7.494  11.889 -0.6416 -0.3743  0.3984
 8833TIP3    H150694   1.210   7.581  11.886 -0.8230 -0.4357 -2.9597
 8833TIP3    H250695   1.174   7.435  11.892 -0.6537 -0.4205 -0.5222
 8834TIP3   OH250696   3.885   0.965  13.082  0.2061 -0.1579 -0.2452
 8834TIP3    H150697   3.884   1.050  13.039 -0.1488  0.5073  1.0231
 8834TIP3    H250698   3.793   0.940  13.088  0.2785 -0.4181 -0.1963
 8835TIP3   OH250699   5.554   2.602  12.939 -0.1782  0.3276  0.2028
 8835TIP3    H150700   5.499   2.539  12.893 -0.2548  0.7815 -0.3407
 8835TIP3    H250701   5.627   2.618  12.878  0.4611 -0.1390  0.8396
 8836TIP3   OH250702   4.643   5.430  12.534 -0.3709  0.8986 -0.2691
 8836TIP3    H150703   4.653   5.359  12.597 -0.3287 -0.0970 -1.3503
 8836TIP3    H250704   4.727   5.476  12.536 -0.8507  1.7513  1.3820
 8837TIP3   OH250705   4.644   4.763  12.412 -0.1021  0.3184 -0.3207
 8837TIP3    H150706   4.676   4.837  12.361 -1.4897  0.0764 -1.6196
 8837TIP3    H250707   4.689   4.770  12.496 -0.5678  2.9276 -0.2089
 8838TIP3   OH250708   2.148   1.935  11.785  0.3550 -0.3053 -0.2535
 8838TIP3    H150709   2.197   1.886  11.720 -0.9269 -0.7889 -0.8781
 8838TIP3    H250710   2.109   2.008  11.736  0.1032 -0.1730  0.1366
 8839TIP3   OH250711   1.223   5.953  11.780 -0.4467 -0.1019 -0.0659
 8839TIP3    H150712   1.256   5.865  11.761 -0.8311  0.2808 -3.0585
 8839TIP3    H250713   1.156   5.968  11.713 -0.4032  2.4605  0.3655
 8840TIP3   OH250714   0.515   3.086  11.659  0.1300 -0.6847  0.0645
 8840TIP3    H150715   0.548   3.045  11.579 -0.1776 -0.8088  0.0006
 8840TIP3    H250716   0.492   3.175  11.632  1.7143 -0.1352  0.4159
 8841TIP3   OH250717   0.604   3.262  11.886 -0.0899 -0.4236 -0.2365
 8841TIP3    H150718   0.540   3.262  11.814 -0.6929  1.1896  0.2615
 8841TIP3    H250719   0.681   3.304  11.849  0.4378 -1.6359 -0.5873
 8842TIP3   OH250720   2.259   6.320  10.656  0.6805 -0.1105  0.1672
 8842TIP3    H150721   2.207   6.354  10.729 -1.6531 -1.6459 -0.6433
 8842TIP3    H250722   2.331   6.272  10.697 -0.3813 -0.6362  1.4921
 8843TIP3   OH250723   4.581   3.102  10.720 -1.0331  0.3162  0.2464
 8843TIP3    H150724   4.641   3.163  10.764 -0.7252  1.1116 -1.1995
 8843TIP3    H250725   4.501   3.154  10.706 -1.4888 -0.2421  0.7548
 8844TIP3   OH250726   3.100   5.310  12.536 -0.1931 -0.1349  0.2213
 8844TIP3    H150727   3.075   5.279  12.623  0.8425  0.5295  0.7733
 8844TIP3    H250728   3.038   5.380  12.516 -1.4772 -1.3680 -0.3108
 8845TIP3   OH250729   4.078   7.642  12.540  0.2221 -0.2327 -0.3995
 8845TIP3    H150730   3.999   7.658  12.593 -1.2915 -1.9333 -1.9784
 8845TIP3    H250731   4.079   7.714  12.477  1.9583  1.7277  1.7027
 8846TIP3   OH250732   4.497   6.968  12.558 -0.2546 -0.6265  0.0555
 8846TIP3    H150733   4.449   7.012  12.628 -0.5477  0.2678 -0.6905
 8846TIP3    H250734   4.545   7.037  12.514 -0.3439 -1.1133 -0.8395
 8847TIP3   OH250735   1.192   2.436  13.480 -0.0969  0.2962 -0.2615
 8847TIP3    H150736   1.209   2.497  13.552  1.1221 -0.6969  0.3417
 8847TIP3    H250737   1.108   2.463  13.445 -1.2204  0.2442  2.1556
 8848TIP3   OH250738   2.150   7.399  13.099 -0.3244  0.0087  0.1488
 8848TIP3    H150739   2.207   7.418  13.024  0.0876  0.8984  0.6734
 8848TIP3    H250740   2.195   7.330  13.146 -0.7862 -0.8496 -0.6287
 8849TIP3   OH250741   5.703   4.872  11.600  0.0087 -0.5396  0.2712
 8849TIP3    H150742   5.708   4.820  11.521 -0.9479 -0.3328  0.0568
 8849TIP3    H250743   5.652   4.949  11.575 -0.4460 -0.5471  1.1178
 8850TIP3   OH250744   0.452   5.560  11.972  0.0618 -0.3808  0.4929
 8850TIP3    H150745   0.384   5.507  12.013 -0.7438  0.6106  0.4608
 8850TIP3    H250746   0.533   5.513  11.991 -0.5695 -1.3261  0.9391
 8851TIP3   OH250747   7.298   4.210  12.243 -0.2466 -0.3484 -0.0279
 8851TIP3    H150748   7.327   4.271  12.311 -0.8628 -0.5766  0.4493
 8851TIP3    H250749   7.234   4.260  12.193  0.6781  0.0374 -0.8621
 8852TIP3   OH250750   7.313   3.999  12.057  0.0147 -0.0734 -0.3151
 8852TIP3    H150751   7.359   3.942  12.119 -0.8900 -2.1901 -1.4661
 8852TIP3    H250752   7.295   4.079  12.106  0.0389 -1.3473  1.8971
 8853TIP3   OH250753   5.834   4.379  11.987 -0.4697 -0.2373  0.0739
 8853TIP3    H150754   5.790   4.452  11.944 -1.3603 -1.6344 -1.4696
 8853TIP3    H250755   5.922   4.412  12.004 -1.5152  2.0444  1.7082
 8854TIP3   OH250756   5.027   0.444  12.388  0.0615  0.4419  0.5667
 8854TIP3    H150757   4.961   0.439  12.457  0.2034  2.5913  0.9063
 8854TIP3    H250758   4.980   0.473  12.310  0.2518 -0.0938  0.2418
 8855TIP3   OH250759   6.261   7.645  12.750 -0.2514 -0.5938  0.1248
 8855TIP3    H150760   6.170   7.626  12.774 -0.2458 -2.8445 -1.3470
 8855TIP3    H250761   6.312   7.619  12.826 -0.7310 -0.8728  0.3534
 8856TIP3   OH250762   4.583   5.485  12.267 -0.1674 -0.5906  0.3404
 8856TIP3    H150763   4.570   5.579  12.274 -0.3129 -0.5315 -0.6228
 8856TIP3    H250764   4.605   5.457  12.356  0.8326  0.4924  0.4615
 8857TIP3   OH250765   5.319   6.745  10.608  0.1698  0.3446  0.2249
 8857TIP3    H150766   5.363   6.768  10.526 -0.9648 -0.6209 -0.6924
 8857TIP3    H250767   5.319   6.826  10.659 -0.4806  1.4099 -1.3778
 8858TIP3   OH250768   1.973   3.837  11.486  0.2520  0.1874 -0.3013
 8858TIP3    H150769   1.980   3.769  11.419 -0.6471  0.7387 -0.9720
 8858TIP3    H250770   1.879   3.849  11.498  0.3744 -0.3455  1.5360
 8859TIP3   OH250771   1.812   5.635  10.727  0.2896 -0.0778 -0.3909
 8859TIP3    H150772   1.888   5.604  10.677  1.3883  2.5263 -0.4803
 8859TIP3    H250773   1.737   5.600  10.680  1.3733 -0.5347 -1.8779
 8860TIP3   OH250774   6.014   4.031  12.472 -0.0269  0.1736 -1.0566
 8860TIP3    H150775   6.103   4.057  12.497 -0.5581  1.2399 -0.1482
 8860TIP3    H250776   5.995   3.956  12.529  0.9034 -1.2130 -2.4973
 8861TIP3   OH250777   6.965   1.372  12.760  0.3572  0.0957  0.1892
 8861TIP3    H150778   6.958   1.431  12.835 -1.0912  0.0077  0.1511
 8861TIP3    H250779   6.895   1.309  12.773  1.6894 -1.4644  0.0691
 8862TIP3   OH250780   4.556   0.534  13.486 -0.3728  0.6743 -0.0995
 8862TIP3    H150781   4.585   0.600  13.423 -1.7319  0.9821 -0.4316
 8862TIP3    H250782   4.487   0.486  13.441  0.7639 -1.1885  0.0419
 8863TIP3   OH250783   4.157   7.106  11.966  0.0779 -0.3634 -0.7230
 8863TIP3    H150784   4.162   7.187  12.017  1.3758 -1.0579  0.3332
 8863TIP3    H250785   4.235   7.108  11.911 -0.1322 -0.6771 -1.0306
 8864TIP3   OH250786   6.959   3.282  12.024 -0.3088  0.2966  0.0548
 8864TIP3    H150787   7.049   3.290  12.055 -0.5697 -0.0561  0.9129
 8864TIP3    H250788   6.940   3.368  11.986  0.1651  0.5882  0.4595
 8865TIP3   OH250789   0.215   4.631  12.042 -0.2157 -0.0522  0.5533
 8865TIP3    H150790   0.154   4.698  12.011 -0.1346  0.7562  2.0254
 8865TIP3    H250791   0.167   4.585  12.111  0.3022 -0.4197  0.6730
 8866TIP3   OH250792   4.184   7.162  12.364  0.9738  0.0945 -0.3973
 8866TIP3    H150793   4.220   7.248  12.385  0.1969  0.6869 -1.4086
 8866TIP3    H250794   4.134   7.137  12.442  1.2318  0.5323 -0.0877
 8867TIP3   OH250795   2.019   2.110  11.633 -0.2002  0.0684 -0.2188
 8867TIP3    H150796   1.963   2.039  11.602 -0.9566 -0.8773  2.8899
 8867TIP3    H250797   1.987   2.187  11.586 -2.2582 -0.9457 -0.6253
 8868TIP3   OH250798   4.391   6.826  10.574 -0.6024 -0.0119 -0.1591
 8868TIP3    H150799   4.438   6.744  10.557 -0.4011  0.4388 -1.9015
 8868TIP3    H250800   4.300   6.800  10.587 -0.8295 -0.4061 -2.2611
 8869TIP3   OH250801   1.099   2.239  12.512 -0.2530  0.2075 -0.0334
 8869TIP3    H150802   1.079   2.257  12.604  1.5009  0.2018  0.3880
 8869TIP3    H250803   1.074   2.319  12.466  0.5078  0.9091  0.7272
 8870TIP3   OH250804   3.994   7.400  11.308 -0.0190 -1.0680 -0.0207
 8870TIP3    H150805   4.042   7.397  11.390 -0.0247  0.7187  0.0825
 8870TIP3    H250806   4.061   7.413  11.241 -0.2567  1.6482  0.1446
 8871TIP3   OH250807   2.514   3.673  13.360 -0.1786 -0.3531 -0.2937
 8871TIP3    H150808   2.443   3.631  13.408  1.0944 -0.9380  1.1762
 8871TIP3    H250809   2.593   3.626  13.389  0.8068  0.2650 -1.8656
 8872TIP3   OH250810   2.931   3.087  12.187 -0.1841  0.0558 -0.2706
 8872TIP3    H150811   2.999   3.028  12.219  0.0524 -1.7775 -3.7315
 8872TIP3    H250812   2.979   3.166  12.161  0.2928 -0.2783 -0.4326
 8873TIP3   OH250813   5.338   2.498  10.876 -0.3688  0.0354  0.5658
 8873TIP3    H150814   5.317   2.406  10.894  0.9477 -0.0894  1.6960
 8873TIP3    H250815   5.350   2.503  10.781 -0.3927 -0.9835  0.5038
 8874TIP3   OH250816   1.507   5.467  12.247  0.2784 -0.0152 -0.0439
 8874TIP3    H150817   1.517   5.506  12.160  0.0452  1.3795  0.5248
 8874TIP3    H250818   1.436   5.403  12.237 -0.5430  0.9484 -0.6473
 8875TIP3   OH250819   6.379   4.408  11.981 -0.2531  0.4094 -0.8651
 8875TIP3    H150820   6.404   4.331  11.931  0.3211 -0.4114  0.6068
 8875TIP3    H250821   6.457   4.430  12.033 -0.7988  1.2327 -0.3653
 8876TIP3   OH250822   3.937   0.801  12.559 -0.1212 -0.1051  0.6348
 8876TIP3    H150823   3.925   0.772  12.468  0.8257 -0.5473  0.6411
 8876TIP3    H250824   3.873   0.749  12.609 -0.6098  0.1038  0.2324
 8877TIP3   OH250825   6.551   7.225  11.079  0.1491 -0.1423 -0.3453
 8877TIP3    H150826   6.483   7.186  11.133  1.2265 -0.6398  0.7225
 8877TIP3    H250827   6.573   7.307  11.123 -0.9008  0.8546 -1.6185
 8878TIP3   OH250828   2.319   1.184  12.662 -0.0671  0.5526  0.0083
 8878TIP3    H150829   2.414   1.191  12.668 -0.0812  0.3683  0.5600
 8878TIP3    H250830   2.286   1.259  12.712 -0.2041 -0.7772  2.0264
 8879TIP3   OH250831   3.859   4.361  11.653  0.1507  0.2236 -0.4348
 8879TIP3    H150832   3.941   4.339  11.697  0.4708  2.5347  0.3111
 8879TIP3    H250833   3.886   4.410  11.576 -0.4698  1.8840  0.3442
 8880TIP3   OH250834   5.643   3.845  10.929 -0.1458 -0.1006  0.2938
 8880TIP3    H150835   5.583   3.830  11.002 -0.1764  2.1849  0.8042
 8880TIP3    H250836   5.723   3.799  10.954 -0.5394 -0.2925  1.2356
 8881TIP3   OH250837   1.698   6.642  10.527  0.2860 -0.1001 -0.5145
 8881TIP3    H150838   1.717   6.558  10.568  0.1847 -0.8370 -1.9194
 8881TIP3    H250839   1.735   6.635  10.439  0.0762  1.2438 -0.7365
 8882TIP3   OH250840   7.617   4.891  12.190 -0.6340  0.0048  0.3528
 8882TIP3    H150841   7.633   4.985  12.193  0.8527 -0.2214  0.0919
 8882TIP3    H250842   7.542   4.881  12.131 -1.8199  1.1039  1.5929
 8883TIP3   OH250843   0.877   1.000  12.236  0.2290  0.9882  0.5390
 8883TIP3    H150844   0.875   1.077  12.294 -1.4847  1.1530  0.3038
 8883TIP3    H250845   0.785   0.979  12.222  0.6711 -0.8187  0.1836
 8884TIP3   OH250846   4.818   4.277  10.969 -0.2284  0.1292  0.4272
 8884TIP3    H150847   4.743   4.284  10.910  0.2678 -3.6607 -0.9498
 8884TIP3    H250848   4.873   4.352  10.946 -1.0499 -0.0270 -2.5644
 8885TIP3   OH250849   1.288   2.244  11.909  0.0358  0.1009 -0.1167
 8885TIP3    H150850   1.244   2.259  11.825 -1.0150  0.7649  0.5356
 8885TIP3    H250851   1.381   2.249  11.888 -0.2142  1.1118 -1.0995
 8886TIP3   OH250852   2.120   7.567  11.881 -1.0629  0.0385  0.2580
 8886TIP3    H150853   2.156   7.619  11.809 -1.0588  1.2587  1.1118
 8886TIP3    H250854   2.103   7.481  11.842  1.1527 -0.0724 -0.6035
 8887TIP3   OH250855   1.815   2.795  10.442 -0.0369 -0.2414  0.2151
 8887TIP3    H150856   1.767   2.849  10.380 -0.5551 -0.4539  0.4319
 8887TIP3    H250857   1.884   2.852  10.475 -0.9415  0.4848  0.8907
 8888TIP3   OH250858   5.883   0.049  11.082  0.0643  0.0896 -0.4336
 8888TIP3    H150859   5.955  -0.013  11.092  1.0470  1.3844  0.8874
 8888TIP3    H250860   5.858   0.043  10.990  2.3963  0.1854 -1.1245
 8889TIP3   OH250861   1.400   4.501  12.634  0.6193  0.2930  0.2456
 8889TIP3    H150862   1.419   4.434  12.699  0.6588  0.0653 -0.0012
 8889TIP3    H250863   1.388   4.581  12.685  2.0651  0.4144  0.4222
 8890TIP3   OH250864   0.245   7.418  13.414 -0.0172  0.5399 -0.2115
 8890TIP3    H150865   0.323   7.401  13.467 -0.4721  0.5806  0.4807
 8890TIP3    H250866   0.257   7.508  13.382 -0.2625  0.9384  0.7619
 8891TIP3   OH250867   4.135   5.285  12.088  0.1346 -0.8077  0.7673
 8891TIP3    H150868   4.042   5.296  12.108 -0.5920  0.6008 -2.6593
 8891TIP3    H250869   4.165   5.217  12.148 -2.8720 -0.7627  2.5224
 8892TIP3   OH250870   4.266   3.030  11.011 -0.0987  0.4213  0.0392
 8892TIP3    H150871   4.192   2.968  11.008  0.3363 -0.0953 -0.2946
 8892TIP3    H250872   4.253   3.080  11.091  0.0101 -0.7127  0.7827
 8893TIP3   OH250873   2.950   5.495  10.638 -0.6424  0.6006  0.4926
 8893TIP3    H150874   2.954   5.529  10.548  0.1978  0.2342  0.3907
 8893TIP3    H250875   2.965   5.572  10.693  0.8624  0.4915  0.2693
 8894TIP3   OH250876   1.398   2.245  13.500 -0.0914  0.0627 -0.3203
 8894TIP3    H150877   1.443   2.287  13.573  3.4407  0.8434 -2.6991
 8894TIP3    H250878   1.334   2.310  13.471 -0.0209  0.6168  0.6868
 8895TIP3   OH250879   0.404   6.199  11.107 -0.4223 -0.1436  0.3698
 8895TIP3    H150880   0.363   6.222  11.190  2.2668 -2.5904  2.5957
 8895TIP3    H250881   0.471   6.266  11.093 -0.8497  0.2457  0.1527
 8896TIP3   OH250882   2.894   3.330  12.816  0.3446 -0.4504 -0.2539
 8896TIP3    H150883   2.986   3.359  12.814  0.6433 -0.8787  2.7274
 8896TIP3    H250884   2.890   3.269  12.890 -2.0157 -1.8106 -1.3920
 8897TIP3   OH250885   1.237   1.898  10.468 -0.2849  0.1002  0.0293
 8897TIP3    H150886   1.318   1.849  10.480  0.2324  1.1911  1.2050
 8897TIP3    H250887   1.256   1.960  10.397  0.2171  0.9567  0.8984
 8898TIP3   OH250888   2.327   4.521  12.838  0.2101  0.3801  0.0115
 8898TIP3    H150889   2.272   4.481  12.771  1.0074  0.0738 -0.4699
 8898TIP3    H250890   2.346   4.450  12.899  0.1077  0.4755  0.1556
 8899TIP3   OH250891   7.544   2.566  12.793 -0.3143 -0.4656 -0.3455
 8899TIP3    H150892   7.559   2.524  12.877 -1.3410 -0.7507 -0.2850
 8899TIP3    H250893   7.463   2.526  12.760  0.6946 -1.2194 -2.0331
 8900TIP3   OH250894   2.499   7.474  10.981  0.7375 -0.2204  0.5158
 8900TIP3    H150895   2.568   7.540  10.969  0.3116  0.3861  1.2822
 8900TIP3    H250896   2.425   7.524  11.015 -0.0223 -0.8980 -0.1134
 8901TIP3   OH250897   3.301   6.907  10.321 -0.0848  0.5290  0.1147
 8901TIP3    H150898   3.349   6.868  10.248 -1.5430  0.1339 -0.6704
 8901TIP3    H250899   3.369   6.931  10.384  1.1163 -0.1951 -0.8552
 8902TIP3   OH250900   1.421   2.465  12.577 -0.1753 -0.1337 -1.0375
 8902TIP3    H150901   1.434   2.559  12.564 -2.2398  0.0131 -2.6688
 8902TIP3    H250902   1.353   2.459  12.645  0.2061 -0.4636 -0.6813
 8903TIP3   OH250903   0.943   2.178  10.771  0.3669  0.6403  0.0127
 8903TIP3    H150904   1.017   2.231  10.743  1.6784 -0.8144  0.5558
 8903TIP3    H250905   0.957   2.093  10.730  0.1869 -0.3168  1.8349
 8904TIP3   OH250906   3.281   7.265  11.865 -0.1392  0.1871 -0.0162
 8904TIP3    H150907   3.272   7.296  11.955  3.7722 -0.8054  0.8797
 8904TIP3    H250908   3.352   7.318  11.828 -1.7677  0.7060 -2.6808
 8905TIP3   OH250909   4.363   2.328  11.652  0.0466 -0.2501  0.1964
 8905TIP3    H150910   4.413   2.319  11.571  0.1648  1.3759  0.0593
 8905TIP3    H250911   4.277   2.293  11.631  1.1088 -3.3302  0.5062
 8906TIP3   OH250912   5.835   2.895  11.323 -0.0752  0.6139  0.5161
 8906TIP3    H150913   5.867   2.940  11.245 -4.0383 -1.1831 -2.5045
 8906TIP3    H250914   5.800   2.965  11.379 -0.5834  1.7304 -1.1346
 8907TIP3   OH250915   5.228   3.952  10.909  0.3585 -0.1022 -0.3076
 8907TIP3    H150916   5.136   3.948  10.937 -0.3058  0.2862 -2.2329
 8907TIP3    H250917   5.258   3.862  10.913 -0.3921 -0.3689 -0.4753
 8908TIP3   OH250918   0.512   4.263  11.631  0.1717 -0.1873  0.5107
 8908TIP3    H150919   0.590   4.228  11.587 -0.3824 -0.7863 -0.0090
 8908TIP3    H250920   0.457   4.296  11.560  0.6153  1.6742  0.9668
 8909TIP3   OH250921   1.979   5.736  10.421 -0.6953 -0.2709  0.4216
 8909TIP3    H150922   2.039   5.788  10.367 -0.0504 -2.2436 -0.8804
 8909TIP3    H250923   1.894   5.777  10.408 -0.4532 -0.3217 -1.7028
 8910TIP3   OH250924   7.533   0.876  11.684 -0.1684 -0.0054  0.1517
 8910TIP3    H150925   7.614   0.890  11.634  0.1073 -0.6499  0.3985
 8910TIP3    H250926   7.469   0.850  11.619 -0.2495  0.7620 -0.0808
 8911TIP3   OH250927   5.671   3.295  12.116 -0.2742  0.7839  0.8992
 8911TIP3    H150928   5.732   3.224  12.130 -0.9925 -0.3805 -1.3340
 8911TIP3    H250929   5.714   3.352  12.052 -1.7839 -0.6072 -1.5307
 8912TIP3   OH250930   2.098   5.923  12.890 -0.2909  0.4788  0.1459
 8912TIP3    H150931   2.044   5.851  12.857  0.8601 -0.1955 -0.3150
 8912TIP3    H250932   2.058   5.946  12.974  0.9992 -2.6829  1.7768
 8913TIP3   OH250933   6.847   3.087  11.111 -0.0841  0.2667  0.2198
 8913TIP3    H150934   6.886   3.000  11.103 -2.7214 -1.0666  0.6003
 8913TIP3    H250935   6.884   3.123  11.192  0.7657 -0.6507  0.2532
 8914TIP3   OH250936   6.159   0.536  12.500  0.3905  0.1165 -0.8211
 8914TIP3    H150937   6.095   0.538  12.571 -0.9546  0.8544 -2.0158
 8914TIP3    H250938   6.173   0.443  12.482 -1.1879 -0.0569 -1.2615
 8915TIP3   OH250939   3.153   1.664  10.450  0.2748  0.3271 -0.0880
 8915TIP3    H150940   3.091   1.614  10.397  1.7528 -0.1142 -1.4841
 8915TIP3    H250941   3.098   1.712  10.513 -1.3369 -1.2717 -0.1981
 8916TIP3   OH250942   1.707   2.439  12.809 -0.1198  0.1538 -0.0758
 8916TIP3    H150943   1.708   2.392  12.726 -0.5602  0.4330 -0.2407
 8916TIP3    H250944   1.649   2.387  12.865  1.1488 -0.7220  0.4720
 8917TIP3   OH250945   1.637   3.619  11.770 -0.5758  0.4609  0.5102
 8917TIP3    H150946   1.694   3.582  11.702 -1.4327 -0.3451  0.1971
 8917TIP3    H250947   1.562   3.653  11.721 -0.6138  1.0246  0.9555
 8918TIP3   OH250948   4.759   1.196  11.308 -0.3433  0.0934 -0.5561
 8918TIP3    H150949   4.664   1.205  11.315 -0.2825  0.3216  0.0977
 8918TIP3    H250950   4.791   1.217  11.396  0.2693 -0.5295 -0.6257
 8919TIP3   OH250951   3.268   1.609  12.623 -0.2373 -0.3802 -0.1667
 8919TIP3    H150952   3.258   1.569  12.537 -0.2110  0.3598 -0.5160
 8919TIP3    H250953   3.189   1.661  12.635 -1.7549 -2.8411  1.5686
 8920TIP3   OH250954   0.162   5.114  11.011 -0.3282 -0.0862  0.0273
 8920TIP3    H150955   0.136   5.204  10.992  0.5861  0.3618  0.7787
 8920TIP3    H250956   0.093   5.080  11.067 -0.7469  0.1030 -0.3712
 8921TIP3   OH250957   2.738   3.915  11.903  0.4205  0.3428 -0.0806
 8921TIP3    H150958   2.665   3.951  11.852 -0.1954 -0.2060  0.4003
 8921TIP3    H250959   2.702   3.838  11.946  1.5753 -0.6087 -0.7144
 8922TIP3   OH250960   0.369   6.161  12.017  0.4564 -0.3986  0.3646
 8922TIP3    H150961   0.354   6.080  12.065 -1.2650 -0.2139  0.2098
 8922TIP3    H250962   0.281   6.199  12.006  1.1853  1.3431  0.1997
 8923TIP3   OH250963   1.981   0.950  12.350 -0.6183  0.2000 -0.6281
 8923TIP3    H150964   1.974   0.858  12.377  0.8309 -0.6509 -2.8714
 8923TIP3    H250965   1.895   0.971  12.313 -0.9294 -0.2692 -0.1828
 8924TIP3   OH250966   7.465   2.172  12.242  0.7834 -0.4859 -1.1487
 8924TIP3    H150967   7.438   2.113  12.172 -0.1684  1.4545 -2.4950
 8924TIP3    H250968   7.469   2.259  12.201 -0.2279  0.7998  1.2718
 8925TIP3   OH250969   0.775   2.679  13.412 -0.1065 -0.2112 -0.1111
 8925TIP3    H150970   0.802   2.653  13.324 -0.8796 -0.0459 -0.4114
 8925TIP3    H250971   0.853   2.718  13.451 -0.2645  1.5684 -1.4473
 8926TIP3   OH250972   4.161   6.158  11.707 -0.3208  0.1717  0.2230
 8926TIP3    H150973   4.201   6.239  11.740 -1.4687  0.6300  0.5523
 8926TIP3    H250974   4.139   6.108  11.785  1.4274 -1.0239  0.0029
 8927TIP3   OH250975   3.704   6.517  10.907 -0.3502  0.4413  0.7776
 8927TIP3    H150976   3.627   6.561  10.871 -1.7415 -2.5795 -0.1901
 8927TIP3    H250977   3.774   6.539  10.844 -1.6870 -0.9901 -1.3276
 8928TIP3   OH250978   6.892   4.659  11.304  0.6414  0.3228  0.4795
 8928TIP3    H150979   6.952   4.584  11.298  1.9568  1.4224 -1.9879
 8928TIP3    H250980   6.867   4.676  11.213 -3.7980 -0.2358  1.3796
 8929TIP3   OH250981   2.662   0.026  10.917 -0.1466  0.2997 -0.2111
 8929TIP3    H150982   2.726  -0.038  10.886 -0.0620  0.5284 -0.5176
 8929TIP3    H250983   2.704   0.068  10.992 -0.5820 -0.6588  0.6024
 8930TIP3   OH250984   3.062   2.453  10.581 -0.1847 -0.1596  0.3081
 8930TIP3    H150985   3.103   2.366  10.582  1.1146  0.3726 -1.0644
 8930TIP3    H250986   3.024   2.460  10.494 -1.0720  0.3125  0.7253
 8931TIP3   OH250987   7.549   5.448  13.035 -0.3544 -0.1059  0.0401
 8931TIP3    H150988   7.595   5.528  13.059 -1.1924  0.4980 -0.3298
 8931TIP3    H250989   7.563   5.390  13.110  1.3936 -0.1363 -0.2514
 8932TIP3   OH250990   3.364   5.056  13.184 -0.3054  0.2232  1.0918
 8932TIP3    H150991   3.380   5.027  13.094 -0.1768  0.7975  0.9238
 8932TIP3    H250992   3.335   5.147  13.175  0.1596  0.4361  1.6540
 8933TIP3   OH250993   1.127   0.867  11.505  0.2560 -0.1673 -0.5745
 8933TIP3    H150994   1.105   0.951  11.544  0.0007 -0.7128  0.4877
 8933TIP3    H250995   1.221   0.872  11.487  1.0227 -0.8535  2.6497
 8934TIP3   OH250996   5.476   3.945  11.358 -0.0596  0.7913 -0.5025
 8934TIP3    H150997   5.469   4.038  11.335 -0.0624  0.6288 -1.1705
 8934TIP3    H250998   5.560   3.939  11.404 -0.5631  1.3123  0.5347
 8935TIP3   OH250999   6.359   5.907  10.631 -0.1293 -0.3645 -0.5331
 8935TIP3    H151000   6.438   5.879  10.678  0.3865 -0.4471 -1.4311
 8935TIP3    H251001   6.389   5.924  10.542 -1.0779 -0.1180 -0.8128
 8936TIP3   OH251002   0.298   2.579  10.251  0.1195  0.3354 -0.0455
 8936TIP3    H151003   0.296   2.488  10.221  1.7710  0.4759 -0.6879
 8936TIP3    H251004   0.380   2.586  10.302  0.3846  1.6273 -0.6076
 8937TIP3   OH251005   0.957   2.640  11.112  0.1421  0.1679 -0.1988
 8937TIP3    H151006   0.902   2.568  11.143 -1.8763  1.1873 -1.1981
 8937TIP3    H251007   1.011   2.601  11.043 -0.6568 -0.4813 -0.4720
 8938TIP3   OH251008   3.586   7.251  11.659  0.4596  0.3552 -0.0504
 8938TIP3    H151009   3.668   7.239  11.612 -0.2583  0.0336 -1.2703
 8938TIP3    H251010   3.548   7.330  11.620 -0.4377 -0.2607 -0.4344
 8939TIP3   OH251011   5.976   5.525  10.839 -0.1665 -0.0103  0.0862
 8939TIP3    H151012   5.914   5.571  10.896 -2.7256 -1.4514 -1.3645
 8939TIP3    H251013   5.995   5.587  10.769 -0.7528  0.1277  0.0406
 8940TIP3   OH251014   2.899   6.564  10.860  0.2576 -0.0688  0.6270
 8940TIP3    H151015   2.878   6.473  10.879  1.1997 -0.0243  2.0380
 8940TIP3    H251016   2.924   6.601  10.945 -1.0416  1.7793  0.2558
 8941TIP3   OH251017   3.863   2.517  11.870  0.3673  0.7749  0.4426
 8941TIP3    H151018   3.770   2.540  11.865  0.5752  1.4795 -0.7631
 8941TIP3    H251019   3.865   2.422  11.860 -0.2282  0.7535  0.5077
 8942TIP3   OH251020   1.652   7.578  11.032 -0.3857  0.8742  0.0389
 8942TIP3    H151021   1.707   7.642  11.077  1.3664  0.7763 -1.8442
 8942TIP3    H251022   1.626   7.621  10.950  1.0227 -0.8313 -1.3864
 8943TIP3   OH251023   1.439   2.893  10.947  0.1233 -0.6949 -0.0319
 8943TIP3    H151024   1.507   2.917  10.884  0.0467 -1.3679 -0.3738
 8943TIP3    H251025   1.372   2.850  10.895 -0.7482  0.2820  0.2511
 8944TIP3   OH251026   2.942   4.905  11.487 -0.2069 -0.1742 -0.0653
 8944TIP3    H151027   2.856   4.930  11.520  0.1770  1.1745 -0.0546
 8944TIP3    H251028   2.934   4.912  11.392 -0.0038  0.3171 -0.0479
 8945TIP3   OH251029   2.961   4.882  10.712 -0.1872 -0.0584 -0.6945
 8945TIP3    H151030   3.011   4.890  10.793 -0.6317  0.0096 -0.4246
 8945TIP3    H251031   3.026   4.891  10.642  0.5762 -2.2659 -0.3643
 8946TIP3   OH251032   1.366   1.274  10.695 -0.3484 -0.6794  0.1693
 8946TIP3    H151033   1.293   1.214  10.712  0.3526 -2.0154 -1.3030
 8946TIP3    H251034   1.356   1.298  10.603  0.8271 -0.5357  0.0718
 8947TIP3   OH251035   2.324   1.130  11.323  0.4416  0.0893 -0.2841
 8947TIP3    H151036   2.386   1.195  11.290  0.5841 -1.1309 -2.6518
 8947TIP3    H251037   2.298   1.081  11.246 -2.3429 -0.4474  0.8847
 8948TIP3   OH251038   2.154   4.867  12.427  0.1178  0.5676  0.2227
 8948TIP3    H151039   2.073   4.855  12.379  0.5472 -1.1531 -0.1218
 8948TIP3    H251040   2.201   4.935  12.378 -0.2976  0.2212 -0.6825
 8949TIP3   OH251041   6.116   1.350  11.707 -0.2106  0.0872 -0.3991
 8949TIP3    H151042   6.160   1.273  11.672 -0.2435 -0.6595  1.1225
 8949TIP3    H251043   6.044   1.315  11.759 -0.0612  1.1137  0.5420
 8950TIP3   OH251044   6.431   0.672  11.795  0.2626 -0.0536  0.0735
 8950TIP3    H151045   6.419   0.763  11.767 -0.1221  0.2964  1.3056
 8950TIP3    H251046   6.516   0.671  11.840 -0.1936 -0.0462  0.9678
 8951TIP3   OH251047   4.125   7.095  11.639  0.1413  0.2008  0.2876
 8951TIP3    H151048   4.041   7.102  11.683  0.0341 -4.1696  1.1920
 8951TIP3    H251049   4.105   7.102  11.546 -1.0319  0.3420  0.5461
 8952TIP3   OH251050   2.575   2.597  10.810 -0.3948  0.3691  0.3257
 8952TIP3    H151051   2.506   2.551  10.762 -1.3902  0.4114  1.6814
 8952TIP3    H251052   2.542   2.605  10.899  1.4904  0.1458  1.0865
 8953TIP3   OH251053   3.511   6.445  12.370  0.6155  0.0930 -0.3462
 8953TIP3    H151054   3.528   6.499  12.293  0.1279 -0.5631 -0.9271
 8953TIP3    H251055   3.598   6.431  12.409  0.6758  1.9009  0.2607
 8954TIP3   OH251056   2.583   3.848  11.378  0.0622  0.3805  0.1944
 8954TIP3    H151057   2.603   3.781  11.312 -0.0285  0.1540  0.3931
 8954TIP3    H251058   2.488   3.848  11.383  0.0658  0.4614  0.2566
 8955TIP3   OH251059   6.992   5.209  10.882  0.3642 -0.2202  0.2203
 8955TIP3    H151060   7.050   5.286  10.889 -0.6076  0.6067 -0.4467
 8955TIP3    H251061   6.909   5.245  10.850 -0.6157 -1.3393  1.3855
 8956TIP3   OH251062   3.838   0.681  11.172 -0.0766 -0.5567  0.4068
 8956TIP3    H151063   3.817   0.756  11.115 -3.1221 -0.9337  0.8275
 8956TIP3    H251064   3.843   0.718  11.260  2.0680 -0.3584  0.2364
 8957TIP3   OH251065   4.297   4.445  10.892 -0.2408 -0.2812 -0.7393
 8957TIP3    H151066   4.357   4.485  10.829 -1.5358 -0.8662 -2.4245
 8957TIP3    H251067   4.336   4.360  10.913 -0.5185 -0.7156 -1.9313
 8958TIP3   OH251068   0.797   7.395  11.766  0.0471 -0.0735  0.0068
 8958TIP3    H151069   0.720   7.436  11.804  0.7626 -0.7509  2.3294
 8958TIP3    H251070   0.762   7.320  11.718 -0.8160  0.2335  0.1371
 8959TIP3   OH251071   3.571   2.336  13.299  0.1990 -0.3982  0.1147
 8959TIP3    H151072   3.661   2.343  13.331  0.8954 -0.3296 -1.7216
 8959TIP3    H251073   3.580   2.312  13.206 -1.6569  0.1941 -0.2667
 8960TIP3   OH251074   0.578   7.043  12.009 -0.4642 -0.1928  0.4433
 8960TIP3    H151075   0.650   6.992  11.973 -1.6451 -1.4453 -0.2596
 8960TIP3    H251076   0.620   7.117  12.053  1.1377  0.4947 -2.0413
 8961TIP3   OH251077   2.119   0.706  11.514  0.4771 -0.7224  0.0405
 8961TIP3    H151078   2.033   0.732  11.479 -1.3100  0.7754  4.7267
 8961TIP3    H251079   2.168   0.788  11.519  1.1839 -1.1276 -0.2217
 8962TIP3   OH251080   1.927   6.864  10.578 -0.3109  0.2778 -0.2794
 8962TIP3    H151081   1.858   6.798  10.579 -1.5348  1.4419 -1.5907
 8962TIP3    H251082   1.908   6.921  10.653  0.5267 -0.5994  0.6294
 8963TIP3   OH251083   7.140   1.631  12.386  0.1533  0.4981 -0.0086
 8963TIP3    H151084   7.120   1.716  12.425 -1.0375  0.2221  0.0171
 8963TIP3    H251085   7.184   1.582  12.456  0.6602  1.0102  0.0382
 8964TIP3   OH251086   1.680   5.009  10.233  0.0587  0.6124 -0.0439
 8964TIP3    H151087   1.722   4.938  10.281  1.4265  0.9348 -0.7250
 8964TIP3    H251088   1.700   5.087  10.285 -1.9016  0.4875  1.0032
 8965TIP3   OH251089   0.536   0.076  12.279  0.0155 -0.3919 -0.5179
 8965TIP3    H151090   0.519  -0.017  12.265 -0.5475 -0.3373 -0.2317
 8965TIP3    H251091   0.610   0.079  12.340 -0.9474 -0.6789  0.7039
 8966TIP3   OH251092   2.957   6.649  11.920  0.2636 -0.2479  0.3165
 8966TIP3    H151093   2.914   6.680  12.000 -0.1018  0.4363 -0.1323
 8966TIP3    H251094   3.050   6.661  11.937  0.1452  0.9407  0.2461
 8967TIP3   OH251095   6.815   3.633  11.430 -0.1838 -0.8233  0.3625
 8967TIP3    H151096   6.754   3.703  11.455  1.0631  0.0707  0.9842
 8967TIP3    H251097   6.773   3.553  11.460 -1.0851 -0.2306  0.7297
 8968TIP3   OH251098   1.439   1.373  10.935  0.1506  0.4114  0.2910
 8968TIP3    H151099   1.520   1.422  10.919 -0.9398  2.3183  0.2827
 8968TIP3    H251100   1.414   1.340  10.849  0.3015  0.8182  0.0876
 8969TIP3   OH251101   2.258   7.356  12.360 -0.3122 -0.1510  0.2095
 8969TIP3    H151102   2.207   7.354  12.441 -0.5701  1.0242  0.0927
 8969TIP3    H251103   2.321   7.284  12.370  0.1067  0.3929  1.7460
 8970TIP3   OH251104   4.434   0.690  10.863  0.3845  0.2242  0.1684
 8970TIP3    H151105   4.404   0.651  10.782  0.6020  0.6918 -0.1444
 8970TIP3    H251106   4.362   0.676  10.925 -0.5782  1.4594 -0.6091
 8971TIP3   OH251107   5.833   4.170  11.517 -0.0429  0.0628  0.6460
 8971TIP3    H151108   5.820   4.244  11.456  1.2087 -1.2888 -1.3878
 8971TIP3    H251109   5.790   4.198  11.598 -1.9819  1.9121 -0.8875
 8972TIP3   OH251110   0.654   3.931  10.611  0.6707 -0.3098 -0.1692
 8972TIP3    H151111   0.594   4.004  10.594  1.6724  1.0876  1.9110
 8972TIP3    H251112   0.596   3.857  10.630 -0.3730  0.4491 -0.2717
 8973TIP3   OH251113   0.521   2.508  10.405 -0.0534  0.2792 -0.0188
 8973TIP3    H151114   0.481   2.536  10.487 -0.1473  2.3230 -0.6931
 8973TIP3    H251115   0.588   2.574  10.387 -0.7489  0.5104 -2.0893
 8974TIP3   OH251116   3.636   6.579  11.292  0.3834 -0.2293 -0.8014
 8974TIP3    H151117   3.651   6.494  11.252  2.4498 -0.3534  0.1233
 8974TIP3    H251118   3.542   6.595  11.280  0.2291 -1.9533 -2.2635
 8975TIP3   OH251119   3.148   6.046  11.068 -0.3586  0.5092  0.2023
 8975TIP3    H151120   3.126   5.952  11.065 -0.4912  0.5587 -0.7766
 8975TIP3    H251121   3.084   6.084  11.128  0.2421 -0.1573  1.3016
 8976TIP3   OH251122   7.425   1.517  11.863  0.1655 -0.3877  0.3273
 8976TIP3    H151123   7.364   1.552  11.928 -0.7935 -3.1412  1.0812
 8976TIP3    H251124   7.462   1.594  11.821 -2.3766  1.4673  1.2005
 8977TIP3   OH251125   4.521   5.624  12.900 -0.3148 -0.1297 -0.0024
 8977TIP3    H151126   4.603   5.674  12.897  0.0337 -0.5602  1.3408
 8977TIP3    H251127   4.452   5.691  12.896  0.1286  0.3733  0.5260
 8978TIP3   OH251128   4.534   1.427  12.816  0.1031 -0.1180 -0.1997
 8978TIP3    H151129   4.482   1.507  12.829 -1.0827 -0.8425 -0.3230
 8978TIP3    H251130   4.528   1.381  12.899  0.2296 -0.3900 -0.3425
 8979TIP3   OH251131   2.628   6.539  12.204 -0.7348 -0.2054 -0.0527
 8979TIP3    H151132   2.609   6.498  12.289 -0.2483 -0.1827  0.0694
 8979TIP3    H251133   2.632   6.465  12.142  1.5949 -0.5573  0.4129
 8980TIP3   OH251134   4.900   0.577  12.175  0.0183  0.0186 -0.1490
 8980TIP3    H151135   4.919   0.669  12.157  0.3860  0.2191  1.1723
 8980TIP3    H251136   4.816   0.561  12.132 -0.7340  1.3577  0.7572
 8981TIP3   OH251137   6.318   4.441  11.704 -0.6912  0.2983 -0.0093
 8981TIP3    H151138   6.329   4.461  11.797 -2.4047  0.6103  0.1571
 8981TIP3    H251139   6.350   4.519  11.659  0.5892 -0.0401  0.2718
 8982TIP3   OH251140   4.097   3.405  12.573  0.2470 -0.3831  0.4902
 8982TIP3    H151141   4.034   3.372  12.638 -0.4125 -2.5116 -1.1404
 8982TIP3    H251142   4.125   3.328  12.525  0.3306  1.1448 -2.1031
 8983TIP3   OH251143   4.700   5.863  10.895 -0.1184 -0.0629  0.2744
 8983TIP3    H151144   4.747   5.791  10.852 -0.4761 -0.1481  0.0240
 8983TIP3    H251145   4.645   5.820  10.961 -2.0875 -0.2753 -1.4024
 8984TIP3   OH251146   4.955   4.947  11.680 -0.7132  0.2478  0.1462
 8984TIP3    H151147   4.879   5.005  11.680 -0.8324  0.1007 -0.5263
 8984TIP3    H251148   4.970   4.927  11.772 -1.2651  0.5757  0.3123
 8985TIP3   OH251149   6.328   3.468  10.730  0.1555  0.3866 -0.6348
 8985TIP3    H151150   6.288   3.393  10.774 -3.1773  1.2991 -1.7868
 8985TIP3    H251151   6.400   3.431  10.680 -0.4163 -1.7829  0.0363
 8986TIP3   OH251152   0.110   3.121  12.177 -0.6058  0.0532 -0.1148
 8986TIP3    H151153   0.109   3.052  12.110 -1.1689  0.0538 -0.1125
 8986TIP3    H251154   0.049   3.090  12.245  0.0039  0.0252  0.4270
 8987TIP3   OH251155   4.078   0.524  10.785 -0.1951  0.4037  0.7462
 8987TIP3    H151156   4.087   0.613  10.751 -1.6033  0.7398  1.1807
 8987TIP3    H251157   4.006   0.486  10.736 -0.2271 -0.1724  1.2183
 8988TIP3   OH251158   4.121   2.208  13.259  0.3447 -0.1607  0.6277
 8988TIP3    H151159   4.029   2.183  13.251  0.1554  1.1163 -2.7564
 8988TIP3    H251160   4.167   2.126  13.280 -1.5165 -0.7524  2.7580
 8989TIP3   OH251161   3.240   0.879  12.486  0.0130  0.3886 -0.0956
 8989TIP3    H151162   3.271   0.796  12.522 -0.0131  0.5098  0.2143
 8989TIP3    H251163   3.300   0.944  12.523 -0.7388  0.6478  0.6791
 8990TIP3   OH251164   2.811   2.475  11.629 -0.3785 -0.0024 -0.3413
 8990TIP3    H151165   2.854   2.404  11.677  0.0193  0.2063 -0.3842
 8990TIP3    H251166   2.735   2.434  11.587  0.6734 -0.7428 -1.5998
 8991TIP3   OH251167   4.395   1.300  12.107 -0.0162 -0.6755 -0.4386
 8991TIP3    H151168   4.472   1.355  12.095 -1.1226  0.5949 -2.4306
 8991TIP3    H251169   4.426   1.223  12.154  1.9422  0.8790  0.9851
 8992TIP3   OH251170   5.269   1.765  11.911 -0.1716 -0.2620  0.1534
 8992TIP3    H151171   5.272   1.673  11.885 -0.8439 -0.4779  0.7951
 8992TIP3    H251172   5.289   1.814  11.831  0.8221 -0.9763 -0.0503
 8993TIP3   OH251173   4.645   0.666  12.363 -0.0058  0.1947  0.3086
 8993TIP3    H151174   4.636   0.757  12.389  1.3384  1.1855 -2.3660
 8993TIP3    H251175   4.576   0.653  12.297 -1.0393 -1.1759  1.5813
 8994TIP3   OH251176   1.474   2.827  10.141 -0.1572 -0.3595  0.3139
 8994TIP3    H151177   1.522   2.833  10.059 -1.4586 -0.0379 -0.4554
 8994TIP3    H251178   1.483   2.735  10.167 -1.6422 -1.0567 -1.4270
 8995TIP3   OH251179   1.313   0.442  12.070  0.3194  0.2233  0.0008
 8995TIP3    H151180   1.227   0.483  12.082 -0.4446 -1.5313  0.9376
 8995TIP3    H251181   1.347   0.431  12.159 -0.7778 -3.6039  0.0997
 8996TIP3   OH251182   0.956   7.130  12.078  0.9064 -0.1047  0.2780
 8996TIP3    H151183   1.035   7.162  12.123  2.0389 -2.2509 -0.0065
 8996TIP3    H251184   0.944   7.042  12.113 -2.0883  0.5612  1.1283
 8997TIP3   OH251185   2.087   0.383  11.060 -0.2489  0.1359  0.4421
 8997TIP3    H151186   1.996   0.394  11.033 -0.2618 -0.3321  0.2848
 8997TIP3    H251187   2.136   0.447  11.008 -0.3408 -0.3953 -0.3103
 8998TIP3   OH251188   3.510   1.806  12.490  0.6303  0.1097 -0.1466
 8998TIP3    H151189   3.589   1.817  12.543 -0.0054 -0.3009  0.9152
 8998TIP3    H251190   3.516   1.716  12.457 -0.3055 -0.6056  1.5224
 8999TIP3   OH251191   2.502   2.634  13.152  0.4645 -0.0562  0.3995
 8999TIP3    H151192   2.563   2.570  13.117 -0.8130 -1.3321  0.4300
 8999TIP3    H251193   2.556   2.691  13.207  2.1958  0.8753 -2.0926
 9000TIP3   OH251194   6.241   1.404  13.166 -0.0746  0.6911  0.3586
 9000TIP3    H151195   6.294   1.398  13.087  2.1043  0.6788  1.7521
 9000TIP3    H251196   6.265   1.488  13.204  1.2967 -0.6000  2.5623
 9001TIP3   OH251197   0.355   2.670  11.135  0.0473 -0.0933  0.0757
 9001TIP3    H151198   0.279   2.623  11.099 -0.7726  0.9040  0.4502
 9001TIP3    H251199   0.408   2.602  11.176 -1.0157 -0.7401  0.4310
 9002TIP3   OH251200   5.586   0.911  13.347  0.2968  0.0857  0.3784
 9002TIP3    H151201   5.645   0.981  13.319  0.7609 -0.7342 -0.7817
 9002TIP3    H251202   5.594   0.844  13.279 -4.0750  1.0511 -1.4360
 9003TIP3   OH251203   3.371   6.773  12.203 -0.3965 -0.0990  0.1919
 9003TIP3    H151204   3.380   6.839  12.135 -0.1622 -0.6533 -0.3178
 9003TIP3    H251205   3.429   6.803  12.273  0.6470 -0.3923 -0.5290
 9004TIP3   OH251206   2.989   3.770  12.084  0.3272 -0.2622 -0.0221
 9004TIP3    H151207   2.961   3.777  11.993  2.8959 -0.1872 -0.8833
 9004TIP3    H251208   2.916   3.727  12.128 -1.0253 -0.2066 -2.0841
 9005TIP3   OH251209   0.697   0.172  11.821  0.2098  0.7155 -0.9685
 9005TIP3    H151210   0.651   0.120  11.887  0.7625  0.8164 -0.5018
 9005TIP3    H251211   0.668   0.135  11.737  1.1469 -0.8595 -0.6469
 9006TIP3   OH251212   5.085   2.584  11.888 -0.1315 -0.1335 -0.4185
 9006TIP3    H151213   5.026   2.592  11.812 -1.6148  0.8817  0.7801
 9006TIP3    H251214   5.079   2.669  11.931  1.2093 -0.4781  0.4774
 9007TIP3   OH251215   1.826   1.012  11.512 -0.5769  0.0346 -0.2879
 9007TIP3    H151216   1.735   1.020  11.542 -1.0156 -0.1897 -1.4986
 9007TIP3    H251217   1.825   0.937  11.454  0.2242  0.4909 -0.9055
 9008TIP3   OH251218   3.794   2.157  10.639 -0.4986  0.5044  0.2782
 9008TIP3    H151219   3.884   2.127  10.652 -0.6242  0.2650  0.6216
 9008TIP3    H251220   3.755   2.154  10.727 -0.7309  0.9667  0.1940
 9009TIP3   OH251221   3.281   0.414  12.366 -0.0197 -0.3490 -0.0815
 9009TIP3    H151222   3.298   0.320  12.367 -0.6334 -0.4670  1.2988
 9009TIP3    H251223   3.215   0.425  12.297  0.5720 -0.8116 -0.7390
 9010TIP3   OH251224   4.335   1.901  11.282  0.2492 -0.1634  0.4618
 9010TIP3    H151225   4.290   1.819  11.262 -0.3930  0.1888  0.4496
 9010TIP3    H251226   4.426   1.885  11.259  0.1409 -0.9000  0.5302
 9011TIP3   OH251227   0.399   6.226  11.604 -0.0439  0.1756 -0.1006
 9011TIP3    H151228   0.397   6.134  11.631  0.8880  0.3871  0.7225
 9011TIP3    H251229   0.464   6.267  11.661 -0.1877  1.2769 -0.6985
 9012TIP3   OH251230   1.277   6.573  12.938 -0.5790 -0.2723  0.2326
 9012TIP3    H151231   1.311   6.648  12.986 -0.0963  0.0810 -0.6293
 9012TIP3    H251232   1.323   6.576  12.854 -2.0476 -0.3577 -0.6027
 9013TIP3   OH251233   2.364   0.457  10.853 -0.3325  0.7094  0.2815
 9013TIP3    H151234   2.449   0.430  10.888  1.3243  4.6569 -0.1486
 9013TIP3    H251235   2.364   0.422  10.763  0.1078 -0.5790  0.7502
 9014TIP3   OH251236   5.115   4.986  10.690 -0.1715 -0.0303 -0.1753
 9014TIP3    H151237   5.119   5.036  10.772 -1.0235  1.6430 -1.1092
 9014TIP3    H251238   5.151   4.900  10.713  0.6552  0.7524  1.6753
 9015TIP3   OH251239   2.719   0.154  11.442 -0.0833 -0.0303 -0.0463
 9015TIP3    H151240   2.639   0.122  11.483  0.3715 -0.9131  0.1754
 9015TIP3    H251241   2.748   0.226  11.499  0.0993 -0.7085  0.7412
 9016TIP3   OH251242   1.136   7.136  11.730  0.9072  0.6302  0.4348
 9016TIP3    H151243   1.109   7.215  11.776  0.8460  0.2588  1.0429
 9016TIP3    H251244   1.206   7.099  11.783  0.6050  0.0128  0.4228
 9017TIP3   OH251245   3.951   5.051  11.298 -0.2189  0.8878  0.0411
 9017TIP3    H151246   3.945   5.039  11.203 -0.8839 -0.4020  0.2323
 9017TIP3    H251247   3.881   4.997  11.334 -0.7554  2.3086  1.2268
 9018TIP3   OH251248   4.566   2.319  12.772  1.0757  0.1349 -0.2877
 9018TIP3    H151249   4.586   2.351  12.684 -0.6017  1.2521 -0.3021
 9018TIP3    H251250   4.512   2.242  12.759 -0.7221  1.3378 -0.2957
 9019TIP3   OH251251   3.615   6.257  11.240  0.9752  0.2010 -0.2048
 9019TIP3    H151252   3.625   6.251  11.145  0.6647  1.1741 -0.3209
 9019TIP3    H251253   3.688   6.208  11.276  0.8952 -0.4742 -0.9480
 9020TIP3   OH251254   4.590   2.987  11.934 -0.2917 -0.0797  0.1007
 9020TIP3    H151255   4.617   2.919  11.995 -2.1669 -0.4647  0.5767
 9020TIP3    H251256   4.535   2.941  11.870 -0.1141  0.6873 -0.6250
 9021TIP3   OH251257   7.272   5.429  11.339  0.5272  0.2343  0.6205
 9021TIP3    H151258   7.215   5.352  11.338 -0.0824  0.6713  1.0905
 9021TIP3    H251259   7.301   5.438  11.248 -0.5086  0.2551  0.2745
 9022TIP3   OH251260   4.683   3.360  10.883  0.1166  0.5772  0.1452
 9022TIP3    H151261   4.592   3.376  10.908 -0.1315 -2.1888  1.3927
 9022TIP3    H251262   4.735   3.413  10.943 -0.5984  3.0108 -1.2557
 9023TIP3   OH251263   1.882   2.656  11.590  0.5585 -0.1268 -0.1971
 9023TIP3    H151264   1.795   2.685  11.615  0.4198  0.5477 -1.3811
 9023TIP3    H251265   1.871   2.620  11.502  1.5625  0.4710 -0.5842
 9024TIP3   OH251266   4.032   1.300  10.446 -0.4130  0.5835 -0.1370
 9024TIP3    H151267   4.126   1.286  10.449 -0.1264  2.1732 -0.7166
 9024TIP3    H251268   3.995   1.213  10.427  0.9125 -0.0616  0.1421
 9025TIP3   OH251269   0.043   6.189  11.213 -0.3603  0.5383 -0.2705
 9025TIP3    H151270  -0.008   6.244  11.153  2.1289  1.6763 -1.4717
 9025TIP3    H251271   0.080   6.251  11.276  0.6343 -0.0464 -0.2613
 9026TIP3   OH251272   4.615   6.183  12.350  0.1047  0.3542 -0.0326
 9026TIP3    H151273   4.560   6.143  12.418 -0.6951 -1.3298 -1.5809
 9026TIP3    H251274   4.705   6.169  12.381 -0.2341 -0.5755  0.5904
 9027TIP3   OH251275   3.352   6.315  11.339  0.3712  0.5558 -0.3692
 9027TIP3    H151276   3.444   6.303  11.318  0.4243 -0.4902  0.3876
 9027TIP3    H251277   3.310   6.333  11.255  1.0148 -0.6034 -0.9468
 9028TIP3   OH251278   6.749   2.221  10.621 -0.1113  0.2147  0.1408
 9028TIP3    H151279   6.751   2.269  10.539 -0.6193  1.3345  0.7559
 9028TIP3    H251280   6.836   2.235  10.660 -0.0642  0.1535  0.0576
 9029TIP3   OH251281   2.655   2.174  11.266  0.0447  0.0680  0.4355
 9029TIP3    H151282   2.644   2.147  11.175 -0.0817 -0.1257  0.5080
 9029TIP3    H251283   2.569   2.159  11.306 -0.4865  1.9979  0.1190
 9030TIP3   OH251284   2.484   0.628  12.173 -0.1761 -0.4694  0.3794
 9030TIP3    H151285   2.498   0.721  12.155 -1.0895 -0.3468  0.2796
 9030TIP3    H251286   2.470   0.589  12.086 -3.6482 -0.0359  0.6037
 9031TIP3   OH251287   7.233   1.645  12.132  0.5280 -0.5524 -0.0677
 9031TIP3    H151288   7.207   1.662  12.222  2.5832  0.6939  0.3497
 9031TIP3    H251289   7.235   1.731  12.090 -1.5639 -1.2034 -1.7187
 9032TIP3   OH251290   6.903   7.156  11.144 -0.0475  0.0624  0.3323
 9032TIP3    H151291   6.960   7.140  11.219 -0.6076  1.3764  1.0801
 9032TIP3    H251292   6.831   7.094  11.155 -1.1204  1.5017  2.0061
 9033TIP3   OH251293   7.096   2.328  12.403 -0.4137  0.6267  0.3516
 9033TIP3    H151294   7.142   2.245  12.390 -0.0926  0.4932  2.0954
 9033TIP3    H251295   7.003   2.305  12.397 -0.3057  0.3391 -0.2376
 9034TIP3   OH251296   4.957   2.731  11.129 -0.0802 -0.1418  0.0530
 9034TIP3    H151297   4.994   2.644  11.111  1.0349  0.2886  0.2222
 9034TIP3    H251298   4.931   2.764  11.043  1.2387  0.1163 -0.2720
 9035TIP3   OH251299   3.932   3.390  13.299  0.3580 -0.0590 -0.4362
 9035TIP3    H151300   3.937   3.473  13.347  2.2969  0.0602 -0.7852
 9035TIP3    H251301   3.969   3.325  13.358 -0.0101 -0.4627 -0.6425
 9036TIP3   OH251302   6.070   5.227  12.003  0.3021  0.0944  0.8962
 9036TIP3    H151303   6.049   5.135  11.988  1.7463  0.1421 -2.1301
 9036TIP3    H251304   6.164   5.229  12.016  0.8368  1.3119 -2.2277
 9037TIP3   OH251305   4.438   3.882  11.756 -0.4476 -0.5791  0.4722
 9037TIP3    H151306   4.468   3.818  11.692  0.3894  0.4596 -0.2069
 9037TIP3    H251307   4.343   3.882  11.747 -0.5016 -1.9973  0.7767
 9038TIP3   OH251308   2.893   3.588  12.314 -0.3643 -0.0603 -0.3939
 9038TIP3    H151309   2.830   3.660  12.306 -0.0945  0.2169 -0.0760
 9038TIP3    H251310   2.848   3.512  12.276 -0.9461  0.1005 -0.0407
 9039TIP3   OH251311   3.942   0.142  11.921  0.0312 -0.6149 -0.0369
 9039TIP3    H151312   3.996   0.085  11.866 -0.4985 -0.9075 -0.2657
 9039TIP3    H251313   3.977   0.230  11.908 -0.0918 -0.6813 -0.8511
 9040TIP3   OH251314   3.248   1.959  12.416 -0.1384  0.0119 -0.3050
 9040TIP3    H151315   3.207   1.882  12.377  0.3444  0.4249 -1.6930
 9040TIP3    H251316   3.333   1.929  12.446 -0.3654 -0.2266  0.1085
 9041TIP3   OH251317   1.679   1.434  11.969 -0.4630 -0.0634 -0.6379
 9041TIP3    H151318   1.768   1.436  12.003 -1.4327 -2.6260  2.5803
 9041TIP3    H251319   1.624   1.452  12.046 -2.7692 -0.1338 -2.1629
 9042TIP3   OH251320   0.425   5.640  12.827  0.2532 -0.2331 -0.0675
 9042TIP3    H151321   0.353   5.608  12.882  0.3783  0.5289  0.5552
 9042TIP3    H251322   0.477   5.562  12.808 -0.6022 -0.7566 -0.3327
 9043TIP3   OH251323   1.932   3.827  11.791  0.2127  0.1975  0.6536
 9043TIP3    H151324   1.973   3.752  11.835 -0.2504 -1.3986 -1.4931
 9043TIP3    H251325   2.001   3.865  11.737 -0.1056 -0.0205  0.0896
 9044TIP3   OH251326   0.493   3.710  12.276 -0.7263  0.0904  0.5725
 9044TIP3    H151327   0.401   3.687  12.258 -0.8310  0.1103  1.0622
 9044TIP3    H251328   0.542   3.633  12.249 -0.5035  1.3037 -2.9830
 9045TIP3   OH251329   7.156   3.981  12.392  0.1252 -0.7055  0.1444
 9045TIP3    H151330   7.188   4.059  12.346  0.5477 -1.1550 -0.3387
 9045TIP3    H251331   7.102   3.935  12.327  1.3464 -1.7408 -0.1813
 9046TIP3   OH251332   5.013   7.126  11.591  0.1819  0.2904 -0.1089
 9046TIP3    H151333   5.039   7.183  11.664 -0.8821  0.1270  0.4269
 9046TIP3    H251334   4.917   7.131  11.591  0.0361 -1.7498  0.1563
 9047TIP3   OH251335   1.329   5.350  11.844 -0.9442 -0.1657 -0.0442
 9047TIP3    H151336   1.317   5.336  11.749  1.2390 -0.5489 -0.3098
 9047TIP3    H251337   1.405   5.297  11.866 -1.3484  0.0182  1.9364
 9048TIP3   OH251338   4.695   0.563  11.980  0.5500  0.2049 -0.1750
 9048TIP3    H151339   4.646   0.509  11.919 -1.2876  0.4705  0.9768
 9048TIP3    H251340   4.782   0.573  11.940 -0.2360 -0.5108 -2.1705
 9049TIP3   OH251341   0.628   0.061  11.579 -0.4307  0.5330  0.6546
 9049TIP3    H151342   0.581  -0.022  11.573 -1.1975  1.0046 -0.0969
 9049TIP3    H251343   0.590   0.115  11.510  2.2984  0.4125 -1.0881
 9050TIP3   OH251344   0.369   2.465  12.647 -0.2980  0.0536 -0.2906
 9050TIP3    H151345   0.408   2.394  12.596  1.0153 -0.4635  1.3828
 9050TIP3    H251346   0.355   2.535  12.583  1.4383 -0.5092 -1.3347
 9051TIP3   OH251347   3.973   3.341  11.781  0.5191 -0.0712 -0.4473
 9051TIP3    H151348   4.059   3.358  11.741  0.2197  1.0172 -0.6698
 9051TIP3    H251349   3.959   3.417  11.838  0.1636 -0.7530  0.3918
 9052TIP3   OH251350   6.913   2.109  10.851 -0.0144 -0.6776 -0.3433
 9052TIP3    H151351   6.946   2.020  10.864  2.5454  0.2916  0.4433
 9052TIP3    H251352   6.973   2.148  10.786 -0.5864  0.7127 -0.0833
 9053TIP3   OH251353   2.215   2.391  10.864  0.7889 -0.5917  0.9720
 9053TIP3    H151354   2.179   2.433  10.942 -0.1605  0.9908 -0.2344
 9053TIP3    H251355   2.302   2.363  10.889  0.3492 -0.5142  2.7195
 9054TIP3   OH251356   4.299   2.443  12.311 -0.6968 -0.1285 -0.3816
 9054TIP3    H151357   4.279   2.462  12.220 -2.7400 -0.6990 -0.0895
 9054TIP3    H251358   4.363   2.372  12.307 -1.1914 -0.5375 -1.3782
 9055TIP3   OH251359   0.530   7.284  11.830 -0.9264 -0.3490 -0.3904
 9055TIP3    H151360   0.580   7.278  11.748  0.9482  1.0196  0.5610
 9055TIP3    H251361   0.562   7.211  11.883 -1.1558 -0.4525 -0.3963
 9056TIP3   OH251362   0.130   1.897  13.059 -0.2333  0.4212  0.1430
 9056TIP3    H151363   0.211   1.941  13.083  1.3209 -0.9722 -2.1558
 9056TIP3    H251364   0.072   1.967  13.030  0.4361  1.3614  1.0095
 9057TIP3   OH251365   3.668   4.186  11.569  0.4464  0.3121  0.4032
 9057TIP3    H151366   3.723   4.110  11.592  1.5668 -0.2274 -3.3424
 9057TIP3    H251367   3.709   4.259  11.615  2.1966 -0.6557  0.4841
 9058TIP3   OH251368   3.450   2.925  12.217 -0.1324 -0.1353  0.0500
 9058TIP3    H151369   3.490   2.844  12.185  1.5683  0.1869  1.2322
 9058TIP3    H251370   3.463   2.988  12.146  2.8592  0.3520  0.9043
 9059TIP3   OH251371   7.158   7.084  11.885 -0.0750 -0.4970  0.1595
 9059TIP3    H151372   7.183   7.137  11.809 -0.1936  1.0270  1.1438
 9059TIP3    H251373   7.229   7.020  11.894  0.8851  0.4876 -0.1476
 9060TIP3   OH251374   0.824   4.704  12.759 -0.1744 -0.1946  1.0811
 9060TIP3    H151375   0.790   4.641  12.697 -0.5252  0.2218  0.8426
 9060TIP3    H251376   0.905   4.736  12.719  0.0121 -0.5048  1.2098
 9061TIP3   OH251377   4.582   3.820  12.750  0.9055 -0.4212  0.8195
 9061TIP3    H151378   4.673   3.840  12.730 -0.1657  2.0474 -2.6787
 9061TIP3    H251379   4.541   3.906  12.763 -1.4034 -1.1715 -0.7985
 9062TIP3   OH251380   1.411   4.478  11.274 -0.3108  0.2218 -0.2050
 9062TIP3    H151381   1.406   4.395  11.322 -1.2281  0.6913  0.5552
 9062TIP3    H251382   1.499   4.511  11.291  0.0508 -0.5843 -0.4950
 9063TIP3   OH251383   5.498   7.423  12.396 -0.3138  0.1508 -0.7659
 9063TIP3    H151384   5.550   7.425  12.316  0.0374 -0.2368 -0.5568
 9063TIP3    H251385   5.526   7.342  12.440  0.4917  1.0256  0.4038
 9064TIP3   OH251386   2.906   4.379  11.465 -0.5336 -0.2808  0.2730
 9064TIP3    H151387   2.983   4.419  11.507 -0.6645  0.3404 -0.0657
 9064TIP3    H251388   2.942   4.330  11.391 -0.4263 -0.3343  0.3598
 9065TIP3   OH251389   7.218   6.893  12.794 -0.5358  0.1361 -0.0425
 9065TIP3    H151390   7.310   6.897  12.769 -0.3748  1.0053  0.6074
 9065TIP3    H251391   7.220   6.875  12.888 -1.0485 -0.4161 -0.1329
 9066TIP3   OH251392   2.788   3.590  13.472  0.0575  0.3144  0.2573
 9066TIP3    H151393   2.804   3.496  13.464  1.1185  0.5641 -0.9785
 9066TIP3    H251394   2.819   3.613  13.559  0.5135 -0.3599  0.2828
 9067TIP3   OH251395   1.875   5.792  12.160  0.0763  0.5369  0.1954
 9067TIP3    H151396   1.925   5.738  12.099  0.1050 -0.7211  1.2788
 9067TIP3    H251397   1.881   5.880  12.125  0.6213 -0.0519 -1.2591
 9068TIP3   OH251398   4.986   7.497  12.304  0.2371  0.3409 -0.1657
 9068TIP3    H151399   5.062   7.471  12.253  0.4596  0.5618  0.0507
 9068TIP3    H251400   4.967   7.421  12.359  0.2346  0.2462 -0.2962
 9069TIP3   OH251401   6.957   1.629  12.098 -0.0148  0.0702 -0.8024
 9069TIP3    H151402   6.932   1.604  12.008  1.9344 -0.5646 -1.2239
 9069TIP3    H251403   7.051   1.611  12.102  0.0241  0.5197  1.2481
 9070TIP3   OH251404   5.876   5.885  12.992 -0.0120  0.1584  0.1799
 9070TIP3    H151405   5.874   5.964  13.047 -1.5780  0.0999  0.2296
 9070TIP3    H251406   5.970   5.867  12.982  0.3838  1.8033  0.4775
 9071TIP3   OH251407   3.710   4.811  11.072 -0.2085  0.4109  0.2879
 9071TIP3    H151408   3.774   4.879  11.052  1.9347 -1.3500  0.7582
 9071TIP3    H251409   3.645   4.855  11.127  1.2968  2.0102  0.8809
 9072TIP3   OH251410   0.731   0.981  11.466  0.0210  0.4342  0.1936
 9072TIP3    H151411   0.714   0.915  11.399 -0.9113  0.5033  0.3451
 9072TIP3    H251412   0.774   1.053  11.420 -0.3201  0.3446 -0.2661
 9073TIP3   OH251413   3.229   3.968  11.201 -0.2034 -0.8236  0.1223
 9073TIP3    H151414   3.185   3.987  11.118  0.7255 -2.7622 -0.8772
 9073TIP3    H251415   3.322   3.985  11.183 -0.2950  2.7043  2.0465
 9074TIP3   OH251416   1.696   2.715  12.760 -0.7197 -0.3869  0.9259
 9074TIP3    H151417   1.607   2.729  12.727 -0.9312 -1.8006  0.8596
 9074TIP3    H251418   1.701   2.621  12.778  0.8192 -0.3590  0.7735
 9075TIP3   OH251419   3.374   4.164  12.944 -0.6695 -0.2355  0.3585
 9075TIP3    H151420   3.434   4.238  12.932 -1.5899  0.5115  0.2376
 9075TIP3    H251421   3.341   4.174  13.034 -2.6058  0.9098 -0.4292
 9076TIP3   OH251422   5.439   4.439  11.188 -0.4056 -0.3411 -0.1534
 9076TIP3    H151423   5.520   4.418  11.142 -1.4689 -2.1532 -1.3314
 9076TIP3    H251424   5.445   4.390  11.270 -0.5014 -0.8222 -0.4341
 9077TIP3   OH251425   3.965   4.271  12.068 -0.7586 -0.4823  0.0836
 9077TIP3    H151426   4.035   4.207  12.082 -0.5355 -0.1735  0.3597
 9077TIP3    H251427   4.006   4.341  12.017 -0.9985 -0.5483 -0.2000
 9078TIP3   OH251428   0.259   2.184  12.142  0.7403 -0.6553  0.2805
 9078TIP3    H151429   0.263   2.280  12.146  2.0906 -0.7202  1.5865
 9078TIP3    H251430   0.350   2.157  12.132  0.4137 -1.8089  0.3388
 9079TIP3   OH251431   4.519   7.435  10.722  0.0823  0.0162  0.1061
 9079TIP3    H151432   4.544   7.517  10.766  0.5911  0.4937 -1.0450
 9079TIP3    H251433   4.592   7.416  10.664 -0.9092 -0.1906 -1.1000
 9080TIP3   OH251434   4.826   6.378  11.353  0.4688  0.9123  0.3009
 9080TIP3    H151435   4.795   6.463  11.384  0.0911  0.8186  0.1919
 9080TIP3    H251436   4.746   6.325  11.345  0.7221  0.4799  0.5777
 9081TIP3   OH251437   0.768   1.050  11.827  0.6639  0.5797  0.7658
 9081TIP3    H151438   0.694   0.993  11.848  1.5809 -0.7285  0.5946
 9081TIP3    H251439   0.828   0.994  11.777  2.4310  1.1532  2.1191
 9082TIP3   OH251440   0.845   0.045  11.250 -0.5328 -0.2454 -0.4091
 9082TIP3    H151441   0.898   0.070  11.325 -0.1644  1.0687 -1.0738
 9082TIP3    H251442   0.834  -0.050  11.259  0.9869 -0.3840  0.3335
 9083TIP3   OH251443   2.171   1.669  10.672  0.5934 -0.2821  0.0696
 9083TIP3    H151444   2.257   1.700  10.642  0.5144 -0.9532 -0.9106
 9083TIP3    H251445   2.108   1.722  10.622  0.4473 -0.5635 -0.0480
 9084TIP3   OH251446   0.747   7.127  11.104  0.1885  0.3492 -0.8603
 9084TIP3    H151447   0.843   7.122  11.101  0.3375  2.1509 -0.3948
 9084TIP3    H251448   0.719   7.109  11.015  0.9279 -0.5818 -0.9197
 9085TIP3   OH251449   7.014   5.824  11.246  0.0875  0.8007  0.3585
 9085TIP3    H151450   7.095   5.874  11.235  0.3717  0.3149  0.2086
 9085TIP3    H251451   7.021   5.753  11.183 -1.3001  1.7932 -0.9941
 9086TIP3   OH251452   5.630   2.744  13.188 -0.3644  1.0447  0.0794
 9086TIP3    H151453   5.543   2.778  13.211 -0.5443  1.7639 -1.5596
 9086TIP3    H251454   5.612   2.676  13.123  0.2497  0.3356  0.6309
 9087TIP3   OH251455   3.228   2.609  13.276 -0.7818  0.1177  0.1236
 9087TIP3    H151456   3.302   2.584  13.221 -1.0264  1.1008 -0.6737
 9087TIP3    H251457   3.205   2.528  13.323 -0.3067 -0.6340 -0.9060
 9088TIP3   OH251458   3.138   7.570  10.208 -0.2014  0.0217  0.0320
 9088TIP3    H151459   3.168   7.492  10.255  0.0169  0.0063 -0.1339
 9088TIP3    H251460   3.064   7.602  10.259 -0.1507 -0.1680  0.2222
 9089TIP3   OH251461   5.270   3.984  10.586 -0.1387 -0.4326  0.2047
 9089TIP3    H151462   5.337   3.923  10.614 -0.5382 -0.7121  0.5574
 9089TIP3    H251463   5.289   4.065  10.634  1.2383  0.2063 -1.3041
 9090TIP3   OH251464   0.645   6.218  10.775 -0.2597  0.2972  0.0979
 9090TIP3    H151465   0.668   6.129  10.751 -0.8912  0.4310 -1.0705
 9090TIP3    H251466   0.718   6.249  10.828  0.8442 -0.2746 -1.0467
 9091TIP3   OH251467   3.699   0.783  12.328 -0.2389  0.0212  0.0881
 9091TIP3    H151468   3.661   0.706  12.371 -0.3044  0.9091  1.6795
 9091TIP3    H251469   3.680   0.856  12.387  0.2345  1.1976 -1.1594
 9092TIP3   OH251470   2.110   4.306  10.970  0.1535 -0.6488 -0.0227
 9092TIP3    H151471   2.184   4.314  11.030  0.4133 -0.0083 -0.4104
 9092TIP3    H251472   2.147   4.328  10.885 -0.4329 -0.5500 -0.2521
 9093TIP3   OH251473   5.151   0.724  12.271  0.5300  0.7531 -0.1877
 9093TIP3    H151474   5.075   0.765  12.313  0.5056  0.4334  0.0864
 9093TIP3    H251475   5.126   0.632  12.263  0.1137  0.9800 -1.8358
 9094TIP3   OH251476   4.433   0.406  11.298  0.2925 -0.6288  0.1847
 9094TIP3    H151477   4.456   0.495  11.270  1.0234 -1.1279 -0.9150
 9094TIP3    H251478   4.351   0.387  11.252  0.4815 -0.7572 -0.1002
 9095TIP3   OH251479   4.123   3.432  11.535 -0.3299 -0.5370  0.1646
 9095TIP3    H151480   4.177   3.353  11.535 -0.0842 -0.3800 -0.7985
 9095TIP3    H251481   4.175   3.497  11.488 -0.4437  0.2724  1.1147
 9096TIP3   OH251482   5.249   4.847  12.519 -0.0609  0.3351 -0.4874
 9096TIP3    H151483   5.312   4.783  12.552 -0.0509  0.5367 -0.1099
 9096TIP3    H251484   5.266   4.852  12.425 -0.5237 -0.7352 -0.6462
 9097TIP3   OH251485   7.406   4.869  12.041  0.8108  0.0160 -0.1344
 9097TIP3    H151486   7.349   4.945  12.025  0.5883 -0.3603 -1.2060
 9097TIP3    H251487   7.345   4.796  12.053  1.0329 -0.0581  0.5868
 9098TIP3   OH251488   0.323   1.832  12.798 -0.4339  0.3584  0.2424
 9098TIP3    H151489   0.277   1.749  12.780  2.2510 -0.7576 -2.3391
 9098TIP3    H251490   0.253   1.896  12.807 -2.5830 -1.6343 -0.9646
 9099TIP3   OH251491   2.394   4.133  12.845 -0.3480 -0.1812 -0.5878
 9099TIP3    H151492   2.312   4.092  12.820 -0.2166  0.3986 -2.0956
 9099TIP3    H251493   2.461   4.089  12.791  0.2704 -0.3138  0.2611
 9100TIP3   OH251494   2.221   5.867  11.594  0.2368 -0.5527 -0.3032
 9100TIP3    H151495   2.282   5.935  11.623  1.0462 -1.1586 -0.5393
 9100TIP3    H251496   2.206   5.886  11.501  1.2357 -1.2521 -0.6193
 9101TIP3   OH251497   0.537   1.748  11.752 -0.1289 -0.3381  0.1331
 9101TIP3    H151498   0.478   1.699  11.695  0.5933  0.6850 -1.5782
 9101TIP3    H251499   0.618   1.755  11.702  1.4055 -1.4623  2.2950
 9102TIP3   OH251500   0.077   5.026  10.741  0.6163 -0.1281 -0.4546
 9102TIP3    H151501   0.041   5.099  10.690  0.0402  0.2781  0.5019
 9102TIP3    H251502   0.131   5.068  10.807 -0.1272 -0.5283  0.4263
 9103TIP3   OH251503   4.801   0.025  12.270  0.1572 -0.3285 -0.4717
 9103TIP3    H151504   4.806   0.063  12.358  1.3757  0.4420 -0.8452
 9103TIP3    H251505   4.856  -0.053  12.274 -1.8060 -1.7567  0.1075
 9104TIP3   OH251506   0.269   2.315  11.111 -0.4102 -0.2798 -0.7890
 9104TIP3    H151507   0.223   2.245  11.158  2.0379 -1.8418 -0.5414
 9104TIP3    H251508   0.270   2.287  11.020  1.0534 -0.8928 -0.6059
 9105TIP3   OH251509   4.846   7.310  12.869 -0.3645  0.2920  0.3763
 9105TIP3    H151510   4.938   7.284  12.866 -0.2157  0.7855  0.4340
 9105TIP3    H251511   4.797   7.231  12.847  0.1274  0.3540 -1.0570
 9106TIP3   OH251512   5.653   2.794  10.976  0.1853 -0.3143  0.2328
 9106TIP3    H151513   5.627   2.837  11.057  1.4526 -1.2627  1.1879
 9106TIP3    H251514   5.620   2.704  10.984 -0.9702 -0.0338 -0.9895
 9107TIP3   OH251515   6.153   2.681  12.550  0.0236 -0.0840  0.3859
 9107TIP3    H151516   6.226   2.656  12.494 -1.7602  0.2739 -2.3273
 9107TIP3    H251517   6.106   2.599  12.566 -0.4897  0.0538 -0.3154
 9108TIP3   OH251518   3.182   6.127  13.127 -0.1106  0.2797  0.3116
 9108TIP3    H151519   3.124   6.160  13.195  1.0895 -2.1302  2.7090
 9108TIP3    H251520   3.151   6.038  13.110  1.4392 -0.2436 -0.0218
 9109TIP3   OH251521   2.844   5.839  11.728  0.0324  0.5557  0.0873
 9109TIP3    H151522   2.793   5.810  11.803 -1.5869 -0.7262 -1.4200
 9109TIP3    H251523   2.841   5.765  11.667  0.9263  1.6952 -1.4149
 9110TIP3   OH251524   5.748   5.035  11.946 -0.5914 -0.2648 -0.0098
 9110TIP3    H151525   5.688   5.068  11.879 -0.6254 -0.0597  0.1210
 9110TIP3    H251526   5.828   5.086  11.934 -0.9698  0.5483  0.8123
 9111TIP3   OH251527   3.377   3.601  11.981  0.0823 -0.0910  0.5357
 9111TIP3    H151528   3.301   3.632  11.933 -0.3922 -1.0638  0.6325
 9111TIP3    H251529   3.445   3.667  11.964 -0.4146  0.1704 -0.5306
 9112TIP3   OH251530   7.679   1.068  11.151  0.4174 -0.4154 -0.3010
 9112TIP3    H151531   7.676   1.143  11.210 -0.5057 -1.8450  1.6185
 9112TIP3    H251532   7.759   1.079  11.100 -0.0699  2.2053 -0.6204
 9113TIP3   OH251533   0.294   7.301  10.699 -0.0573  0.2647 -0.3582
 9113TIP3    H151534   0.304   7.396  10.693 -0.3970  0.4016  1.0669
 9113TIP3    H251535   0.252   7.286  10.783  0.0245 -1.1617 -0.5490
 9114TIP3   OH251536   5.418   6.046  12.148 -0.1893  0.6022  0.5072
 9114TIP3    H151537   5.498   6.000  12.174 -0.0584  0.7368  0.3444
 9114TIP3    H251538   5.383   5.994  12.075  1.0794  1.8967 -1.0876
 9115TIP3   OH251539   5.795   4.157  11.795  0.0134 -0.3293  0.1383
 9115TIP3    H151540   5.761   4.185  11.880 -0.0800 -0.5300  0.1697
 9115TIP3    H251541   5.890   4.164  11.804 -0.0292  0.5334 -0.0562
 9116TIP3   OH251542   1.868   3.829  11.138 -0.5056 -0.0290  0.2371
 9116TIP3    H151543   1.924   3.906  11.145 -0.7741  0.2093 -0.1656
 9116TIP3    H251544   1.904   3.779  11.066 -0.8490  0.1631 -0.0729
 9117TIP3   OH251545   1.796   4.786  10.419 -0.3627  0.0071 -0.4468
 9117TIP3    H151546   1.839   4.842  10.482 -0.2876  0.6334 -1.0453
 9117TIP3    H251547   1.716   4.756  10.463  1.5456 -2.7866  1.4593
 9118TIP3   OH251548   2.131   4.355  11.529  1.0050  0.4297  0.3513
 9118TIP3    H151549   2.070   4.320  11.593  0.3975 -4.5906 -2.4596
 9118TIP3    H251550   2.211   4.303  11.540  2.0333  1.6483 -0.8837
 9119TIP3   OH251551   2.712   0.877  12.520 -0.1744 -0.3279 -0.6848
 9119TIP3    H151552   2.800   0.859  12.487  0.2164 -0.4676  0.3762
 9119TIP3    H251553   2.690   0.799  12.571 -1.1868 -0.5675 -1.4642
 9120TIP3   OH251554   7.385   5.554  10.735  0.0987 -0.1771 -0.9083
 9120TIP3    H151555   7.333   5.622  10.778 -1.0445 -0.9054 -1.1264
 9120TIP3    H251556   7.440   5.518  10.805 -1.0534 -0.6929 -0.2470
 9121TIP3   OH251557   5.011   2.755  13.147  0.1429 -0.0652 -0.2546
 9121TIP3    H151558   4.939   2.691  13.143 -1.1850  1.2920  0.8487
 9121TIP3    H251559   5.084   2.705  13.183 -0.2731 -1.4390 -1.2004
 9122TIP3   OH251560   4.243   3.786  12.262  0.2587 -0.1214  0.1502
 9122TIP3    H151561   4.192   3.866  12.273  1.0042  0.2796  0.7215
 9122TIP3    H251562   4.247   3.747  12.349 -0.5478 -1.0782 -0.2085
 9123TIP3   OH251563   3.867   0.050  12.151  0.0581  0.1850  0.2048
 9123TIP3    H151564   3.926   0.075  12.222  0.0427 -0.7235  0.5453
 9123TIP3    H251565   3.901   0.096  12.075  0.4107  0.7245  0.6759
 9124TIP3   OH251566   1.291   1.184  11.832  0.2614 -0.0393  0.0771
 9124TIP3    H151567   1.327   1.185  11.920 -0.0743 -1.3082  0.2487
 9124TIP3    H251568   1.277   1.276  11.810  2.3175  0.4324  0.5120
 9125TIP3   OH251569   3.058   2.243  12.815 -0.1404 -0.2980 -0.1887
 9125TIP3    H151570   2.976   2.285  12.840 -0.1187 -0.2372 -0.2209
 9125TIP3    H251571   3.031   2.158  12.779 -0.3549  0.5747 -2.2012
 9126TIP3   OH251572   1.482   2.303  12.952  0.3079 -0.3513  0.9197
 9126TIP3    H151573   1.460   2.268  13.038  2.2702  2.8788  2.8883
 9126TIP3    H251574   1.404   2.351  12.925 -0.1225 -0.9232  1.1338
 9127TIP3   OH251575   0.872   1.690  12.358  0.0123 -0.1790  0.5939
 9127TIP3    H151576   0.833   1.742  12.428 -0.2362  0.6928 -0.1680
 9127TIP3    H251577   0.833   1.603  12.366 -2.1507  0.6740 -0.1763
 9128TIP3   OH251578   3.278   2.971  11.399  0.2194 -0.0157 -0.6643
 9128TIP3    H151579   3.246   2.950  11.486  0.1978 -0.1462 -0.7038
 9128TIP3    H251580   3.360   2.923  11.391  0.9491  1.1165 -0.1809
 9129TIP3   OH251581   3.621   1.129  10.653  0.3708  0.0669 -0.2434
 9129TIP3    H151582   3.556   1.130  10.582  0.0552 -2.0983 -0.0405
 9129TIP3    H251583   3.666   1.046  10.642  2.3842  1.0302  0.3217
 9130TIP3   OH251584   6.410   6.723  11.164  0.1555  0.2112 -0.2430
 9130TIP3    H151585   6.370   6.729  11.077  1.4769 -0.8434 -0.9521
 9130TIP3    H251586   6.462   6.804  11.172 -1.2023  1.0685  0.2446
 9131TIP3   OH251587   1.069   3.459  11.595 -0.0863 -0.0041 -0.2245
 9131TIP3    H151588   0.998   3.507  11.636  0.4533 -0.4538  1.2982
 9131TIP3    H251589   1.145   3.517  11.602 -0.2898  0.5385 -1.9775
 9132TIP3   OH251590   3.925   1.013  10.368  0.1077 -0.5815  0.1706
 9132TIP3    H151591   4.013   0.981  10.385 -0.1862 -1.0974  0.7847
 9132TIP3    H251592   3.917   1.013  10.272  1.2924  0.9588  0.0476
 9133TIP3   OH251593   7.009   0.844  11.000  0.1463  0.0911 -0.2292
 9133TIP3    H151594   7.069   0.909  10.964 -0.4621  0.9907  0.3271
 9133TIP3    H251595   6.922   0.882  10.986 -0.2333 -0.6867 -0.0370
 9134TIP3   OH251596   0.612   6.819  12.421 -0.4288  0.1042  0.5893
 9134TIP3    H151597   0.569   6.834  12.337  1.7085 -1.2682 -0.8424
 9134TIP3    H251598   0.613   6.905  12.463 -2.1063  0.6954 -0.4870
 9135TIP3   OH251599   6.757   0.700  11.855 -0.5401 -0.4555  0.2423
 9135TIP3    H151600   6.799   0.671  11.775 -0.2018  2.2698 -0.6733
 9135TIP3    H251601   6.824   0.749  11.902 -1.6605  0.9640  0.4612
 9136TIP3   OH251602   7.145   2.669  10.745 -0.0773 -0.1128  0.1675
 9136TIP3    H151603   7.060   2.677  10.788  0.1300 -1.3363  0.8424
 9136TIP3    H251604   7.148   2.579  10.713  1.1383 -0.2335  0.5629
 9137TIP3   OH251605   3.617   0.640  13.136  0.1210  0.1989  0.5432
 9137TIP3    H151606   3.677   0.686  13.077  0.9823  2.0392  2.7269
 9137TIP3    H251607   3.664   0.559  13.157  0.6917  0.4492  0.2737
 9138TIP3   OH251608   1.888   4.547  11.985 -0.4420 -0.5547  0.4198
 9138TIP3    H151609   1.810   4.577  11.940 -0.6169 -2.2918 -0.5457
 9138TIP3    H251610   1.959   4.602  11.952 -0.8913 -0.5310 -0.5243
 9139TIP3   OH251611   5.974   3.546  11.747 -0.3636  0.5759  0.5351
 9139TIP3    H151612   6.019   3.476  11.699 -1.9833  0.4861 -0.9622
 9139TIP3    H251613   5.940   3.604  11.679 -0.7485  1.7496  1.6844
 9140TIP3   OH251614   1.758   1.636  12.260 -0.0574 -0.0209 -0.0505
 9140TIP3    H151615   1.701   1.559  12.265 -0.4912  0.3369  0.7443
 9140TIP3    H251616   1.842   1.606  12.293  0.0134 -0.3646 -0.5323
 9141TIP3   OH251617   0.368   3.327  10.378  0.0363  0.5395  0.3709
 9141TIP3    H151618   0.301   3.259  10.366  0.2746  0.4148 -0.2951
 9141TIP3    H251619   0.407   3.337  10.292  0.9329  0.5603  0.7753
 9142TIP3   OH251620   0.677   5.929  10.707  0.0196  0.2510  0.0094
 9142TIP3    H151621   0.754   5.932  10.651  2.1583 -3.9320  2.2181
 9142TIP3    H251622   0.620   5.865  10.666  0.2337 -0.6152  1.0200
 9143TIP3   OH251623   3.509   1.407  12.075  0.3773 -0.4445 -0.0841
 9143TIP3    H151624   3.446   1.366  12.135 -0.8716  0.8502 -0.4485
 9143TIP3    H251625   3.457   1.471  12.026  2.1930  1.5283  0.4010
 9144TIP3   OH251626   3.957   3.178  12.449  0.6588 -0.5090 -0.2334
 9144TIP3    H151627   3.903   3.099  12.451 -0.6027  0.3292  0.5570
 9144TIP3    H251628   4.043   3.148  12.479  0.7252 -1.8996 -1.6402
 9145TIP3   OH251629   2.606   6.940  10.337 -0.3276 -0.0827  0.1016
 9145TIP3    H151630   2.583   6.918  10.427 -0.2580 -0.8285 -0.0528
 9145TIP3    H251631   2.592   6.858  10.288 -0.8420  0.4454 -0.6550
 9146TIP3   OH251632   2.482   5.650  11.867 -0.1772  0.6188 -0.1980
 9146TIP3    H151633   2.464   5.742  11.848  1.7989  0.8924 -0.9350
 9146TIP3    H251634   2.523   5.650  11.953  3.3571  0.9571 -1.7212
 9147TIP3   OH251635   0.089   4.715  11.329  0.5040 -0.4285  0.1356
 9147TIP3    H151636   0.167   4.770  11.319 -0.8262  1.6134  0.4145
 9147TIP3    H251637   0.063   4.726  11.420 -1.1113  0.3978 -0.3874
 9148TIP3   OH251638   1.288   2.319  11.626  0.2350 -0.0691  0.2445
 9148TIP3    H151639   1.372   2.315  11.671  0.4866  0.7655 -0.1370
 9148TIP3    H251640   1.295   2.256  11.555  0.4998 -0.0747  0.2756
 9149TIP3   OH251641   2.550   3.668  13.703  0.5601 -0.0288 -0.3964
 9149TIP3    H151642   2.639   3.700  13.690  0.5762 -0.2068 -0.7223
 9149TIP3    H251643   2.561   3.578  13.733  0.5079  0.1826  0.2743
 9150TIP3   OH251644   3.601   6.290  11.736 -0.1043 -0.2742 -0.1268
 9150TIP3    H151645   3.617   6.215  11.678 -3.1253 -0.1969 -1.2527
 9150TIP3    H251646   3.658   6.359  11.703  1.1692 -1.4373 -0.4296
 9151TIP3   OH251647   0.914   2.835  11.348  0.2955  0.0414  0.1759
 9151TIP3    H151648   0.991   2.784  11.324 -0.1935 -0.1187 -1.1629
 9151TIP3    H251649   0.840   2.779  11.324 -0.2464  0.4152  0.9252
 9152TIP3   OH251650   4.229   1.368  12.464  0.0971 -0.2731  0.3013
 9152TIP3    H151651   4.321   1.348  12.483  0.1672 -0.7094 -0.4523
 9152TIP3    H251652   4.179   1.303  12.514  0.2821 -1.4838 -1.0353
 9153TIP3   OH251653   0.102   3.527  12.807 -0.5384 -0.0088 -0.7028
 9153TIP3    H151654   0.158   3.458  12.843 -1.2103  0.0252  0.4290
 9153TIP3    H251655   0.151   3.608  12.822 -1.3244  0.1499  1.2979
 9154TIP3   OH251656   2.890   1.773  11.858 -0.2479  0.0020 -0.2399
 9154TIP3    H151657   2.806   1.768  11.904 -0.2034  1.6619  0.0455
 9154TIP3    H251658   2.931   1.688  11.875 -0.8642  0.0215  1.5649
 9155TIP3   OH251659   3.236   5.747  10.893 -0.3012 -0.4781  0.1450
 9155TIP3    H151660   3.281   5.795  10.824 -0.3555 -0.3900  0.1702
 9155TIP3    H251661   3.147   5.782  10.892  0.2451  1.1472  1.7168
 9156TIP3   OH251662   4.318   3.379  11.897 -0.1138  0.1701  0.5219
 9156TIP3    H151663   4.287   3.296  11.860  0.6366 -0.5621  1.4817
 9156TIP3    H251664   4.408   3.362  11.922  0.1719  1.4062  0.4070
 9157TIP3   OH251665   6.846   6.638  12.932  0.3949  0.0247  0.3356
 9157TIP3    H151666   6.807   6.724  12.949  0.5927 -0.2436  2.3833
 9157TIP3    H251667   6.940   6.651  12.948  0.2609 -0.8480  2.1169
 9158TIP3   OH251668   1.066   5.067  11.468  0.2827  0.5602 -0.0657
 9158TIP3    H151669   0.991   5.034  11.517  0.3538  0.7498  0.1732
 9158TIP3    H251670   1.037   5.152  11.434  0.3173  0.5373 -0.1531
 9159TIP3   OH251671   2.770   3.278  12.564 -0.3590 -0.1492  0.4721
 9159TIP3    H151672   2.805   3.194  12.533 -0.6887 -0.4009  0.7654
 9159TIP3    H251673   2.813   3.292  12.648 -1.1931 -0.6315  0.9993
 9160TIP3   OH251674   4.912   4.738  12.185 -0.0132 -0.2320 -0.1707
 9160TIP3    H151675   5.007   4.738  12.197  0.1059  2.7835 -0.5624
 9160TIP3    H251676   4.878   4.793  12.255 -1.2415  0.6566 -1.4189
 9161TIP3   OH251677   2.807   6.308  10.955 -0.0900 -0.7103  0.0266
 9161TIP3    H151678   2.880   6.266  11.002 -0.6240 -0.5862  0.9928
 9161TIP3    H251679   2.729   6.273  10.997 -0.5656  0.9726  0.6397
 9162TIP3   OH251680   2.754   4.929  10.876  0.0615 -0.1657  0.4416
 9162TIP3    H151681   2.823   4.907  10.813 -0.1304  0.6653 -0.0729
 9162TIP3    H251682   2.786   4.896  10.959  1.3367  0.6824  0.3086
 9163TIP3   OH251683   3.506   4.313  10.984  0.3463  0.2458 -0.3342
 9163TIP3    H151684   3.543   4.400  10.995 -0.9918  0.7255  0.6293
 9163TIP3    H251685   3.411   4.327  10.983  0.1279 -1.1408 -0.6627
 9164TIP3   OH251686   7.328   3.396  10.435 -0.1265  0.2002 -0.1026
 9164TIP3    H151687   7.281   3.480  10.436  1.0047  0.8603  0.2754
 9164TIP3    H251688   7.421   3.421  10.438  0.2661 -1.0534 -1.0427
 9165TIP3   OH251689   5.856   7.025  10.736 -0.4505 -0.1087  0.6578
 9165TIP3    H151690   5.770   7.012  10.777 -0.7730  0.5351  0.2079
 9165TIP3    H251691   5.836   7.060  10.649  0.2676  0.0176  0.5374
 9166TIP3   OH251692   2.558   7.214  13.065  0.1177 -0.3550  0.8775
 9166TIP3    H151693   2.603   7.296  13.084  1.6712 -0.5620 -1.5029
 9166TIP3    H251694   2.492   7.237  13.000 -0.4701 -0.7508  1.3222
 9167TIP3   OH251695   4.404   6.667  12.367 -0.7007  0.4412 -0.6955
 9167TIP3    H151696   4.451   6.597  12.321 -1.5436 -1.0131  0.5811
 9167TIP3    H251697   4.455   6.681  12.447 -1.1842  0.4500 -0.3887
 9168TIP3   OH251698   0.674   7.461  12.434 -0.3772 -0.0525  1.0161
 9168TIP3    H151699   0.751   7.431  12.482 -0.7485 -1.2270  0.9175
 9168TIP3    H251700   0.627   7.380  12.411 -1.5521  0.6270  0.9411
 9169TIP3   OH251701   4.104   1.614  10.717 -0.1050  0.4322  0.2127
 9169TIP3    H151702   4.107   1.678  10.789  0.7974  1.2807 -0.5398
 9169TIP3    H251703   4.030   1.643  10.664 -1.3582 -0.7428  1.2490
 9170TIP3   OH251704   7.153   0.889  11.666 -0.0310  0.2757  0.0224
 9170TIP3    H151705   7.141   0.858  11.756  0.6209 -0.7760 -0.2362
 9170TIP3    H251706   7.071   0.935  11.646 -0.8485 -0.8693  0.6066
 9171TIP3   OH251707   0.548   4.242  12.918 -0.7856  0.5427  0.3164
 9171TIP3    H151708   0.481   4.224  12.852 -1.0613 -0.8486  0.9384
 9171TIP3    H251709   0.504   4.294  12.984 -1.2489 -0.2583  0.6579
 9172TIP3   OH251710   4.047   2.031  10.659  0.5050  0.2659 -0.0256
 9172TIP3    H151711   4.092   1.968  10.603  0.5708  0.0828  0.2257
 9172TIP3    H251712   4.109   2.103  10.671  0.5134  0.2768 -0.1394
 9173TIP3   OH251713   2.781   6.134  10.599  0.2353 -1.0631  0.3233
 9173TIP3    H151714   2.761   6.057  10.651 -2.2153  0.1982  1.3881
 9173TIP3    H251715   2.853   6.177  10.646 -0.4086 -1.1502  1.4280
 9174TIP3   OH251716   0.746   2.059  12.774 -0.0557  0.4737  0.6201
 9174TIP3    H151717   0.689   1.982  12.765 -1.1389  1.1173  1.6594
 9174TIP3    H251718   0.835   2.023  12.771 -0.3848 -0.4309 -2.3536
 9175TIP3   OH251719   4.647   2.517  12.594 -0.1045  0.3981 -0.0278
 9175TIP3    H151720   4.600   2.576  12.535 -1.1407  0.9762  1.3301
 9175TIP3    H251721   4.684   2.574  12.660  1.4267 -0.2008 -0.3295
 9176TIP3   OH251722   2.212   6.139  11.800 -0.0098 -0.3668 -0.0134
 9176TIP3    H151723   2.186   6.166  11.712  1.7544  1.3344 -0.0770
 9176TIP3    H251724   2.161   6.196  11.858  2.1291  1.7891 -0.1042
 9177TIP3   OH251725   4.267   1.231  11.734 -0.5641  0.6223 -0.1480
 9177TIP3    H151726   4.244   1.254  11.825 -0.2648 -1.7208  0.5969
 9177TIP3    H251727   4.298   1.313  11.696 -2.4410  2.1025  1.2819
 9178TIP3   OH251728   0.487   1.044  11.586 -0.4050 -0.2559 -0.5675
 9178TIP3    H151729   0.527   0.958  11.603 -1.2227 -1.1400 -2.7366
 9178TIP3    H251730   0.550   1.107  11.621  0.3520 -1.7203  0.8237
 9179TIP3   OH251731   3.548   2.774  10.602 -0.3961 -0.3300 -0.0184
 9179TIP3    H151732   3.629   2.754  10.648 -0.3041  0.6903  0.2945
 9179TIP3    H251733   3.565   2.858  10.559 -1.0109 -0.5022 -0.6265
 9180TIP3   OH251734   1.992   2.139  11.043 -0.1729  0.9124  0.3929
 9180TIP3    H151735   1.951   2.117  11.126 -1.1734  1.5697  0.0953
 9180TIP3    H251736   2.040   2.060  11.017 -1.8652 -0.1578  0.3939
 9181TIP3   OH251737   3.245   4.359  10.999  0.4064  0.5801  0.5626
 9181TIP3    H151738   3.205   4.336  10.915 -1.5089 -1.4215  1.9249
 9181TIP3    H251739   3.224   4.452  11.011  1.6287  1.2072 -1.5717
 9182TIP3   OH251740   2.678   2.084  10.991 -0.1072  0.5928  0.0400
 9182TIP3    H151741   2.695   2.088  10.897 -0.5744 -0.3282 -0.0973
 9182TIP3    H251742   2.656   1.993  11.008  1.8723  0.2935  1.3985
 9183TIP3   OH251743   0.671   0.919  12.072  0.0198  0.2728  0.0296
 9183TIP3    H151744   0.711   0.995  12.029 -0.1255  0.2920 -0.0713
 9183TIP3    H251745   0.604   0.890  12.011 -0.9438  0.9720  0.7334
 9184TIP3   OH251746   4.312   3.645  11.922 -0.2219  0.8622  0.3690
 9184TIP3    H151747   4.372   3.645  11.997  0.0452  2.5635  0.1942
 9184TIP3    H251748   4.307   3.553  11.895  1.0423  0.4700  1.3868
 9185TIP3   OH251749   4.243   6.856  12.784  0.3257  0.1489  0.5520
 9185TIP3    H151750   4.290   6.782  12.823  2.0148  0.5844 -0.5641
 9185TIP3    H251751   4.306   6.928  12.787 -0.7688  1.1441  0.2471
 9186TIP3   OH251752   7.424   0.531  12.818 -0.1496 -0.1872 -0.1123
 9186TIP3    H151753   7.505   0.481  12.811 -0.3762 -0.5908  0.1208
 9186TIP3    H251754   7.365   0.491  12.754 -1.0684 -1.6588  1.5521
 9187TIP3   OH251755   1.262   6.507  11.804  0.3625  0.4464 -0.3711
 9187TIP3    H151756   1.261   6.558  11.722 -0.4587  0.3658 -0.4269
 9187TIP3    H251757   1.249   6.573  11.872  1.2073  0.5321 -0.2918
 9188TIP3   OH251758   2.402   2.212  10.993  0.1124 -0.2951  0.4582
 9188TIP3    H151759   2.351   2.181  11.068  0.3126  0.6119  0.9801
 9188TIP3    H251760   2.492   2.220  11.026 -0.1545  2.2108  0.7997
 9189TIP3   OH251761   7.556   5.736  11.936  0.3690  0.5292 -0.3262
 9189TIP3    H151762   7.595   5.814  11.976 -3.1775  2.2801  0.1601
 9189TIP3    H251763   7.547   5.758  11.844 -0.0467  0.4462 -0.3083
 9190TIP3   OH251764   0.677   6.197  12.354  0.3906  0.1525 -0.1011
 9190TIP3    H151765   0.628   6.231  12.280 -1.0957  0.2178  0.8777
 9190TIP3    H251766   0.754   6.155  12.315 -0.9187 -0.7972 -1.7620
 9191TIP3   OH251767   3.866   5.510  11.748  0.0395  0.3195 -0.2782
 9191TIP3    H151768   3.867   5.587  11.805 -1.8449  0.6216 -0.6042
 9191TIP3    H251769   3.856   5.546  11.660 -1.2642 -0.2996 -0.4002
 9192TIP3   OH251770   1.876   0.436  12.090 -0.2665 -0.1179  0.1184
 9192TIP3    H151771   1.911   0.434  12.179 -0.8297  2.1224  0.4365
 9192TIP3    H251772   1.786   0.403  12.100 -0.2373 -0.1347  0.3410
 9193TIP3   OH251773   2.005   4.378  13.081  0.2873  0.8222 -0.4604
 9193TIP3    H151774   2.046   4.336  13.006  5.1049 -0.4199  2.4489
 9193TIP3    H251775   1.961   4.308  13.128  2.4246  0.2400  0.8097
 9194TIP3   OH251776   5.527   3.263  10.336 -0.9029  0.6673 -0.0927
 9194TIP3    H151777   5.598   3.312  10.378 -0.1381  0.5797 -1.2661
 9194TIP3    H251778   5.455   3.268  10.400  1.2842 -2.5826  2.9950
 9195TIP3   OH251779   3.510   1.539  12.699  0.4563  0.3667  0.2815
 9195TIP3    H151780   3.420   1.549  12.667  0.2875 -2.6826 -0.5236
 9195TIP3    H251781   3.501   1.481  12.775  1.6365  1.4332  1.2784
 9196TIP3   OH251782   1.145   0.525  10.724  0.4546  0.4544 -0.5551
 9196TIP3    H151783   1.240   0.514  10.715  0.5432  0.3725  0.3033
 9196TIP3    H251784   1.112   0.436  10.732  0.2487  0.4629 -1.3338
 9197TIP3   OH251785   5.467   0.106  11.353 -0.1065  0.2166 -0.0708
 9197TIP3    H151786   5.487   0.199  11.347 -1.9171  0.7302  1.1075
 9197TIP3    H251787   5.479   0.085  11.445  0.6339 -0.8216 -0.3888
 9198TIP3   OH251788   1.657   3.212  12.228 -0.3282 -0.2397  0.4116
 9198TIP3    H151789   1.712   3.268  12.173  0.1157  0.2047  1.2906
 9198TIP3    H251790   1.633   3.267  12.303  0.4552 -1.3252  1.5044
 9199TIP3   OH251791   1.766   5.387  12.332 -0.1449 -0.8168  0.3187
 9199TIP3    H151792   1.687   5.439  12.321 -0.4319 -1.3692 -0.3480
 9199TIP3    H251793   1.828   5.424  12.268 -0.7200 -1.9624 -0.9563
 9200TIP3   OH251794   5.404   5.677  12.448 -0.2616  0.1574  0.5992
 9200TIP3    H151795   5.448   5.723  12.519  0.2229  0.0074  0.4018
 9200TIP3    H251796   5.472   5.620  12.411 -0.0754  1.3388 -0.9588
 9201TIP3   OH251797   1.287   5.111  11.070  0.0263  0.0653 -0.5151
 9201TIP3    H151798   1.214   5.096  11.010 -0.2179  0.0340 -0.2117
 9201TIP3    H251799   1.334   5.028  11.074  0.5782  0.3226 -1.3683
 9202TIP3   OH251800   0.893   6.444  12.040  0.5008 -0.0165 -0.0618
 9202TIP3    H151801   0.799   6.435  12.030  0.0737  3.0230  0.1582
 9202TIP3    H251802   0.907   6.441  12.135  0.7893 -1.2914 -0.1226
 9203TIP3   OH251803   6.096   0.776  12.389 -0.2364  0.1411 -0.0280
 9203TIP3    H151804   6.095   0.846  12.455 -0.7250  0.1457 -0.0393
 9203TIP3    H251805   6.123   0.698  12.437  1.5332  0.5675 -0.2532
 9204TIP3   OH251806   6.140   4.909  11.000 -0.3237  0.0689  0.4103
 9204TIP3    H151807   6.058   4.881  11.041 -0.4028 -1.2428 -0.5972
 9204TIP3    H251808   6.201   4.919  11.072 -0.7961 -0.9887  0.9708
 9205TIP3   OH251809   5.760   3.870  11.781  0.0457 -0.1398 -0.1937
 9205TIP3    H151810   5.697   3.809  11.819  1.4281 -0.2966  2.0445
 9205TIP3    H251811   5.732   3.956  11.814 -0.8425  0.2493 -1.8652
 9206TIP3   OH251812   5.056   1.068  12.519 -0.3351 -0.1690 -0.7924
 9206TIP3    H151813   5.150   1.067  12.504  0.0362 -0.2385  1.2017
 9206TIP3    H251814   5.025   0.982  12.491  0.0148  0.1661 -2.2802
 9207TIP3   OH251815   6.990   0.786  11.375  0.3586 -0.3807  0.7542
 9207TIP3    H151816   7.067   0.762  11.322  2.1902  0.9590  2.6730
 9207TIP3    H251817   6.946   0.853  11.323  0.0567 -1.5846 -0.6521
 9208TIP3   OH251818   3.560   3.124  12.363 -0.2438 -0.1304  0.7120
 9208TIP3    H151819   3.653   3.107  12.381  0.1983 -0.1690 -1.3352
 9208TIP3    H251820   3.530   3.046  12.317 -1.4062 -0.2576  1.6478
 9209TIP3   OH251821   3.158   6.932  11.131 -0.1895 -0.5917 -0.2579
 9209TIP3    H151822   3.251   6.953  11.140  0.5137 -1.6604 -3.6388
 9209TIP3    H251823   3.136   6.886  11.212  2.3419 -0.6405  0.4938
 9210TIP3   OH251824   6.985   3.509  11.894  0.5157  0.3219 -0.3840
 9210TIP3    H151825   6.920   3.576  11.872  0.4589 -0.1093 -1.6077
 9210TIP3    H251826   7.069   3.556  11.895  0.4782  0.4284 -1.2388
 9211TIP3   OH251827   2.845   7.423  12.212 -0.1100  0.1540  0.5201
 9211TIP3    H151828   2.914   7.409  12.278 -0.4983 -1.8434  0.5576
 9211TIP3    H251829   2.864   7.358  12.144  0.2262  2.1055 -1.3573
 9212TIP3   OH251830   0.229   0.181  10.934 -0.1121  0.3989  0.6039
 9212TIP3    H151831   0.255   0.188  10.842 -1.5784 -0.8370  0.0521
 9212TIP3    H251832   0.244   0.269  10.969  0.0996  1.0057 -0.9210
 9213TIP3   OH251833   4.206   0.355  11.164  0.0903 -0.5151  0.3943
 9213TIP3    H151834   4.190   0.268  11.201 -0.8601 -1.2228 -1.5397
 9213TIP3    H251835   4.129   0.406  11.190 -1.2533 -1.4012 -1.6050
 9214TIP3   OH251836   7.531   1.003  12.751  0.3294  0.0018  0.4040
 9214TIP3    H151837   7.470   0.954  12.805  0.3762  1.4375  1.8546
 9214TIP3    H251838   7.572   0.938  12.694  0.8194 -1.7375  2.6098
 9215TIP3   OH251839   3.318   3.725  11.340 -0.3821 -0.1095 -0.4857
 9215TIP3    H151840   3.373   3.802  11.324  0.7294 -0.5778  0.8537
 9215TIP3    H251841   3.239   3.741  11.288 -1.0321  2.8435  1.1345
 9216TIP3   OH251842   6.400   3.398  12.143  0.0034  0.5814  0.8295
 9216TIP3    H151843   6.323   3.394  12.087  1.8220  0.3168 -1.9067
 9216TIP3    H251844   6.430   3.307  12.148  0.5785  0.7854  1.1591
 9217TIP3   OH251845   0.423   5.703  11.738 -0.6519 -0.0180  0.0385
 9217TIP3    H151846   0.436   5.653  11.818 -0.3390  0.0581  0.0369
 9217TIP3    H251847   0.333   5.683  11.711 -0.7085 -0.1542  0.3291
 9218TIP3   OH251848   6.500   1.744  11.406 -0.1782  0.5539 -0.2930
 9218TIP3    H151849   6.520   1.709  11.319  1.2370  0.1382  0.1714
 9218TIP3    H251850   6.435   1.683  11.443 -0.6411  0.6282 -0.9699
 9219TIP3   OH251851   1.541   0.671  11.864  0.0374  0.1361  0.0833
 9219TIP3    H151852   1.590   0.592  11.842  1.2741  1.2617 -1.4591
 9219TIP3    H251853   1.485   0.687  11.787 -1.4710 -0.1305  1.0786
 9220TIP3   OH251854   3.209   6.313  12.296  0.2276 -0.2888  0.0561
 9220TIP3    H151855   3.257   6.267  12.227 -1.7118  0.9981 -2.3020
 9220TIP3    H251856   3.176   6.392  12.253 -3.3056 -0.6867  1.7045
 9221TIP3   OH251857   6.089   0.939  12.599 -0.0828  0.0779 -0.5137
 9221TIP3    H151858   5.995   0.946  12.614 -0.4317  0.3444 -2.5358
 9221TIP3    H251859   6.122   1.027  12.613 -0.1185 -0.0111  0.1763
 9222TIP3   OH251860   2.924   1.045  12.284  0.0850 -0.5816 -0.1357
 9222TIP3    H151861   2.896   1.080  12.200  0.8512 -1.5582 -0.8226
 9222TIP3    H251862   2.973   1.117  12.325  0.5300 -0.4052 -0.9511
 9223TIP3   OH251863   7.019   5.105  11.811 -0.0013 -0.0335 -0.6609
 9223TIP3    H151864   6.941   5.125  11.759  0.2495 -1.1113 -1.4841
 9223TIP3    H251865   7.036   5.012  11.794 -0.5932 -0.8059  2.2334
 9224TIP3   OH251866   1.624   0.788  12.199  0.3932 -0.2864 -0.0512
 9224TIP3    H151867   1.528   0.781  12.200  0.2757  1.0659  0.7588
 9224TIP3    H251868   1.654   0.714  12.252 -0.1531 -1.2208 -1.0283
 9225TIP3   OH251869   3.434   6.869  11.201  0.0796  0.0169 -0.0543
 9225TIP3    H151870   3.484   6.868  11.119 -0.5262 -0.2212 -0.4243
 9225TIP3    H251871   3.501   6.872  11.270  0.6217 -0.9509 -0.5194
 9226TIP3   OH251872   6.608   2.146  11.524 -0.0498  0.2397  1.2119
 9226TIP3    H151873   6.586   2.233  11.557  1.3728  1.2173 -0.2740
 9226TIP3    H251874   6.613   2.156  11.429  0.8094 -1.2988  1.0499
 9227TIP3   OH251875   5.459   3.768  11.154 -0.0175 -0.0464 -0.5564
 9227TIP3    H151876   5.490   3.695  11.208 -0.9874 -1.0399 -1.2979
 9227TIP3    H251877   5.455   3.842  11.213 -0.8729 -1.0598  0.6871
 9228TIP3   OH251878   0.113   4.417  10.961  0.0618 -0.3122 -0.2298
 9228TIP3    H151879   0.117   4.513  10.953  0.7213  0.0669  3.1722
 9228TIP3    H251880   0.020   4.397  10.957 -0.3548  0.8951  1.7540
 9229TIP3   OH251881   1.445   0.525  10.806  0.1465  0.1412  0.5228
 9229TIP3    H151882   1.516   0.465  10.781 -1.3034 -1.0509 -0.9691
 9229TIP3    H251883   1.413   0.493  10.889  0.6941  0.0843  0.7145
 9230TIP3   OH251884   2.155   4.795  10.214  0.2756 -0.1704 -0.5826
 9230TIP3    H151885   2.156   4.700  10.196 -2.0573 -0.2471 -0.5287
 9230TIP3    H251886   2.127   4.802  10.305 -2.8620  0.5830 -1.5021
 9231TIP3   OH251887   7.439   1.078  12.391 -0.0962 -0.0994 -0.3008
 9231TIP3    H151888   7.346   1.096  12.406  0.2045  1.3178  0.0865
 9231TIP3    H251889   7.446   0.983  12.389 -1.2875 -0.2703  1.4627
 9232TIP3   OH251890   0.766   4.091  12.593 -0.6772  0.9347  0.4663
 9232TIP3    H151891   0.779   4.110  12.686  2.0622  0.9738  0.1501
 9232TIP3    H251892   0.736   4.000  12.591 -0.5603  0.8710  1.3668
 9233TIP3   OH251893   0.002   1.670  11.110  0.6926  0.1787 -0.2489
 9233TIP3    H151894   0.087   1.711  11.124  0.5535  0.5605 -0.5036
 9233TIP3    H251895   0.006   1.588  11.159  0.3659  1.2575  1.6842
 9234TIP3   OH251896   1.004   4.636  10.831 -0.2497  0.4371 -0.3475
 9234TIP3    H151897   0.997   4.551  10.787  1.0025  0.0600  0.1442
 9234TIP3    H251898   0.917   4.652  10.867 -0.3982 -0.8251 -0.1045
 9235TIP3   OH251899   1.026   3.382  10.875 -0.2475  0.1056  0.1994
 9235TIP3    H151900   1.042   3.380  10.781 -0.9942 -2.3573  0.0673
 9235TIP3    H251901   1.100   3.432  10.910  0.8659 -0.2036 -1.5522
 9236TIP3   OH251902   4.577   1.444  10.428 -0.3485 -0.7256 -0.1817
 9236TIP3    H151903   4.661   1.486  10.448 -0.7441  0.4102 -0.7944
 9236TIP3    H251904   4.515   1.517  10.426 -1.0727 -1.3550 -1.2664
 9237TIP3   OH251905   1.546   7.277  12.405  0.3493 -0.1570 -0.6299
 9237TIP3    H151906   1.545   7.191  12.445  2.1270 -0.0934 -0.3628
 9237TIP3    H251907   1.638   7.300  12.399 -0.1001  2.0661  0.0195
 9238TIP3   OH251908   3.805   3.004  10.751  0.0375 -0.3416  0.4730
 9238TIP3    H151909   3.737   3.050  10.702  0.6227 -1.4227 -1.5065
 9238TIP3    H251910   3.844   3.070  10.808 -1.1474  0.8355 -0.0387
 9239TIP3   OH251911   3.326   5.452  12.942 -0.3736 -0.7448  0.0288
 9239TIP3    H151912   3.250   5.398  12.964 -0.6434 -0.8130 -1.0181
 9239TIP3    H251913   3.306   5.538  12.979 -1.7056 -0.3167 -1.5787
 9240TIP3   OH251914   2.835   4.530  12.211 -0.2080 -0.4577 -0.1337
 9240TIP3    H151915   2.741   4.550  12.210 -0.1773 -0.3107 -0.1098
 9240TIP3    H251916   2.839   4.434  12.212 -0.3703 -0.4733  1.8856
 9241TIP3   OH251917   4.665   1.272  12.442  0.3462  0.3255 -0.7375
 9241TIP3    H151918   4.760   1.284  12.436  0.3239  0.5162 -0.7281
 9241TIP3    H251919   4.641   1.231  12.359  0.4980 -0.1321 -0.5575
 9242TIP3   OH251920   1.699   5.478  13.341 -0.1662  0.5200 -1.0804
 9242TIP3    H151921   1.744   5.544  13.394 -1.5487 -0.4431  1.4479
 9242TIP3    H251922   1.763   5.408  13.331 -1.1275 -1.2816  3.3346
 9243TIP3   OH251923   7.486   1.738  11.691 -0.5902  0.0746 -0.5154
 9243TIP3    H151924   7.554   1.792  11.732 -0.6609 -1.9024  2.5799
 9243TIP3    H251925   7.510   1.734  11.599  0.5461  3.5820 -0.5047
 9244TIP3   OH251926   4.692   4.532  10.432  0.1898 -0.2508 -0.1475
 9244TIP3    H151927   4.731   4.485  10.506  0.8774  1.2612  0.5007
 9244TIP3    H251928   4.729   4.490  10.355  1.2877 -0.3609  0.4165
 9245TIP3   OH251929   1.188   5.055  11.957 -0.0120  0.1155  0.2412
 9245TIP3    H151930   1.189   4.993  12.030 -1.0568  0.7613  0.8228
 9245TIP3    H251931   1.225   5.136  11.994 -2.5906  1.1571  0.7666
 9246TIP3   OH251932   3.807   2.855  11.266  0.4658 -0.4762  0.1232
 9246TIP3    H151933   3.853   2.783  11.310  0.2871 -0.7103 -0.0702
 9246TIP3    H251934   3.781   2.819  11.182  0.0046 -0.3206  0.1972
 9247TIP3   OH251935   6.961   5.499  10.663  0.1437 -0.1930  0.0005
 9247TIP3    H151936   6.876   5.538  10.683 -0.2745 -1.0063 -0.1516
 9247TIP3    H251937   6.940   5.420  10.614  0.9493 -0.7939  0.5989
 9248TIP3   OH251938   5.668   7.589  11.320  0.3068  0.1189  0.5802
 9248TIP3    H151939   5.644   7.590  11.228  0.4255 -0.8718  0.5247
 9248TIP3    H251940   5.635   7.672  11.355 -0.6223  0.0679 -0.1314
 9249TIP3   OH251941   4.896   0.846  12.064 -0.2947  0.1392  0.2116
 9249TIP3    H151942   4.912   0.866  11.972 -0.9002 -1.1392 -0.1913
 9249TIP3    H251943   4.941   0.915  12.112  1.8071 -0.3194 -0.9833
 9250TIP3   OH251944   1.789   3.229  11.483  0.6257  0.2605 -0.1262
 9250TIP3    H151945   1.803   3.172  11.407 -0.9541 -1.4038  0.7654
 9250TIP3    H251946   1.841   3.189  11.553  1.9268  1.6828 -0.2104
 9251TIP3   OH251947   7.229   6.422  12.596  0.2705 -0.3638 -0.5965
 9251TIP3    H151948   7.167   6.348  12.598 -0.7232  0.4590  0.1648
 9251TIP3    H251949   7.296   6.399  12.660 -0.1492 -0.5166 -0.2055
 9252TIP3   OH251950   5.314   6.507  10.763  0.3880  0.6047 -0.2251
 9252TIP3    H151951   5.328   6.593  10.724  1.0014  0.0054 -1.3843
 9252TIP3    H251952   5.373   6.505  10.839  0.8810  0.9505 -0.5938
 9253TIP3   OH251953   7.122   7.118  10.927  0.3335  0.2103 -0.0789
 9253TIP3    H151954   7.103   7.155  11.014  2.2354  0.5423  0.2349
 9253TIP3    H251955   7.168   7.188  10.881  0.5023 -0.4279 -0.8967
 9254TIP3   OH251956   5.983   6.170  12.207 -0.0833  0.0773  0.2580
 9254TIP3    H151957   6.019   6.165  12.118  0.3223 -0.2022  0.4348
 9254TIP3    H251958   5.930   6.250  12.207  1.1276  0.9081  0.1955
 9255TIP3   OH251959   5.056   3.277  11.187 -0.3002 -0.0440 -0.2376
 9255TIP3    H151960   5.113   3.278  11.111 -0.4000 -0.1692 -0.3145
 9255TIP3    H251961   4.971   3.248  11.154 -0.4004  0.1064 -0.1168
 9256TIP3   OH251962   2.544   6.250  11.077 -0.0114 -0.6379 -0.0952
 9256TIP3    H151963   2.583   6.234  11.163  0.5138 -2.5187 -0.6280
 9256TIP3    H251964   2.454   6.277  11.096  0.7292  1.2314  1.0744
 9257TIP3   OH251965   3.012   0.575  11.913 -0.5647  0.1755  0.1707
 9257TIP3    H151966   2.960   0.620  11.979 -0.6885  2.6861 -1.5080
 9257TIP3    H251967   3.102   0.603  11.931 -0.3251 -0.7550  0.4722
 9258TIP3   OH251968   1.748   6.335  11.928  0.5892  0.0882 -0.0275
 9258TIP3    H151969   1.724   6.327  11.835  0.2550  2.2765 -0.1849
 9258TIP3    H251970   1.683   6.281  11.973 -1.3123  1.5132 -0.8851
 9259TIP3   OH251971   3.288   2.122  10.935 -0.0242  0.3862  0.1932
 9259TIP3    H151972   3.298   2.213  10.965 -1.4622  0.8225 -0.5953
 9259TIP3    H251973   3.217   2.087  10.989  2.2203 -1.1624  2.3666
 9260TIP3   OH251974   3.317   4.396  11.554 -0.2988 -0.0991  0.2078
 9260TIP3    H151975   3.251   4.462  11.576  0.8681  1.9142 -1.7795
 9260TIP3    H251976   3.297   4.372  11.464  0.0784 -1.5227  0.4862
 9261TIP3   OH251977   4.616   6.367  13.282  0.1147 -0.5614 -0.4827
 9261TIP3    H151978   4.695   6.322  13.311 -0.4943 -2.6320 -1.8484
 9261TIP3    H251979   4.544   6.316  13.319 -0.6693  1.3854  0.8896
 9262TIP3   OH251980   2.164   2.629  13.517 -0.1286 -0.1484  0.5909
 9262TIP3    H151981   2.100   2.573  13.560 -0.3480 -0.4606 -0.1398
 9262TIP3    H251982   2.216   2.570  13.463 -2.0537  0.6005 -2.3188
 9263TIP3   OH251983   5.570   1.027  11.149  0.0367  0.2394  0.2569
 9263TIP3    H151984   5.481   1.012  11.179  0.2995 -1.0633  0.4442
 9263TIP3    H251985   5.599   0.943  11.115  1.1652  0.6603  0.1160
 9264TIP3   OH251986   2.602   7.557  12.223 -0.0955 -0.2021  0.4504
 9264TIP3    H151987   2.678   7.504  12.198  0.0328 -0.0075  0.4226
 9264TIP3    H251988   2.594   7.544  12.317  0.4052  0.3323  0.5707
 9265TIP3   OH251989   6.484   0.306  10.893  1.1363 -0.0567  0.2000
 9265TIP3    H151990   6.474   0.216  10.860  0.9463 -0.6248  1.7110
 9265TIP3    H251991   6.569   0.334  10.860  1.9771 -1.4509  1.0598
 9266TIP3   OH251992   1.892   3.013  12.392 -0.1194  0.3506 -0.2777
 9266TIP3    H151993   1.954   2.959  12.343 -0.2390 -1.5105  1.4774
 9266TIP3    H251994   1.807   2.992  12.354 -0.0144  0.3642 -0.5199
 9267TIP3   OH251995   3.593   5.376  12.890 -0.0300  0.2525  0.2530
 9267TIP3    H151996   3.498   5.373  12.885 -0.0491  0.4642  0.4440
 9267TIP3    H251997   3.619   5.289  12.918 -0.3196  0.7987  2.4035
 9268TIP3   OH251998   0.439   6.928  12.212 -0.4535  0.3002 -0.1409
 9268TIP3    H151999   0.349   6.951  12.193 -0.2815  0.2470 -1.0748
 9268TIP3    H252000   0.489   6.963  12.138  0.3483  0.7078  0.5752
 9269TIP3   OH252001   6.738   1.791  11.872 -0.1520 -0.1999  0.1145
 9269TIP3    H152002   6.686   1.807  11.794 -1.6575 -2.5319  0.5623
 9269TIP3    H252003   6.828   1.811  11.846 -0.7306 -0.1683 -1.9627
 9270TIP3   OH252004   1.073   1.805  11.985 -0.1968 -0.0844  0.3343
 9270TIP3    H152005   1.087   1.710  11.988  2.4134  0.1335 -1.6386
 9270TIP3    H252006   1.104   1.831  11.899  1.7636  2.9189  1.7999
 9271TIP3   OH252007   0.087   6.315  10.730  0.4689 -0.8907  0.2142
 9271TIP3    H152008   0.113   6.251  10.663 -0.6345 -0.5612 -0.5658
 9271TIP3    H252009   0.010   6.358  10.693 -0.2874 -0.8238  1.8010
 9272TIP3   OH252010   5.500   0.698  12.588 -0.2025 -0.3227  0.5633
 9272TIP3    H152011   5.438   0.636  12.626 -0.2563 -0.3602  0.4141
 9272TIP3    H252012   5.579   0.688  12.642 -0.1758 -0.5972  0.4774
 9273TIP3   OH252013   0.299   2.142  13.019 -0.0213  0.1894  0.1491
 9273TIP3    H152014   0.236   2.214  13.025  1.6573  1.8047 -0.6297
 9273TIP3    H252015   0.354   2.165  12.944  0.6110 -1.9062 -0.0912
 9274TIP3   OH252016   4.445   1.293  12.599  0.0130  0.1160 -0.2065
 9274TIP3    H152017   4.524   1.289  12.545  0.3949  0.1488  0.3516
 9274TIP3    H252018   4.474   1.329  12.682 -0.5613 -0.0419  0.0670
 9275TIP3   OH252019   2.084   4.779  10.813 -0.0828  0.0877 -0.0158
 9275TIP3    H152020   2.111   4.865  10.780  2.9415 -0.3277  1.0618
 9275TIP3    H252021   1.989   4.786  10.823 -0.3682  2.1982 -2.9405
 9276TIP3   OH252022   0.098   6.417  11.742  0.5549 -0.2041  0.2822
 9276TIP3    H152023   0.148   6.336  11.755  2.4336  0.8006 -0.4128
 9276TIP3    H252024   0.164   6.484  11.728 -1.0019  1.2751 -0.2517
 9277TIP3   OH252025   6.934   1.058  12.155  0.7263 -0.1803  0.4785
 9277TIP3    H152026   6.921   1.102  12.239  0.1925 -0.7865  0.7303
 9277TIP3    H252027   7.020   1.086  12.125  0.5389  0.7557  0.7869
 9278TIP3   OH252028   0.713   5.455  12.050  0.5808  0.8288 -0.3938
 9278TIP3    H152029   0.755   5.389  11.995  1.1955  1.5593 -0.8259
 9278TIP3    H252030   0.709   5.414  12.136  1.1443  0.3035 -0.6019
 9279TIP3   OH252031   7.565   2.827  12.449  0.3997  0.2040  0.7837
 9279TIP3    H152032   7.482   2.786  12.474  0.5762 -0.2451  0.6373
 9279TIP3    H252033   7.619   2.823  12.529 -0.6184  2.8796  1.7189
 9280TIP3   OH252034   7.395   3.343  13.019  0.1575  0.3849 -0.5914
 9280TIP3    H152035   7.315   3.383  12.985 -0.9146 -0.1830  1.1305
 9280TIP3    H252036   7.372   3.252  13.033 -0.5058  0.9959  4.1134
 9281TIP3   OH252037   0.938   6.394  11.415 -0.5153  0.0968  0.0874
 9281TIP3    H152038   0.916   6.386  11.508 -0.3562  0.2144  0.1348
 9281TIP3    H252039   0.968   6.484  11.405  1.4309 -0.4618  0.3425
 9282TIP3   OH252040   0.058   2.479  11.670  0.4379  0.1506 -0.3841
 9282TIP3    H152041   0.065   2.446  11.759 -0.0275 -1.3899 -0.8901
 9282TIP3    H252042  -0.021   2.533  11.671 -0.4980 -1.1780 -0.2339
 9283TIP3   OH252043   5.037   0.594  13.309  1.0228 -0.5554 -0.6545
 9283TIP3    H152044   5.116   0.617  13.260  0.9392 -0.6186 -0.8166
 9283TIP3    H252045   5.035   0.498  13.307  1.8086 -0.6341  0.6905
 9284TIP3   OH252046   3.732   6.815  11.226  0.2545  0.3315  0.6667
 9284TIP3    H152047   3.768   6.791  11.141 -1.6031  1.1566 -0.4259
 9284TIP3    H252048   3.701   6.732  11.263 -1.2369  0.2651 -0.6391
 9285TIP3   OH252049   2.485   4.608  11.097 -0.2687  0.0119 -0.1114
 9285TIP3    H152050   2.485   4.686  11.153 -1.0230  0.7791 -1.1684
 9285TIP3    H252051   2.487   4.641  11.008  2.5737 -1.2047 -0.6073
 9286TIP3   OH252052   1.323   4.819  12.830  0.1975  0.2984 -0.4714
 9286TIP3    H152053   1.402   4.854  12.788  1.2028 -0.7939  0.4039
 9286TIP3    H252054   1.283   4.894  12.874  1.1685  0.7533 -0.3287
 9287TIP3   OH252055   3.134   5.353  11.993 -0.1967  0.3002  0.1046
 9287TIP3    H152056   3.063   5.331  12.053  0.5584  0.7085  1.1927
 9287TIP3    H252057   3.112   5.441  11.961  0.6255  1.1804  1.7818
 9288TIP3   OH252058   3.315   4.778  12.207 -0.3021 -0.2498  0.0083
 9288TIP3    H152059   3.375   4.796  12.135  0.5117  0.6845  0.8939
 9288TIP3    H252060   3.237   4.740  12.164  0.1944  0.1859 -1.3342
 9289TIP3   OH252061   5.704   1.996  11.542 -0.2212 -0.2117 -0.6299
 9289TIP3    H152062   5.645   1.945  11.598 -0.2176 -0.1897 -0.6057
 9289TIP3    H252063   5.645   2.056  11.495 -0.1946 -0.0200 -0.4249
 9290TIP3   OH252064   5.331   6.070  10.818  0.3083 -0.4006 -0.1474
 9290TIP3    H152065   5.286   6.110  10.744  0.2786  0.4623  0.3288
 9290TIP3    H252066   5.265   6.014  10.859 -0.2637  0.6007  0.3507
 9291TIP3   OH252067   7.328   7.462  12.749 -0.0111  0.2811 -0.1139
 9291TIP3    H152068   7.298   7.390  12.805  0.5296  0.8522  0.9542
 9291TIP3    H252069   7.348   7.421  12.666 -1.7602 -0.4541 -0.2315
 9292TIP3   OH252070   0.016   0.376  11.653 -0.3392 -0.7395  0.0401
 9292TIP3    H152071  -0.072   0.405  11.628  0.1815  1.2582  0.3019
 9292TIP3    H252072   0.001   0.303  11.713 -1.8926  0.4121  1.1493
 9293TIP3   OH252073   0.546   0.200  10.849  0.0452  0.1573  0.6363
 9293TIP3    H152074   0.618   0.263  10.839  0.9923 -1.0192 -0.3150
 9293TIP3    H252075   0.550   0.174  10.940  0.0399  0.9909  0.8870
 9294TIP3   OH252076   3.688   1.412  10.608  0.5865  0.2321  0.9360
 9294TIP3    H152077   3.632   1.466  10.553  0.1796  3.2358  3.9700
 9294TIP3    H252078   3.638   1.331  10.622 -0.9240  0.9547 -0.0341
 9295TIP3   OH252079   1.796   0.271  11.369  0.5055 -0.0507 -0.9422
 9295TIP3    H152080   1.783   0.212  11.443  1.3245  0.4498 -0.3837
 9295TIP3    H252081   1.842   0.347  11.406 -0.9406  1.1710 -1.5502
 9296TIP3   OH252082   3.249   0.674  12.004  0.4629  0.2657 -0.5120
 9296TIP3    H152083   3.211   0.762  11.999 -0.1109 -0.0076 -1.1664
 9296TIP3    H252084   3.340   0.688  12.031  0.6949  1.1472 -1.6689
 9297TIP3   OH252085   3.459   2.761  11.109 -0.1061 -0.6179  0.8666
 9297TIP3    H152086   3.448   2.806  11.193 -0.5192  0.7065  0.1449
 9297TIP3    H252087   3.525   2.813  11.062 -0.5225 -0.8132  0.0367
 9298TIP3   OH252088   3.796   4.144  12.254  0.3394  0.5346  0.3400
 9298TIP3    H152089   3.703   4.149  12.230  0.1129 -2.2859  0.2764
 9298TIP3    H252090   3.842   4.146  12.170  0.1356 -0.4092  0.1884
 9299TIP3   OH252091   7.378   0.427  10.566 -0.0299 -0.0984 -0.5321
 9299TIP3    H152092   7.295   0.382  10.547  0.7425 -1.9896  0.3902
 9299TIP3    H252093   7.425   0.427  10.483 -0.8238  0.7594 -0.9995
 9300TIP3   OH252094   2.180   1.430  12.277  0.2755 -0.7125  0.5177
 9300TIP3    H152095   2.208   1.447  12.187 -0.1823  1.3836  0.7202
 9300TIP3    H252096   2.251   1.380  12.316  1.9314  1.0262 -0.1347
 9301TIP3   OH252097   4.500   3.212  12.041  0.0143  0.1734  0.7934
 9301TIP3    H152098   4.498   3.125  12.000 -1.9241  0.6874 -0.3515
 9301TIP3    H252099   4.591   3.223  12.070  0.4707 -1.9369  0.3477
 9302TIP3   OH252100   1.618   3.816  12.456 -0.2419  0.1881  0.2584
 9302TIP3    H152101   1.623   3.907  12.487 -0.1634  0.1205  0.4446
 9302TIP3    H252102   1.607   3.824  12.361  0.6294  0.3870  0.1611
 9303TIP3   OH252103   1.988   5.146  12.281  0.4784  0.0751 -0.0599
 9303TIP3    H152104   2.065   5.193  12.314  0.2790  0.2763  0.1270
 9303TIP3    H252105   1.916   5.206  12.297  0.1500 -0.4902  0.6172
 9304TIP3   OH252106   5.949   0.372  10.958  0.3693  0.1157 -0.1099
 9304TIP3    H152107   5.883   0.440  10.972  0.0644 -0.3910  1.0167
 9304TIP3    H252108   5.965   0.336  11.045  3.3647  1.3253 -0.0302
 9305TIP3   OH252109   3.428   0.145  10.745  0.5065  0.0467 -0.4704
 9305TIP3    H152110   3.432   0.211  10.814  0.0451  0.2633 -0.6522
 9305TIP3    H252111   3.344   0.102  10.757 -0.3108  1.1646 -1.8785
 9306TIP3   OH252112   4.306   1.962  11.745  0.0009  0.5761 -0.3389
 9306TIP3    H152113   4.257   2.043  11.759  1.3756  1.4613 -0.4709
 9306TIP3    H252114   4.390   1.990  11.710  1.0326 -0.8000  0.8937
 9307TIP3   OH252115   4.633   6.282  11.843  0.4627  0.5369 -0.0981
 9307TIP3    H152116   4.588   6.294  11.759  1.2135  2.1787 -0.2990
 9307TIP3    H252117   4.713   6.233  11.820 -1.1293 -2.4786  0.2744
 9308TIP3   OH252118   2.104   3.984  12.787  0.0085 -0.0357 -0.3420
 9308TIP3    H152119   2.081   3.925  12.715 -1.1442 -0.3334  0.2441
 9308TIP3    H252120   2.115   3.926  12.863 -1.3967  0.4973  0.3008
 9309TIP3   OH252121   3.581   5.207  12.016  0.3157 -0.0892 -0.1945
 9309TIP3    H152122   3.534   5.290  12.006 -0.1523 -0.0664  1.7558
 9309TIP3    H252123   3.653   5.212  11.953 -0.8256  0.9490 -1.4775
 9310TIP3   OH252124   1.060   7.325  13.386  0.1408  0.2077  0.4695
 9310TIP3    H152125   0.977   7.296  13.350  1.1554 -0.8342 -1.1547
 9310TIP3    H252126   1.110   7.244  13.399  1.5231  0.9083 -0.2547
 9311TIP3   OH252127   6.575   5.800  12.143 -0.2621 -0.1509 -0.0958
 9311TIP3    H152128   6.630   5.771  12.216  0.4036 -1.2033 -0.9854
 9311TIP3    H252129   6.486   5.780  12.171  0.0137 -0.8518  0.3079
 9312TIP3   OH252130   2.906   0.571  13.170  0.6785 -0.1605  0.2607
 9312TIP3    H152131   2.818   0.588  13.203  0.3992 -0.4826 -0.3190
 9312TIP3    H252132   2.914   0.476  13.169  0.7940 -0.1500 -0.2918
 9313TIP3   OH252133   1.990   6.947  12.099  0.2447 -0.0025 -0.2417
 9313TIP3    H152134   2.024   7.019  12.153  0.8276 -1.3855  1.3273
 9313TIP3    H252135   2.024   6.965  12.011  1.8267  0.7460  0.4739
 9314TIP3   OH252136   6.517   6.866  12.360  0.2412 -0.1514  0.2471
 9314TIP3    H152137   6.525   6.938  12.297  0.0042 -1.4382 -1.3108
 9314TIP3    H252138   6.585   6.804  12.334  0.5918 -0.4163  1.7111
 9315TIP3   OH252139   2.914   5.280  11.499 -0.1838 -0.1176 -0.2884
 9315TIP3    H152140   2.914   5.230  11.417  2.3446 -2.0961  0.8094
 9315TIP3    H252141   2.965   5.227  11.560  0.2916  2.5567  1.8161
 9316TIP3   OH252142   3.949   6.322  10.985  1.2767  0.1734  0.6455
 9316TIP3    H152143   3.919   6.409  11.010 -0.0202  0.5363 -1.9106
 9316TIP3    H252144   4.043   6.323  11.001  1.1636  1.7790  1.3409
 9317TIP3   OH252145   3.235   2.890  13.808  0.4637 -0.7760 -0.0916
 9317TIP3    H152146   3.198   2.841  13.735 -1.7074 -1.0276  1.0614
 9317TIP3    H252147   3.193   2.976  13.803 -1.0005 -1.3062  1.6860
 9318TIP3   OH252148   0.918   0.349  11.502 -0.0020  0.2427  0.4822
 9318TIP3    H152149   0.847   0.344  11.437  0.6464 -0.1910 -0.2032
 9318TIP3    H252150   0.953   0.437  11.492 -0.3616  0.4168  0.7382
 9319TIP3   OH252151   1.382   3.903  11.588  0.5249 -0.1670 -0.3083
 9319TIP3    H152152   1.413   3.957  11.514 -1.4192 -0.7819 -1.6472
 9319TIP3    H252153   1.407   3.814  11.564  0.7359 -0.2666  0.2694
 9320TIP3   OH252154   1.686   5.272  11.337 -0.3599  0.0590  0.0882
 9320TIP3    H152155   1.594   5.264  11.313 -0.2516 -0.2049 -0.2417
 9320TIP3    H252156   1.728   5.311  11.260 -0.0684 -0.4864 -0.0300
 9321TIP3   OH252157   4.946   5.996  12.214  0.2145 -0.0191  0.9216
 9321TIP3    H152158   5.001   5.937  12.163 -0.7545 -1.5950  1.6068
 9321TIP3    H252159   4.960   5.970  12.305 -1.2907 -0.1914  1.1417
 9322TIP3   OH252160   5.723   7.589  12.109 -0.1981  0.4472 -0.0923
 9322TIP3    H152161   5.664   7.663  12.097  1.2533  1.1621 -4.5015
 9322TIP3    H252162   5.794   7.624  12.164 -1.3220  1.0846  1.0191
 9323TIP3   OH252163   3.021   0.593  10.931 -0.3569  0.1799 -0.0590
 9323TIP3    H152164   2.944   0.645  10.953  0.2483  1.3921 -0.6847
 9323TIP3    H252165   3.088   0.658  10.908  0.5588 -0.8668 -0.4487
 9324TIP3   OH252166   4.546   7.382  13.083  0.6167 -0.0375  0.0061
 9324TIP3    H152167   4.468   7.358  13.034  1.2979  1.5987 -2.0161
 9324TIP3    H252168   4.606   7.308  13.070  0.2368 -0.2901 -0.3524
 9325TIP3   OH252169   5.039   6.463  12.663 -0.2035 -0.2539  0.8173
 9325TIP3    H152170   4.976   6.535  12.657  1.0285  0.8700  0.7879
 9325TIP3    H252171   5.030   6.416  12.580 -2.2735 -1.2538  1.5499
 9326TIP3   OH252172   7.173   0.429  11.346 -0.6062  0.4805 -0.1086
 9326TIP3    H152173   7.149   0.501  11.287  0.1378 -0.4052 -1.5386
 9326TIP3    H252174   7.150   0.462  11.433  0.0149  2.6010 -0.6699
 9327TIP3   OH252175   0.148   6.215  13.028  0.2933  0.1734  0.4603
 9327TIP3    H152176   0.153   6.279  13.100  3.2596  1.8349 -1.0434
 9327TIP3    H252177   0.087   6.254  12.966  1.9150  1.5704 -0.3444
 9328TIP3   OH252178   7.017   5.795  10.763 -0.0071  0.7338  0.0277
 9328TIP3    H152179   6.995   5.714  10.716 -0.3547  0.8253  0.0273
 9328TIP3    H252180   6.943   5.853  10.745  0.6954  1.4078 -0.7930
 9329TIP3   OH252181   6.987   2.006  11.294 -0.3437 -0.5821  0.1285
 9329TIP3    H152182   7.072   1.973  11.322 -0.3610 -0.6983  0.0455
 9329TIP3    H252183   6.931   1.929  11.292 -0.8359 -0.2992  1.5947
 9330TIP3   OH252184   3.986   6.218  12.640  0.2954  0.4589 -0.4674
 9330TIP3    H152185   4.080   6.210  12.655  0.4865  0.6029 -1.5083
 9330TIP3    H252186   3.947   6.159  12.705  1.0152  1.4400  0.9037
 9331TIP3   OH252187   5.995   3.729  12.308  0.5294 -0.3077  0.2401
 9331TIP3    H152188   6.014   3.777  12.388 -0.6099  0.4600  0.0876
 9331TIP3    H252189   5.948   3.793  12.253  1.4019 -0.7757 -1.0847
 9332TIP3   OH252190   2.609   7.219  10.385  0.4708  0.0745  0.0705
 9332TIP3    H152191   2.644   7.151  10.442  1.3618 -0.6270 -1.2778
 9332TIP3    H252192   2.618   7.184  10.297  0.0160  1.5388 -0.5902
 9333TIP3   OH252193   0.401   1.568  11.021 -0.2195 -0.0845 -0.0815
 9333TIP3    H152194   0.476   1.587  11.077  1.0897 -2.3728 -0.9036
 9333TIP3    H252195   0.420   1.615  10.939  0.9805 -1.5449 -0.6974
 9334TIP3   OH252196   3.451   3.660  10.657 -0.4351 -0.0709  0.3459
 9334TIP3    H152197   3.501   3.677  10.737 -0.8646 -2.0330  1.0708
 9334TIP3    H252198   3.453   3.744  10.610  2.9876  0.1608  0.6271
 9335TIP3   OH252199   1.058   1.936  10.659 -0.5969  0.6090 -0.3340
 9335TIP3    H152200   1.142   1.933  10.613 -0.1390 -0.5615  0.5424
 9335TIP3    H252201   1.064   1.868  10.725 -1.8110  1.2740  0.5052
 9336TIP3   OH252202   5.544   4.592  12.149  0.5160 -0.1266  0.1684
 9336TIP3    H152203   5.612   4.598  12.216 -0.1809 -0.6760  0.9314
 9336TIP3    H252204   5.550   4.676  12.102  0.1143  0.8451  1.7782
 9337TIP3   OH252205   1.164   0.892  13.260  0.0194 -0.0319 -0.3123
 9337TIP3    H152206   1.130   0.902  13.172 -1.4832 -0.1306  0.2298
 9337TIP3    H252207   1.086   0.886  13.316  0.8084 -3.0205  0.7087
 9338TIP3   OH252208   6.030   6.277  10.802  0.0550 -0.2700 -0.4592
 9338TIP3    H152209   6.077   6.331  10.865 -0.1367 -1.3546  0.6415
 9338TIP3    H252210   6.098   6.243  10.744  0.7723 -2.2265  1.4141
 9339TIP3   OH252211   4.160   4.089  12.376 -0.0791 -0.0913 -0.5701
 9339TIP3    H152212   4.182   4.159  12.437 -1.5580  1.9360 -2.1926
 9339TIP3    H252213   4.081   4.049  12.412 -0.4958  0.5688 -0.7383
 9340TIP3   OH252214   3.753   5.333  12.473  0.5137  0.4007 -0.0847
 9340TIP3    H152215   3.799   5.408  12.436  2.9060 -0.6661  0.5164
 9340TIP3    H252216   3.663   5.342  12.442  0.7687  3.3418 -0.2222
 9341TIP3   OH252217   6.020   2.711  11.444  0.0024  0.3183  0.2917
 9341TIP3    H152218   6.027   2.735  11.536 -1.2319 -0.7557  0.7000
 9341TIP3    H252219   5.954   2.770  11.409  1.7207  1.9369 -0.3997
 9342TIP3   OH252220   3.641   2.296  11.637 -0.1581 -0.2265  0.7355
 9342TIP3    H152221   3.677   2.281  11.724  1.2755  0.8512  0.3749
 9342TIP3    H252222   3.561   2.347  11.652  0.8436  1.2243  1.3995
 9343TIP3   OH252223   1.555   7.485  10.729 -0.1528  0.0841  0.0313
 9343TIP3    H152224   1.592   7.471  10.642 -0.8311  0.7808 -0.3805
 9343TIP3    H252225   1.621   7.536  10.776  0.4540 -0.7638  0.1184
 9344TIP3   OH252226   6.018   6.686  12.018 -0.2293  0.0830  0.2477
 9344TIP3    H152227   6.000   6.751  11.951 -0.2640 -0.1647  0.0123
 9344TIP3    H252228   6.001   6.602  11.975 -3.0068 -0.0412  1.3386
 9345TIP3   OH252229   3.781   4.874  11.390  0.2139 -0.2863 -0.1004
 9345TIP3    H152230   3.726   4.803  11.355 -0.7637 -0.4108  1.5930
 9345TIP3    H252231   3.847   4.829  11.444 -0.2015  0.0608  0.7075
 9346TIP3   OH252232   2.600   4.835  11.235 -0.7612  0.7473  0.5973
 9346TIP3    H152233   2.694   4.848  11.226 -0.7271 -0.0744 -0.4486
 9346TIP3    H252234   2.562   4.898  11.173 -0.5807 -3.7341 -4.9172
 9347TIP3   OH252235   4.823   0.569  13.126 -0.0059 -0.5260  0.5758
 9347TIP3    H152236   4.881   0.541  13.197 -0.4342  0.3340  1.2888
 9347TIP3    H252237   4.855   0.656  13.102 -1.2110  0.1170  1.2317
 9348TIP3   OH252238   6.252   2.161  10.579 -0.1682 -0.8405 -0.3822
 9348TIP3    H152239   6.187   2.093  10.598  0.8871 -1.2954  2.0032
 9348TIP3    H252240   6.248   2.219  10.655  0.9323  0.1767 -1.0649
 9349TIP3   OH252241   4.399   0.615  12.235 -0.2524 -0.1609 -0.0943
 9349TIP3    H152242   4.363   0.687  12.287 -1.7554 -1.1390  0.2976
 9349TIP3    H252243   4.376   0.636  12.145 -0.9962 -0.3013  0.0552
 9350TIP3   OH252244   1.236   1.055  12.161  0.1755 -0.4295  0.0388
 9350TIP3    H152245   1.224   1.093  12.247  0.9123 -1.2877  0.5368
 9350TIP3    H252246   1.154   1.073  12.115 -1.0701 -1.7654  1.6258
 9351TIP3   OH252247   0.368   0.310  11.890 -0.0158  0.0555 -0.2325
 9351TIP3    H152248   0.316   0.374  11.842 -0.5492  0.2532  0.5806
 9351TIP3    H252249   0.456   0.347  11.893 -0.4553  1.0622  0.7595
 9352TIP3   OH252250   6.571   3.745  11.676 -0.0741  0.3811  0.1791
 9352TIP3    H152251   6.480   3.723  11.698 -0.3837  0.2744 -1.1256
 9352TIP3    H252252   6.565   3.791  11.592  0.9567  1.6606  0.7619
 9353TIP3   OH252253   1.648   1.715  10.733 -0.0329 -0.1136  0.1601
 9353TIP3    H152254   1.587   1.725  10.805  0.9022  1.4123  0.7809
 9353TIP3    H252255   1.594   1.687  10.659 -1.4192  0.8467  0.7856
 9354TIP3   OH252256   7.575   1.704  11.448  0.0299  0.2379  0.5280
 9354TIP3    H152257   7.521   1.674  11.375  1.8915  0.0003 -0.8327
 9354TIP3    H252258   7.611   1.624  11.486  1.4369  0.4778 -0.2358
 9355TIP3   OH252259   4.113   5.423  11.105  0.3384 -0.2209 -0.0359
 9355TIP3    H152260   4.204   5.399  11.125  0.2720 -0.7750 -0.3612
 9355TIP3    H252261   4.082   5.352  11.050 -0.5518 -0.4504  0.7344
 9356TIP3   OH252262   3.616   0.856  10.586 -0.0041  0.3850  0.2262
 9356TIP3    H152263   3.617   0.813  10.501  0.4601  1.8642 -0.5606
 9356TIP3    H252264   3.614   0.785  10.650 -1.5960 -0.7513 -1.0187
 9357TIP3   OH252265   5.974   5.090  12.312 -0.4488  0.1972 -0.5442
 9357TIP3    H152266   5.959   5.003  12.275  0.5713 -1.8826  3.3662
 9357TIP3    H252267   6.069   5.102  12.306 -0.4712  0.5667 -0.1730
 9358TIP3   OH252268   4.633   7.195  11.866  0.1113  0.1739  0.0818
 9358TIP3    H152269   4.640   7.118  11.923 -0.7722 -1.7807 -2.3013
 9358TIP3    H252270   4.560   7.244  11.903 -0.6723 -1.2128  0.4697
 9359TIP3   OH252271   6.592   0.043  12.653 -0.0704 -0.5960  0.3012
 9359TIP3    H152272   6.677  -0.001  12.664  1.0910  0.7695 -2.3291
 9359TIP3    H252273   6.605   0.130  12.690 -0.5660 -0.6128  0.5211
 9360TIP3   OH252274   5.812   1.491  12.451  0.1187 -0.3716  0.3202
 9360TIP3    H152275   5.831   1.468  12.541 -1.4282 -1.1738  0.4827
 9360TIP3    H252276   5.730   1.542  12.455  0.2461 -0.0580 -0.5902
 9361TIP3   OH252277   4.167   0.161  11.487 -0.6026  0.0752 -0.0840
 9361TIP3    H152278   4.208   0.110  11.416  0.4592 -0.7708  1.0946
 9361TIP3    H252279   4.240   0.210  11.525 -1.1833  0.5800  0.3802
 9362TIP3   OH252280   0.922   3.884  12.941  0.3310  0.2227 -0.1166
 9362TIP3    H152281   0.831   3.875  12.912 -0.8487  1.2195  2.8693
 9362TIP3    H252282   0.926   3.836  13.023  1.7783  2.1637  1.0489
 9363TIP3   OH252283   4.316   3.687  10.867 -0.2874  0.0189  0.1207
 9363TIP3    H152284   4.387   3.669  10.806  1.4075  2.0031  1.3842
 9363TIP3    H252285   4.332   3.629  10.942  0.1301  0.6051  0.4902
 9364TIP3   OH252286   3.186   0.352  11.045  0.2046 -0.9076 -0.2291
 9364TIP3    H152287   3.118   0.349  11.112  0.1359 -0.1304 -0.2484
 9364TIP3    H252288   3.178   0.440  11.006  1.0789 -0.8721 -0.3647
 9365TIP3   OH252289   1.859   3.349  12.089  0.6546 -0.4419  0.1056
 9365TIP3    H152290   1.878   3.369  11.997 -0.8274 -1.3372 -0.4392
 9365TIP3    H252291   1.927   3.287  12.115  0.4946 -0.9921 -0.7355
 9366TIP3   OH252292   2.783   5.689  11.495 -0.3595 -0.1812  0.1411
 9366TIP3    H152293   2.696   5.728  11.496 -0.2277  0.1500  1.8478
 9366TIP3    H252294   2.771   5.601  11.529 -0.2118 -0.6585 -0.9759
 9367TIP3   OH252295   6.311   4.084  11.678 -0.4007  0.2193  0.3909
 9367TIP3    H152296   6.376   4.095  11.607 -0.1309 -1.7857  0.2826
 9367TIP3    H252297   6.362   4.052  11.752 -0.9375  0.8436  1.0500
 9368TIP3   OH252298   6.988   0.048  11.373  0.5777 -0.3873 -0.0936
 9368TIP3    H152299   6.893   0.048  11.384  0.5722  1.7748  0.3135
 9368TIP3    H252300   7.023   0.029  11.460  0.5091 -0.7002 -0.1360
 9369TIP3   OH252301   3.239   3.157  11.959 -0.1438 -0.4191 -0.4288
 9369TIP3    H152302   3.194   3.078  11.989  0.1176  0.0297  1.2244
 9369TIP3    H252303   3.265   3.137  11.869 -0.5399 -2.0063 -0.2126
 9370TIP3   OH252304   0.242   5.399  12.049 -0.6516 -0.6041  0.3445
 9370TIP3    H152305   0.161   5.347  12.040 -0.9475 -0.0711 -0.1732
 9370TIP3    H252306   0.273   5.380  12.137 -2.3884  0.6633  1.3026
 9371TIP3   OH252307   2.714   0.634  11.480 -0.1832  0.7059  0.1390
 9371TIP3    H152308   2.789   0.635  11.538 -1.1150 -1.0603  1.4771
 9371TIP3    H252309   2.673   0.720  11.491 -0.3541  0.4139  2.1646
 9372TIP3   OH252310   2.492   1.331  10.415  0.4464 -0.0629 -0.3340
 9372TIP3    H152311   2.441   1.262  10.457  0.6767 -1.4337 -2.1398
 9372TIP3    H252312   2.427   1.388  10.374  0.2768  0.2538  0.3737
 9373TIP3   OH252313   1.500   2.596  10.256 -0.1396  0.5649  0.1649
 9373TIP3    H152314   1.453   2.610  10.338  0.1266 -1.3710  0.6972
 9373TIP3    H252315   1.588   2.570  10.283  0.4925  1.5916 -0.7900
 9374TIP3   OH252316   3.815   0.808  12.103  0.2770  0.4167  0.2145
 9374TIP3    H152317   3.790   0.788  12.194 -0.0818  1.0201  0.2562
 9374TIP3    H252318   3.890   0.751  12.086 -0.7586 -1.0473  0.2806
 9375TIP3   OH252319   6.559   5.812  10.794 -0.0269  0.3556 -0.8339
 9375TIP3    H152320   6.551   5.882  10.858  3.3136  0.7019 -0.6386
 9375TIP3    H252321   6.560   5.732  10.846 -0.8377  0.3698 -0.7899
 9376TIP3   OH252322   3.857   7.085  12.185 -0.6336  0.0113  0.1577
 9376TIP3    H152323   3.936   7.031  12.180 -0.5921  0.1761 -2.4155
 9376TIP3    H252324   3.881   7.156  12.244  1.3129  0.2442 -0.8112
 9377TIP3   OH252325   2.265   6.335  10.396 -0.3451 -0.5941  0.0828
 9377TIP3    H152326   2.280   6.427  10.376  1.0620 -0.7856  0.1276
 9377TIP3    H252327   2.251   6.333  10.491 -0.5307 -0.4148  0.0594
 9378TIP3   OH252328   4.231   3.152  12.477  0.1725 -0.1847 -0.0028
 9378TIP3    H152329   4.299   3.117  12.419 -1.1374 -0.3642 -1.4887
 9378TIP3    H252330   4.213   3.081  12.538  0.1753 -0.7325 -0.6324
 9379TIP3   OH252331   1.183   3.681  11.681 -0.1708 -0.0751  0.3079
 9379TIP3    H152332   1.212   3.770  11.701 -2.7823  1.0874 -0.5980
 9379TIP3    H252333   1.175   3.639  11.766 -0.1587  0.9872  0.8573
 9380TIP3   OH252334   1.964   6.262  10.594 -0.1009 -0.2631  0.4688
 9380TIP3    H152335   1.954   6.222  10.680  0.6318  0.9895  1.1741
 9380TIP3    H252336   2.059   6.277  10.585  0.0886 -2.0649 -1.3748
 9381TIP3   OH252337   6.413   2.782  12.116 -0.3157 -0.0326 -0.0693
 9381TIP3    H152338   6.376   2.787  12.204 -2.1149 -3.0886 -0.4853
 9381TIP3    H252339   6.462   2.700  12.116  0.6630  0.5189 -1.5961
 9382TIP3   OH252340   2.475   5.919  11.152  0.2617 -0.1122  0.1401
 9382TIP3    H152341   2.562   5.883  11.169  1.6347  2.3213 -1.2370
 9382TIP3    H252342   2.472   6.000  11.204 -0.5499  0.6334 -1.0270
 9383TIP3   OH252343   2.686   4.803  11.996  0.5865 -0.3626 -0.0706
 9383TIP3    H152344   2.630   4.830  11.923  0.8854 -1.7524 -0.8497
 9383TIP3    H252345   2.760   4.759  11.955  0.4382 -1.7788  1.0764
 9384TIP3   OH252346   6.074   5.847  11.861 -0.5913 -0.0730  0.0874
 9384TIP3    H152347   6.168   5.861  11.849 -0.5403  0.6916  1.2188
 9384TIP3    H252348   6.060   5.859  11.955 -1.4414 -2.5021  0.3403
 9385TIP3   OH252349   1.261   2.408  12.784  0.3266  0.0143 -0.3371
 9385TIP3    H152350   1.215   2.492  12.788  0.3205  0.1181 -2.0115
 9385TIP3    H252351   1.192   2.342  12.796  0.0529  0.2209 -0.7429
 9386TIP3   OH252352   6.046   3.110  11.130  0.1994  0.6828 -0.3899
 9386TIP3    H152353   6.014   3.043  11.070 -1.4544  0.5798  0.5433
 9386TIP3    H252354   6.131   3.077  11.160 -0.3612 -0.7748 -0.3218
 9387TIP3   OH252355   2.711   7.457  10.302 -0.2311 -0.6396  0.6047
 9387TIP3    H152356   2.749   7.455  10.213 -0.2823  0.3492  0.5475
 9387TIP3    H252357   2.686   7.367  10.319  0.0946 -0.9081 -0.2585
 9388TIP3   OH252358   6.682   2.678  12.968 -0.0294 -0.0163 -0.0673
 9388TIP3    H152359   6.686   2.771  12.991  2.0586 -0.0490 -0.1055
 9388TIP3    H252360   6.718   2.633  13.044  0.4929 -0.6412 -0.6653
 9389TIP3   OH252361   6.968   5.894  11.974  0.2319 -0.9666  0.1095
 9389TIP3    H152362   6.899   5.954  12.004 -0.3169 -0.4613 -1.9695
 9389TIP3    H252363   7.047   5.924  12.018 -0.6366 -0.8495  1.6878
 9390TIP3   OH252364   5.597   5.472  12.422 -0.3140  0.4757  0.0446
 9390TIP3    H152365   5.634   5.502  12.505 -0.8096 -0.7474  0.7367
 9390TIP3    H252366   5.666   5.419  12.383 -0.9678 -1.0570  0.9066
 9391TIP3   OH252367   3.830   6.607  12.127  0.3096  0.0804  0.3658
 9391TIP3    H152368   3.827   6.692  12.083  1.1194  0.4834  1.0534
 9391TIP3    H252369   3.889   6.554  12.074  0.2735  0.1464  0.2598
 9392TIP3   OH252370   3.540   4.176  11.966 -1.3324  0.0294  0.1173
 9392TIP3    H152371   3.474   4.181  12.036 -0.5979  2.8985  0.7474
 9392TIP3    H252372   3.590   4.257  11.974  2.5446 -2.0924 -0.1566
 9393TIP3   OH252373   4.714   0.479  12.560  0.2678 -0.7579  0.4850
 9393TIP3    H152374   4.732   0.544  12.492  1.2211 -0.4868  0.9835
 9393TIP3    H252375   4.737   0.523  12.642  0.8910 -1.7174  0.8322
 9394TIP3   OH252376   2.636   2.079  12.025  0.2137  0.1932  0.2482
 9394TIP3    H152377   2.550   2.092  12.066  0.1398  1.2071 -0.2160
 9394TIP3    H252378   2.620   2.013  11.957  0.2318 -1.1220  1.4757
 9395TIP3   OH252379   3.375   6.643  11.353  0.3670  0.4464  0.1665
 9395TIP3    H152380   3.346   6.705  11.286  0.2218  0.4106  0.1955
 9395TIP3    H252381   3.301   6.638  11.414 -0.3555 -1.1212 -0.7833
 9396TIP3   OH252382   0.392   4.702  11.555  0.2612  0.2545 -0.4108
 9396TIP3    H152383   0.443   4.691  11.635 -1.2027  1.0563  0.6821
 9396TIP3    H252384   0.304   4.671  11.578 -0.1214  0.2402 -1.7986
 9397TIP3   OH252385   5.647   0.143  11.823  0.2235  0.0949 -0.2865
 9397TIP3    H152386   5.597   0.137  11.742  0.0526 -1.2577 -0.1016
 9397TIP3    H252387   5.588   0.112  11.891  1.5704 -2.6304 -0.2136
 9398TIP3   OH252388   3.240   5.107  12.413  0.0479 -0.1640  0.4769
 9398TIP3    H152389   3.170   5.059  12.370  0.3010  1.7314 -2.3311
 9398TIP3    H252390   3.197   5.183  12.452  0.4088  0.8905 -1.0710
 9399TIP3   OH252391   3.158   3.426  12.830  0.1187 -0.1892  0.5518
 9399TIP3    H152392   3.180   3.368  12.757  1.0898  0.5110  0.2757
 9399TIP3    H252393   3.224   3.495  12.827 -1.8979  1.8249 -0.0828
 9400TIP3   OH252394   4.173   5.190  11.361 -0.3620  0.3477  0.4304
 9400TIP3    H152395   4.094   5.140  11.340  0.5438 -0.7905 -0.5140
 9400TIP3    H252396   4.142   5.271  11.401 -2.0435  0.3938 -0.8641
 9401TIP3   OH252397   6.486   0.143  12.964  0.1784 -0.7900 -0.1174
 9401TIP3    H152398   6.391   0.147  12.968  0.0981 -0.1876 -1.7529
 9401TIP3    H252399   6.505   0.080  12.895  0.8599  1.1291 -1.8028
 9402TIP3   OH252400   6.358   6.855  11.973 -0.7724 -0.4720  0.2130
 9402TIP3    H152401   6.318   6.846  11.886 -0.5884 -0.6164  0.1428
 9402TIP3    H252402   6.452   6.845  11.958 -0.6488  0.5242  0.2879
 9403TIP3   OH252403   5.702   2.211  12.858 -0.2370  0.4540 -0.1721
 9403TIP3    H152404   5.690   2.262  12.938 -0.6897  0.4183 -0.2156
 9403TIP3    H252405   5.698   2.276  12.788  0.6630  0.5591 -0.1476
 9404TIP3   OH252406   6.230   6.142  12.364  0.2760  0.3998 -0.4670
 9404TIP3    H152407   6.150   6.156  12.314 -1.1453  1.2990  1.8806
 9404TIP3    H252408   6.248   6.227  12.404  2.4590  0.2191 -0.9433
 9405TIP3   OH252409   2.629   2.824  11.486  0.4630 -0.1143 -0.4632
 9405TIP3    H152410   2.569   2.759  11.449  0.8652 -0.8073  0.0691
 9405TIP3    H252411   2.712   2.809  11.441  0.5349  0.0913 -0.4012
 9406TIP3   OH252412   4.100   6.851  13.289  0.1043  0.2776  0.0352
 9406TIP3    H152413   4.031   6.889  13.344 -1.3711 -1.9593 -0.1607
 9406TIP3    H252414   4.102   6.759  13.313  3.5043  0.3430  0.4400
 9407TIP3   OH252415   0.605   3.663  11.910  0.3607  0.1658 -0.1790
 9407TIP3    H152416   0.600   3.755  11.935 -3.8004 -0.4818  2.4315
 9407TIP3    H252417   0.647   3.620  11.985  0.6070 -0.2852 -0.5656
 9408TIP3   OH252418   5.024   2.416  11.042  0.2869 -0.4281 -0.8556
 9408TIP3    H152419   4.936   2.392  11.072  0.1931 -0.9893 -1.5400
 9408TIP3    H252420   5.083   2.361  11.094  0.1861 -0.5928 -0.9139
 9409TIP3   OH252421   6.868   4.709  11.008  0.0337 -0.1884  0.4025
 9409TIP3    H152422   6.783   4.666  11.019 -0.4546  0.8382  0.7552
 9409TIP3    H252423   6.872   4.729  10.914 -0.5587  0.5979  0.5243
 9410TIP3   OH252424   1.994   4.053  11.131  0.0934  0.6241  0.2462
 9410TIP3    H152425   1.955   4.128  11.086 -0.9395  0.5200  0.9357
 9410TIP3    H252426   2.082   4.083  11.155 -0.0852  1.3949 -0.0257
 9411TIP3   OH252427   6.120   4.915  11.405  0.2739 -0.5448 -0.3942
 9411TIP3    H152428   6.073   4.984  11.358  1.3731  0.7088  0.2822
 9411TIP3    H252429   6.085   4.833  11.369 -1.2893  0.3416 -1.0023
 9412TIP3   OH252430   6.968   3.842  10.514 -0.7427  0.0403  0.4642
 9412TIP3    H152431   6.899   3.908  10.507 -0.5050  0.1949 -0.7710
 9412TIP3    H252432   7.040   3.886  10.559 -0.0464  1.1452 -1.5853
 9413TIP3   OH252433   1.236   1.374  10.483  0.1514 -0.5804 -0.2134
 9413TIP3    H152434   1.154   1.363  10.436 -0.6100  0.5718  0.7792
 9413TIP3    H252435   1.280   1.446  10.438 -0.7300  0.7478  0.9851
 9414TIP3   OH252436   3.771   1.767  10.725  0.0142 -0.0401  0.1552
 9414TIP3    H152437   3.692   1.822  10.722  0.0843  0.0398 -2.0283
 9414TIP3    H252438   3.778   1.731  10.636  2.3715 -0.1539  0.3367
 9415TIP3   OH252439   3.906   5.745  12.694 -0.3541  0.8173  0.1357
 9415TIP3    H152440   3.981   5.798  12.719 -1.2526  2.0662  0.2367
 9415TIP3    H252441   3.891   5.688  12.770  0.7311  0.2349 -0.0561
 9416TIP3   OH252442   4.147   2.580  10.670 -0.0123  0.4824  0.1868
 9416TIP3    H152443   4.190   2.632  10.603  1.0031  0.3720  0.7301
 9416TIP3    H252444   4.219   2.538  10.718 -0.7044  0.5646  1.3379
 9417TIP3   OH252445   6.823   1.993  11.593 -0.2314 -0.4552 -0.1735
 9417TIP3    H152446   6.872   1.998  11.511 -1.0925 -1.9847 -0.8381
 9417TIP3    H252447   6.760   2.065  11.588  1.7423  1.4164  0.6115
 9418TIP3   OH252448   2.341   6.104  10.256 -0.5601  0.5152 -0.6583
 9418TIP3    H152449   2.331   6.191  10.296  3.4391  0.8354  0.0844
 9418TIP3    H252450   2.376   6.122  10.169  1.8664 -0.2270  0.0821
 9419TIP3   OH252451   3.713   2.255  11.924 -0.1210  0.7485  0.6956
 9419TIP3    H152452   3.780   2.191  11.902 -0.6520  0.8902 -1.6285
 9419TIP3    H252453   3.649   2.206  11.976 -0.7285 -0.7680 -1.3735
 9420TIP3   OH252454   6.063   1.839  12.233 -0.0829 -0.1215 -0.7343
 9420TIP3    H152455   6.079   1.917  12.179  2.1691 -0.1780 -0.2396
 9420TIP3    H252456   6.108   1.769  12.188  0.5478 -0.4813  0.4266
 9421TIP3   OH252457   2.818   2.066  11.505  0.3293  0.0618 -0.1304
 9421TIP3    H152458   2.825   2.126  11.431 -0.3975  0.8432  0.4167
 9421TIP3    H252459   2.856   2.114  11.579  1.0095 -0.6913  0.0237
 9422TIP3   OH252460   7.555   0.200  11.819 -0.1875 -0.0467  0.0293
 9422TIP3    H152461   7.460   0.212  11.828  0.0008  1.3609  0.2870
 9422TIP3    H252462   7.565   0.105  11.806 -1.7143 -0.0824 -1.2647
 9423TIP3   OH252463   2.249   1.267  13.244 -0.0883 -0.5572  0.1019
 9423TIP3    H152464   2.240   1.186  13.193 -3.1400  0.6184 -1.4947
 9423TIP3    H252465   2.282   1.332  13.182  1.1421 -0.2359  1.0457
 9424TIP3   OH252466   0.778   5.243  12.903  0.0528 -0.6829  0.3630
 9424TIP3    H152467   0.797   5.298  12.827  0.5763 -1.9023 -0.4178
 9424TIP3    H252468   0.839   5.274  12.970 -0.1259  0.1289  0.1548
 9425TIP3   OH252469   3.995   6.829  10.734  0.2210 -0.1188 -0.4292
 9425TIP3    H152470   4.021   6.916  10.763 -1.4388 -0.1287  1.2931
 9425TIP3    H252471   4.077   6.784  10.712  1.0857  1.9074 -1.5542
 9426TIP3   OH252472   4.308   3.968  12.615 -0.1799  0.3080 -0.1252
 9426TIP3    H152473   4.363   4.022  12.557 -0.7006  1.1899  0.1909
 9426TIP3    H252474   4.336   3.991  12.703  0.8375 -1.2748  0.0085
 9427TIP3   OH252475   4.122   2.069  12.668  0.0412 -0.0309  0.4607
 9427TIP3    H152476   4.033   2.071  12.704 -0.4477 -0.9552 -0.6412
 9427TIP3    H252477   4.162   1.992  12.708 -0.3139 -0.7337 -0.5125
 9428TIP3   OH252478   2.846   0.779  11.180 -0.6902  0.2562 -0.3411
 9428TIP3    H152479   2.767   0.810  11.137 -1.4144 -0.9983  0.0502
 9428TIP3    H252480   2.817   0.706  11.235  0.5590  0.4501  0.6288
 9429TIP3   OH252481   2.020   0.787  10.890  0.1138 -0.5428  0.1520
 9429TIP3    H152482   1.950   0.802  10.827  2.0734  1.0970 -1.8146
 9429TIP3    H252483   2.055   0.875  10.909  1.0869 -1.2241  1.7425
 9430TIP3   OH252484   2.881   3.010  12.526 -0.1146  0.0468 -0.2641
 9430TIP3    H152485   2.976   2.999  12.520 -0.3016 -1.5557 -0.5844
 9430TIP3    H252486   2.845   2.923  12.511 -1.7361  0.9764 -2.4259
 9431TIP3   OH252487   1.847   1.483  10.700 -0.4759  0.4366 -0.3314
 9431TIP3    H152488   1.856   1.537  10.778 -0.9591  1.6923 -1.1002
 9431TIP3    H252489   1.754   1.462  10.695 -0.0599 -1.9292  0.8552
 9432TIP3   OH252490   3.076   5.759  12.669 -0.0311 -0.3338 -0.1321
 9432TIP3    H152491   3.112   5.848  12.668 -1.2003  0.1633  0.2591
 9432TIP3    H252492   3.023   5.755  12.749  1.1898 -1.8879  0.6608
 9433TIP3   OH252493   6.871   6.205  12.420 -0.0830  0.0111  0.3165
 9433TIP3    H152494   6.821   6.283  12.444  1.1464  0.2670  2.2786
 9433TIP3    H252495   6.807   6.147  12.380 -1.5464  1.0605  1.0340
 9434TIP3   OH252496   5.063   3.331  12.005  0.5350  0.2967  0.5219
 9434TIP3    H152497   5.040   3.395  11.938 -0.6633  0.4116  1.0279
 9434TIP3    H252498   5.009   3.355  12.080  1.7867  0.1091  1.5053
 9435TIP3   OH252499   6.041   3.841  11.858 -0.3267  0.2971 -0.8773
 9435TIP3    H152500   5.948   3.849  11.839 -0.9507  1.7601  2.1431
 9435TIP3    H252501   6.048   3.761  11.911  0.0788  0.3264 -0.8793
 9436TIP3   OH252502   6.158   2.036  11.824  0.2640  0.4547  0.2309
 9436TIP3    H152503   6.180   1.944  11.811 -1.0269  0.2648 -0.7956
 9436TIP3    H252504   6.065   2.042  11.802  0.0604  1.8043  1.3237
 9437TIP3   OH252505   1.263   3.150  13.027  0.8476 -0.1327 -0.1635
 9437TIP3    H152506   1.247   3.106  13.110  0.0099  0.6785  0.1157
 9437TIP3    H252507   1.177   3.160  12.987  1.3171 -1.2748 -1.5421
 9438TIP3   OH252508   2.855   2.216  12.165 -0.3876 -0.0449 -0.4835
 9438TIP3    H152509   2.790   2.274  12.204 -0.1080  0.4317 -0.7095
 9438TIP3    H252510   2.815   2.186  12.084 -0.2853  0.3307 -0.6739
 9439TIP3   OH252511   4.496   1.168  10.699 -0.0035 -0.1190 -0.2129
 9439TIP3    H152512   4.583   1.202  10.677  0.1040 -0.3010 -0.0624
 9439TIP3    H252513   4.511   1.080  10.733 -0.1264  0.2982  0.9775
 9440TIP3   OH252514   4.468   2.996  12.206 -0.1746  0.4183  0.3393
 9440TIP3    H152515   4.435   2.937  12.274 -2.6035 -1.1632 -2.0435
 9440TIP3    H252516   4.432   3.082  12.229 -1.0190 -0.1039  1.0244
 9441TIP3   OH252517   1.438   3.637  11.100 -0.4535 -0.1561 -0.5649
 9441TIP3    H152518   1.410   3.677  11.182  1.0273 -0.3757  0.0856
 9441TIP3    H252519   1.370   3.573  11.080  0.1152 -1.5406  1.5699
 9442TIP3   OH252520   3.671   5.836  10.872 -0.2215  0.2779  0.4213
 9442TIP3    H152521   3.716   5.912  10.909 -0.8585  0.8605  0.0181
 9442TIP3    H252522   3.603   5.873  10.816  0.3402 -0.5859 -0.8651
 9443TIP3   OH252523   2.550   6.407  12.749 -0.1302  0.2655  0.3087
 9443TIP3    H152524   2.563   6.319  12.786 -0.2488 -1.1716 -2.7740
 9443TIP3    H252525   2.456   6.413  12.734  0.1859 -0.5368 -2.5408
 9444TIP3   OH252526   4.460   5.007  12.484 -0.1602 -0.3083  0.3418
 9444TIP3    H152527   4.533   4.992  12.424 -1.6522 -1.2252 -1.3414
 9444TIP3    H252528   4.457   4.929  12.539 -0.5658 -0.7882 -0.3560
 9445TIP3   OH252529   2.617   6.187  11.515  0.1630 -0.2007 -0.0415
 9445TIP3    H152530   2.696   6.225  11.553  0.9756 -1.4483 -0.3920
 9445TIP3    H252531   2.600   6.238  11.436 -0.5128  1.2852  1.0253
 9446TIP3   OH252532   2.739   1.188  11.668  0.1257 -0.2320 -0.5933
 9446TIP3    H152533   2.746   1.274  11.710 -0.0292 -0.4278 -0.1600
 9446TIP3    H252534   2.813   1.185  11.607 -1.2344  1.1862 -2.4368
 9447TIP3   OH252535   5.561   3.723  11.936 -0.6349  0.9438 -0.2202
 9447TIP3    H152536   5.487   3.783  11.925 -1.0171  0.6856  0.8030
 9447TIP3    H252537   5.542   3.677  12.018  0.8464  1.1559  0.2652
 9448TIP3   OH252538   3.090   3.625  11.168  0.4298 -0.2752 -0.0401
 9448TIP3    H152539   3.015   3.685  11.160 -0.9612 -1.9798 -0.4470
 9448TIP3    H252540   3.057   3.555  11.225  1.4817 -1.4213 -0.8100
 9449TIP3   OH252541   6.662   2.028  12.095 -0.5607 -0.2730 -0.2577
 9449TIP3    H152542   6.740   2.002  12.045 -0.2508 -0.3991  0.2828
 9449TIP3    H252543   6.589   2.005  12.038 -0.2115 -0.3967 -0.6625
 9450TIP3   OH252544   5.956   1.061  11.062  0.7408  0.3121 -0.6715
 9450TIP3    H152545   5.910   1.145  11.063 -0.9357 -0.5404  1.3975
 9450TIP3    H252546   6.019   1.067  11.134 -1.2519 -1.0432  1.3388
 9451TIP3   OH252547   7.315   2.539  11.924  0.0156  0.3103  0.0177
 9451TIP3    H152548   7.394   2.486  11.924  1.0536  1.7409  1.7549
 9451TIP3    H252549   7.319   2.590  11.843  0.4166 -0.2549 -0.3174
 9452TIP3   OH252550   4.290   2.630  12.534  0.3576  0.1871  0.0084
 9452TIP3    H152551   4.206   2.591  12.507 -0.0506  0.4632  0.8558
 9452TIP3    H252552   4.353   2.599  12.469 -0.2837 -0.5382 -0.2743
 9453TIP3   OH252553   1.375   3.072  11.745  0.0921 -0.7087 -0.9469
 9453TIP3    H152554   1.330   2.990  11.765 -1.7654  0.6668  1.0088
 9453TIP3    H252555   1.319   3.114  11.680 -0.8295  0.4015  0.4889
 9454TIP3   OH252556   2.329   3.649  10.879  0.2739  0.0188  0.2563
 9454TIP3    H152557   2.381   3.703  10.819  1.6932 -0.3938  1.0841
 9454TIP3    H252558   2.285   3.586  10.822 -0.9793  1.6470 -0.6736
 9455TIP3   OH252559   7.349   6.727  13.006 -0.3196 -0.0154 -0.3738
 9455TIP3    H152560   7.389   6.678  13.078  0.7576  0.6235 -0.5178
 9455TIP3    H252561   7.359   6.670  12.930  0.1087  0.0345 -0.3594
 9456TIP3   OH252562   6.738   2.601  11.254 -0.6047 -1.0455  0.0933
 9456TIP3    H152563   6.764   2.689  11.281  0.1321 -1.0970 -0.4250
 9456TIP3    H252564   6.652   2.588  11.295 -0.3929 -0.3728  0.7792
 9457TIP3   OH252565   0.462   6.822  10.354  0.7129 -0.0116 -0.3781
 9457TIP3    H152566   0.486   6.773  10.432  0.4565  0.2165 -0.1524
 9457TIP3    H252567   0.368   6.807  10.344  0.7190  0.0660 -0.5647
 9458TIP3   OH252568   6.245   5.968  11.097  0.3425 -0.5279  0.3197
 9458TIP3    H152569   6.233   5.885  11.052  1.5014 -0.8631  0.5903
 9458TIP3    H252570   6.195   5.959  11.178  0.3169 -0.8987  0.2645
 9459TIP3   OH252571   3.877   4.673  11.822 -0.3050 -0.2970  0.0068
 9459TIP3    H152572   3.905   4.718  11.902 -1.3361  0.3949 -0.0006
 9459TIP3    H252573   3.799   4.721  11.793  0.8606  0.3911 -2.2268
 9460TIP3   OH252574   5.264   2.404  11.558  0.1366  0.2881 -0.7691
 9460TIP3    H152575   5.235   2.326  11.509 -2.3083  0.7487 -0.2058
 9460TIP3    H252576   5.260   2.475  11.495 -3.5188  0.9804  0.0020
 9461TIP3   OH252577   1.937   6.169  10.344  0.9665 -0.4624  0.0908
 9461TIP3    H152578   1.890   6.226  10.284  0.2574 -1.0893  0.0273
 9461TIP3    H252579   1.953   6.223  10.422 -0.0460 -0.2998  0.1910
 9462TIP3   OH252580   5.630   0.470  11.457 -0.0866  0.2069  0.3969
 9462TIP3    H152581   5.679   0.528  11.516  1.5787 -1.5741  0.8746
 9462TIP3    H252582   5.697   0.413  11.419 -1.6537 -1.6034  0.2021
 9463TIP3   OH252583   1.354   4.174  11.205  0.2108  0.2754 -0.0911
 9463TIP3    H152584   1.352   4.223  11.123 -0.6341 -0.4864 -0.5482
 9463TIP3    H252585   1.296   4.099  11.190  1.6280 -0.9851  0.5125
 9464TIP3   OH252586   3.409   0.186  12.347 -0.0151  0.0591 -0.0237
 9464TIP3    H152587   3.461   0.174  12.267  0.4707  1.7380  0.0058
 9464TIP3    H252588   3.475   0.193  12.417 -0.4434 -1.8382  0.6362
 9465TIP3   OH252589   2.662   4.172  13.476  0.2016 -0.1839  0.1524
 9465TIP3    H152590   2.744   4.190  13.522 -0.2335 -0.8204  1.2274
 9465TIP3    H252591   2.677   4.088  13.432  0.2962 -0.0412 -0.0909
 9466TIP3   OH252592   2.348   4.687  12.300 -0.1968 -0.1384  0.0287
 9466TIP3    H152593   2.310   4.745  12.366 -0.8351 -1.4742  0.8647
 9466TIP3    H252594   2.286   4.614  12.293  1.8242 -2.0656  0.9713
 9467TIP3   OH252595   0.346   1.364  11.664  0.1139 -0.3054 -0.6634
 9467TIP3    H152596   0.434   1.331  11.683  1.1297  2.1841 -0.6406
 9467TIP3    H252597   0.327   1.333  11.575  0.1108 -2.5475  0.0648
 9468TIP3   OH252598   4.731   7.021  12.868  0.0942 -0.3048  0.2907
 9468TIP3    H152599   4.780   6.951  12.826 -0.9680 -2.6686  2.7131
 9468TIP3    H252600   4.652   7.030  12.815  0.2987 -0.8344 -0.1117
 9469TIP3   OH252601   6.764   5.312  11.972  0.0851 -0.4901  0.1137
 9469TIP3    H152602   6.777   5.260  11.893  1.8204  0.8463 -0.5307
 9469TIP3    H252603   6.794   5.400  11.949  0.4682 -0.0195  2.1925
 9470TIP3   OH252604   1.624   2.229  11.124 -0.5652  0.0492  0.2380
 9470TIP3    H152605   1.562   2.221  11.051  0.5284  0.2881 -0.7567
 9470TIP3    H252606   1.569   2.243  11.201 -1.8090 -1.0844 -0.3925
 9471TIP3   OH252607   0.224   7.582  10.742  0.1304  0.4312 -0.2385
 9471TIP3    H152608   0.155   7.602  10.806  0.1939  0.0314 -0.0442
 9471TIP3    H252609   0.233   7.663  10.692 -0.3869  0.5331 -0.1789
 9472TIP3   OH252610   1.617   0.510  11.659 -0.2722  0.2143 -0.3726
 9472TIP3    H152611   1.574   0.428  11.636 -1.6744  0.6015  0.7566
 9472TIP3    H252612   1.693   0.483  11.710 -0.5265 -0.3956 -0.3074
 9473TIP3   OH252613   7.262   0.131  12.673 -0.1492 -0.1225 -0.6993
 9473TIP3    H152614   7.247   0.223  12.692  1.9179  0.0313  0.4725
 9473TIP3    H252615   7.285   0.129  12.580  0.8528  0.6951 -0.4779
 9474TIP3   OH252616   6.816   6.909  11.292 -0.1838  0.3242  0.2045
 9474TIP3    H152617   6.850   6.819  11.297 -2.1101 -0.5504 -1.1588
 9474TIP3    H252618   6.865   6.956  11.359  1.3668 -1.5752  0.5125
 9475TIP3   OH252619   7.412   3.256  11.959  0.2114  0.2527 -0.5858
 9475TIP3    H152620   7.466   3.188  11.998 -1.8800 -0.5480  1.1115
 9475TIP3    H252621   7.361   3.211  11.891 -2.3969 -0.4390  1.6382
 9476TIP3   OH252622   2.594   7.471  12.482  0.0695  0.2221 -0.9755
 9476TIP3    H152623   2.569   7.471  12.574  1.4040  0.6219 -0.6021
 9476TIP3    H252624   2.575   7.382  12.452  2.6732 -0.9291  0.5481
 9477TIP3   OH252625   4.193   5.933  12.412 -0.3547 -0.4767 -0.8333
 9477TIP3    H152626   4.207   5.869  12.482 -1.4433 -0.1402 -0.2871
 9477TIP3    H252627   4.215   5.886  12.331 -0.0740 -1.1831 -0.3534
 9478TIP3   OH252628   5.988   0.512  10.673 -0.4368 -0.2525 -0.2960
 9478TIP3    H152629   6.027   0.513  10.585 -0.2104 -0.0135 -0.1917
 9478TIP3    H252630   5.925   0.439  10.670  2.1036 -2.6630  0.4467
 9479TIP3   OH252631   0.494   3.962  11.617 -0.6997 -0.4613 -0.5763
 9479TIP3    H152632   0.585   3.959  11.589 -0.0653 -1.4929  1.3823
 9479TIP3    H252633   0.497   4.001  11.704 -2.0875 -0.8310 -0.3405
 9480TIP3   OH252634   2.650   3.081  11.567  0.2334 -0.4185  0.1468
 9480TIP3    H152635   2.745   3.081  11.561  0.1465 -0.6332 -2.0358
 9480TIP3    H252636   2.623   2.998  11.528 -0.9081  0.7834 -1.7681
 9481TIP3   OH252637   5.802   3.565  12.557  0.6783 -0.3100 -0.1514
 9481TIP3    H152638   5.764   3.545  12.642 -0.2702  1.8100  0.0047
 9481TIP3    H252639   5.727   3.575  12.498  1.0452  1.7032 -0.3707
 9482TIP3   OH252640   1.426   0.793  10.894 -0.0846  0.2288 -0.2381
 9482TIP3    H152641   1.476   0.789  10.975 -1.0316  0.6387  0.3822
 9482TIP3    H252642   1.414   0.702  10.868 -0.5474  0.0503  0.5759
 9483TIP3   OH252643   5.199   6.572  11.123  0.3388  0.7277 -0.0885
 9483TIP3    H152644   5.216   6.656  11.165  2.7627 -0.5358  1.7731
 9483TIP3    H252645   5.103   6.566  11.118  0.0125  2.3826  2.3824
 9484TIP3   OH252646   7.183   3.647  10.444 -0.3005  0.2877  0.1916
 9484TIP3    H152647   7.111   3.709  10.448 -0.3458  0.3734 -1.3138
 9484TIP3    H252648   7.257   3.698  10.410 -0.1669 -0.3049 -0.4513
 9485TIP3   OH252649   0.210   0.285  11.454  0.3313 -0.5010  0.7410
 9485TIP3    H152650   0.169   0.303  11.539 -2.9028 -1.3670 -0.5155
 9485TIP3    H252651   0.166   0.344  11.393  1.8694 -0.6204 -0.5659
 9486TIP3   OH252652   2.240   4.171  11.198  0.0489  0.4568 -0.5844
 9486TIP3    H152653   2.314   4.131  11.153 -0.0668 -2.0231  1.2234
 9486TIP3    H252654   2.279   4.229  11.263  0.4593 -1.1136  0.6028
 9487TIP3   OH252655   3.103   5.688  11.621 -0.2975  0.8298  0.4870
 9487TIP3    H152656   3.084   5.680  11.527  1.2386 -0.9921  0.2627
 9487TIP3    H252657   3.127   5.779  11.633 -2.7792  1.6732 -0.3948
 9488TIP3   OH252658   5.166   1.602  12.437 -0.1562 -0.0496  0.5259
 9488TIP3    H152659   5.162   1.696  12.423 -0.5510 -0.0923  0.3337
 9488TIP3    H252660   5.179   1.592  12.531 -2.0794  0.1745  0.8540
 9489TIP3   OH252661   3.895   5.748  11.883 -0.3201 -0.8839  0.5624
 9489TIP3    H152662   3.952   5.757  11.960  1.6255  0.8664 -0.9814
 9489TIP3    H252663   3.831   5.818  11.892  1.4740  1.0021 -0.5913
 9490TIP3   OH252664   4.394   3.638  13.202  0.1096  0.4802 -0.6065
 9490TIP3    H152665   4.372   3.571  13.267  0.8708 -0.4381 -1.2711
 9490TIP3    H252666   4.322   3.700  13.207 -0.2491  0.0063  0.5460
 9491TIP3   OH252667   3.305   6.348  11.633 -0.5518 -0.6682  0.7826
 9491TIP3    H152668   3.382   6.295  11.653 -0.4394 -1.1280 -0.7821
 9491TIP3    H252669   3.320   6.380  11.544 -0.9468  1.4299  1.4085
 9492TIP3   OH252670   5.706   3.469  11.558  0.7527  0.7901  0.1850
 9492TIP3    H152671   5.616   3.437  11.563  0.8823  0.5990  2.2354
 9492TIP3    H252672   5.708   3.523  11.479 -0.5556 -0.9279 -1.1101
 9493TIP3   OH252673   0.638   6.547  12.340  0.3398 -0.0268 -0.0463
 9493TIP3    H152674   0.640   6.628  12.391  1.8226  0.0620 -0.2085
 9493TIP3    H252675   0.557   6.503  12.368 -0.1239  1.1700  0.5575
 9494TIP3   OH252676   3.626   0.451  12.049  0.4777  0.1002  0.0685
 9494TIP3    H152677   3.686   0.477  11.979 -1.1465  3.3196 -0.3158
 9494TIP3    H252678   3.577   0.377  12.011  1.8710 -0.3843 -0.8689
 9495TIP3   OH252679   5.769   1.804  11.848  0.2986 -0.5375 -0.3081
 9495TIP3    H152680   5.817   1.885  11.833 -1.5652  0.3987 -1.5575
 9495TIP3    H252681   5.814   1.763  11.923  1.6693  1.3052 -0.0556
 9496TIP3   OH252682   1.695   5.399  11.577 -0.3137 -0.1324 -0.3859
 9496TIP3    H152683   1.730   5.355  11.500  1.4623 -0.4063  0.5254
 9496TIP3    H252684   1.680   5.329  11.640  0.3919  0.3081  0.2877
 9497TIP3   OH252685   7.216   1.474  10.979 -0.4091  0.0342 -0.0762
 9497TIP3    H152686   7.138   1.483  10.924 -0.6410  1.9309  0.4850
 9497TIP3    H252687   7.188   1.419  11.052 -0.7547 -0.6085 -0.6838
 9498TIP3   OH252688   6.291   5.190  13.311 -0.3103  0.2176  0.6353
 9498TIP3    H152689   6.318   5.102  13.286 -2.5064 -0.9067  1.8759
 9498TIP3    H252690   6.208   5.204  13.266 -0.3153  1.3988  0.9697
 9499TIP3   OH252691   7.479   2.316  11.968 -0.1616 -0.0154 -0.1285
 9499TIP3    H152692   7.572   2.335  11.953 -0.0564 -0.2950  0.1448
 9499TIP3    H252693   7.457   2.366  12.047  0.3533 -1.6766  1.1333
 9500TIP3   OH252694   1.588   0.083  12.428  0.2036 -0.1517 -0.0755
 9500TIP3    H152695   1.628   0.167  12.407  0.9330 -0.3605  0.4210
 9500TIP3    H252696   1.652   0.041  12.486 -0.6615 -0.5773  0.5789
 9501TIP3   OH252697   0.196   1.164  12.569 -0.2742  0.1244  0.1006
 9501TIP3    H152698   0.233   1.144  12.483 -1.2635 -0.1850 -0.2758
 9501TIP3    H252699   0.191   1.080  12.613  0.3383  0.3014  0.5065
 9502TIP3   OH252700   0.356   5.326  12.295  0.1961 -0.3776  0.2264
 9502TIP3    H152701   0.298   5.346  12.369  0.3965  0.8989  0.0590
 9502TIP3    H252702   0.423   5.270  12.331 -0.6183 -1.1108  0.6404
 9503TIP3   OH252703   7.167   6.000  11.552 -0.2446 -0.4350 -0.2344
 9503TIP3    H152704   7.147   6.033  11.464 -0.8188  2.2733  0.7917
 9503TIP3    H252705   7.081   5.980  11.590 -0.3505  1.5200  0.7250
 9504TIP3   OH252706   2.516   3.042  11.954  0.1712 -0.2223 -0.5189
 9504TIP3    H152707   2.576   2.974  11.983  0.8082  0.6940  0.3722
 9504TIP3    H252708   2.571   3.108  11.912 -0.3175  0.1797 -0.5500
 9505TIP3   OH252709   7.137   0.545  11.940 -0.0216  0.0789 -0.3691
 9505TIP3    H152710   7.188   0.469  11.964 -1.2160 -0.7411 -0.3184
 9505TIP3    H252711   7.056   0.509  11.903 -1.2792  1.2998  1.0715
 9506TIP3   OH252712   4.839   5.596  12.722  0.5134  0.1434 -0.0468
 9506TIP3    H152713   4.813   5.618  12.812 -1.4242  1.3817 -0.8413
 9506TIP3    H252714   4.900   5.523  12.732  1.7254  1.3526  2.3620
 9507TIP3   OH252715   0.108   7.289  12.438 -0.2225  0.0724  0.0446
 9507TIP3    H152716   0.133   7.207  12.396 -0.3685  0.4901 -0.8796
 9507TIP3    H252717   0.191   7.334  12.454 -0.0956 -0.4981  1.1013
 9508TIP3   OH252718   7.158   6.522  11.435  0.1259  0.2857 -0.3666
 9508TIP3    H152719   7.219   6.557  11.371  1.0368 -1.6385 -0.6072
 9508TIP3    H252720   7.209   6.514  11.516 -0.5092  0.9529  0.1200
 9509TIP3   OH252721   6.881   5.914  12.643 -0.6142  0.3320  0.4800
 9509TIP3    H152722   6.879   5.848  12.713  0.0923 -0.2405 -0.0177
 9509TIP3    H252723   6.811   5.975  12.665 -1.5668 -0.8105  0.7456
 9510TIP3   OH252724   1.191   3.789  12.098 -0.0728 -0.7185 -0.5997
 9510TIP3    H152725   1.195   3.709  12.047 -0.5035 -0.1871 -1.4984
 9510TIP3    H252726   1.112   3.779  12.152  1.0966 -1.8462  0.9801
 9511TIP3   OH252727   1.951   2.332  10.489  0.3827 -0.1218 -0.2970
 9511TIP3    H152728   1.953   2.340  10.585  0.5096  0.1403 -0.3203
 9511TIP3    H252729   2.032   2.287  10.467  0.2935 -0.2968 -0.2718
 9512TIP3   OH252730   2.082   0.166  11.968 -0.2681 -0.6780  0.0390
 9512TIP3    H152731   2.071   0.072  11.956 -2.4529 -0.6035  0.9971
 9512TIP3    H252732   2.000   0.195  12.009  0.0814  1.7471 -0.7907
 9513TIP3   OH252733   3.047   6.143  12.445 -0.2481 -0.0423 -0.1291
 9513TIP3    H152734   3.100   6.213  12.406 -1.5226  0.1956 -1.5263
 9513TIP3    H252735   2.958   6.161  12.416 -1.4053  0.2920  3.1481
 9514TIP3   OH252736   4.091   1.158  12.597 -0.4874  0.1679  0.0600
 9514TIP3    H152737   4.083   1.077  12.647  1.8982 -1.8179 -2.4337
 9514TIP3    H252738   4.071   1.132  12.507 -1.0790  2.7279 -0.6220
 9515TIP3   OH252739   6.687   7.223  12.064 -0.1622  0.1043 -0.1633
 9515TIP3    H152740   6.753   7.186  12.005 -1.7568 -0.0554 -1.9602
 9515TIP3    H252741   6.711   7.316  12.071  0.0551  0.1340 -1.1135
 9516TIP3   OH252742   1.710   3.125  12.613  0.4638 -0.0308  0.0952
 9516TIP3    H152743   1.772   3.104  12.544 -0.2200 -0.4927 -0.3860
 9516TIP3    H252744   1.624   3.109  12.575  0.0443  0.3947  0.8203
 9517TIP3   OH252745   4.278   6.216  12.696  0.4668 -0.2734  0.0638
 9517TIP3    H152746   4.289   6.228  12.602  3.5428  2.1918  0.5460
 9517TIP3    H252747   4.316   6.130  12.714 -2.1592 -1.7820 -1.0810
 9518TIP3   OH252748   7.276   6.321  11.215  0.4035  0.5508 -0.2796
 9518TIP3    H152749   7.223   6.386  11.261 -1.0025 -0.4886 -0.3643
 9518TIP3    H252750   7.350   6.305  11.273  0.8231  2.2472 -0.2815
 9519TIP3   OH252751   4.432   4.359  12.182 -0.7026  0.4097  0.2240
 9519TIP3    H152752   4.438   4.454  12.194 -1.0535  0.4658 -0.0306
 9519TIP3    H252753   4.517   4.326  12.213  0.0460  0.9591 -1.1565
 9520TIP3   OH252754   3.878   4.034  12.479  0.1595 -0.4427  0.3066
 9520TIP3    H152755   3.850   4.100  12.415 -0.3809 -0.3606  0.6242
 9520TIP3    H252756   3.831   3.955  12.453  0.7954 -0.7056 -0.0642
 9521TIP3   OH252757   3.042   2.631  10.795  0.0047 -0.5603  0.2760
 9521TIP3    H152758   3.129   2.663  10.818  0.5554 -0.8047 -1.3828
 9521TIP3    H252759   3.055   2.577  10.717 -1.6468 -0.5604 -0.0419
 9522TIP3   OH252760   0.186   5.973  11.444 -0.4246 -0.1870 -0.1600
 9522TIP3    H152761   0.129   6.048  11.423 -0.5422  0.0703  1.0250
 9522TIP3    H252762   0.232   6.000  11.523  0.4630 -0.8848 -0.4251
 9523TIP3   OH252763   2.158   3.027  12.577 -0.0064 -0.4424 -0.7631
 9523TIP3    H152764   2.074   3.015  12.534 -0.2228  0.0151 -0.4756
 9523TIP3    H252765   2.164   3.122  12.591  0.1767 -0.5607 -0.0233
 9524TIP3   OH252766   4.615   1.969  11.074 -0.2789 -0.0395 -0.7217
 9524TIP3    H152767   4.587   1.879  11.091 -1.4674  0.2511 -1.0831
 9524TIP3    H252768   4.560   1.999  11.001  0.4384  0.8214 -0.9332
 9525TIP3   OH252769   2.062   1.104  11.672 -0.4136 -0.6007 -0.2204
 9525TIP3    H152770   1.990   1.057  11.630 -0.2342  0.3566 -1.6669
 9525TIP3    H252771   2.019   1.170  11.727 -0.6907  0.4907 -1.6862
 9526TIP3   OH252772   2.616   4.881  12.870 -0.3567  0.1618 -0.3808
 9526TIP3    H152773   2.676   4.852  12.938  0.4450 -0.4806 -1.3487
 9526TIP3    H252774   2.669   4.935  12.812 -0.8057 -0.0727 -1.0229
 9527TIP3   OH252775   4.069   6.596  13.381  0.2994  0.3969 -0.1971
 9527TIP3    H152776   3.997   6.535  13.371 -0.8634  1.3409  1.7426
 9527TIP3    H252777   4.144   6.541  13.405 -1.0435 -0.3065  2.9715
 9528TIP3   OH252778   2.499   5.546  10.834  0.8988  0.2963  0.1748
 9528TIP3    H152779   2.480   5.635  10.864 -0.2236  0.1896 -0.1695
 9528TIP3    H252780   2.543   5.558  10.750  1.4250  0.5375  0.4812
 9529TIP3   OH252781   0.204   1.526  11.333 -0.3864 -0.2628  0.0488
 9529TIP3    H152782   0.179   1.614  11.304  0.5014 -0.1481 -0.4063
 9529TIP3    H252783   0.299   1.523  11.319  0.1241 -0.2151  2.9099
 9530TIP3   OH252784   1.226   5.278  10.788 -0.1911 -0.4211  0.5243
 9530TIP3    H152785   1.160   5.216  10.820 -0.2717 -0.8530 -0.4588
 9530TIP3    H252786   1.233   5.342  10.859  0.1513 -1.7251  1.7251
 9531TIP3   OH252787   3.500   2.310  10.278  0.1740 -0.2146  0.1476
 9531TIP3    H152788   3.576   2.280  10.229 -0.1531 -0.4671 -0.2152
 9531TIP3    H252789   3.525   2.396  10.311  1.5109 -1.2888  2.0922
 9532TIP3   OH252790   6.597   5.604  13.145  0.5106 -0.1974 -0.3672
 9532TIP3    H152791   6.540   5.533  13.176 -0.6338  1.3245  1.1786
 9532TIP3    H252792   6.673   5.601  13.203  0.6008 -0.3377 -0.4922
 9533TIP3   OH252793   5.575   6.026  12.467  0.3011 -0.1781 -0.4053
 9533TIP3    H152794   5.579   6.111  12.424  0.6426 -0.6031 -1.2471
 9533TIP3    H252795   5.481   6.005  12.469  0.3145 -0.3799 -1.4269
 9534TIP3   OH252796   4.591   7.363  11.544  0.1461 -0.0042  0.5148
 9534TIP3    H152797   4.657   7.303  11.508  0.6308 -0.0286  1.3930
 9534TIP3    H252798   4.508   7.316  11.534 -0.2083  1.1142 -3.0672
 9535TIP3   OH252799   1.947   0.037  12.340  0.3245  0.0651  0.0705
 9535TIP3    H152800   2.036   0.008  12.318  1.3633  2.1784  1.2001
 9535TIP3    H252801   1.947   0.044  12.435  0.3299  3.8785 -0.0579
 9536TIP3   OH252802   1.249   3.774  13.004  0.5741  0.2101 -0.4963
 9536TIP3    H152803   1.166   3.808  13.039  0.6689  0.7113 -0.7463
 9536TIP3    H252804   1.250   3.682  13.031  0.4414  0.4698  0.4360
 9537TIP3   OH252805   3.539   7.513  13.107 -0.6689  0.3986 -0.1075
 9537TIP3    H152806   3.522   7.595  13.062  1.6441  1.1562  0.2721
 9537TIP3    H252807   3.629   7.521  13.139 -0.3550 -2.2964 -0.0805
 9538TIP3   OH252808   5.752   6.075  10.816  0.1405 -0.1901  0.0484
 9538TIP3    H152809   5.776   6.130  10.742  1.7350  0.7124  1.1830
 9538TIP3    H252810   5.738   6.136  10.888  1.3188 -1.1678  1.1644
 9539TIP3   OH252811   2.177   5.840  11.329 -0.2718  0.4267  0.1301
 9539TIP3    H152812   2.088   5.818  11.301 -0.4376 -1.7282  2.0156
 9539TIP3    H252813   2.234   5.784  11.276 -0.1804  0.3728  0.2853
 9540TIP3   OH252814   4.877   7.293  12.521 -0.4764 -0.1400  0.0123
 9540TIP3    H152815   4.803   7.233  12.513 -1.1583  0.5045  1.2421
 9540TIP3    H252816   4.943   7.243  12.568  0.1066 -0.8889 -1.5248
 9541TIP3   OH252817   5.550   5.893  11.470 -0.1054 -0.0799  0.0901
 9541TIP3    H152818   5.594   5.977  11.481  0.0483 -0.3111  1.3103
 9541TIP3    H252819   5.457   5.915  11.469 -0.1224  0.0107  1.5641
 9542TIP3   OH252820   6.311   3.451  11.121 -0.1506  0.0148 -0.4903
 9542TIP3    H152821   6.265   3.399  11.055  0.5671 -0.2143 -0.8197
 9542TIP3    H252822   6.259   3.439  11.201  0.3327 -1.7411 -0.3882
 9543TIP3   OH252823   1.459   6.091  11.862 -0.5684 -0.4225 -0.2286
 9543TIP3    H152824   1.512   6.108  11.783 -0.4973 -1.7022 -0.4728
 9543TIP3    H252825   1.374   6.063  11.828 -0.7830 -0.2440  0.1597
 9544TIP3   OH252826   1.282   1.043  10.972  0.0582  0.1049 -0.0633
 9544TIP3    H152827   1.193   1.015  10.949  0.7391 -0.3026 -2.4841
 9544TIP3    H252828   1.339   0.979  10.930  1.5398  1.4571 -0.1929
 9545TIP3   OH252829   2.721   5.191  10.912  0.8060  0.5268  0.0333
 9545TIP3    H152830   2.811   5.220  10.897  0.3690  0.7856 -2.4420
 9545TIP3    H252831   2.727   5.095  10.915  1.2688  0.5728  0.8470
 9546TIP3   OH252832   1.123   3.958  10.745 -0.4043  0.1230 -0.3538
 9546TIP3    H152833   1.046   3.932  10.794  0.6057  1.2406  1.9858
 9546TIP3    H252834   1.195   3.908  10.784  0.5152  1.3887 -0.3446
 9547TIP3   OH252835   6.636   4.424  12.066  0.0383 -0.6876 -0.5704
 9547TIP3    H152836   6.673   4.374  11.994  1.6407 -1.3555  0.6441
 9547TIP3    H252837   6.605   4.358  12.128 -2.5748 -0.1363 -1.1702
 9548TIP3   OH252838   5.514   3.608  12.511  0.1356  0.3494 -0.2265
 9548TIP3    H152839   5.429   3.567  12.528  1.0773 -1.3385  0.5825
 9548TIP3    H252840   5.524   3.672  12.582  0.4647 -0.9678  0.9551
 9549TIP3   OH252841   3.393   1.352  11.270  0.2017 -0.0925  0.3217
 9549TIP3    H152842   3.423   1.398  11.192 -0.0980 -0.4957 -0.0342
 9549TIP3    H252843   3.461   1.286  11.286 -0.1592 -0.5790 -0.1081
 9550TIP3   OH252844   0.325   6.536  11.418  0.5163 -0.0539  0.2660
 9550TIP3    H152845   0.295   6.623  11.391  2.0140 -0.0161 -1.4472
 9550TIP3    H252846   0.308   6.532  11.512 -1.7041  1.1895 -0.0193
 9551TIP3   OH252847   2.341   2.893  11.034  0.7176 -0.6685 -0.0633
 9551TIP3    H152848   2.247   2.894  11.015  0.1035 -3.4326  2.1868
 9551TIP3    H252849   2.350   2.949  11.111  0.9921 -0.1579 -0.4599
 9552TIP3   OH252850   3.339   5.153  11.340  0.4804  0.0645  0.0424
 9552TIP3    H152851   3.254   5.186  11.371 -0.1762 -1.0016 -0.5632
 9552TIP3    H252852   3.403   5.191  11.401 -0.5077  0.2272  1.0171
 9553TIP3   OH252853   5.664   5.232  11.771  0.3760  0.3030  0.0519
 9553TIP3    H152854   5.621   5.292  11.831  0.7711  1.3794 -0.7215
 9553TIP3    H252855   5.752   5.269  11.758 -0.6999  2.0193 -3.7206
 9554TIP3   OH252856   0.684   0.640  12.104 -0.5379  0.3931 -0.1966
 9554TIP3    H152857   0.747   0.568  12.104 -0.2796  0.5503  2.0255
 9554TIP3    H252858   0.738   0.719  12.108 -0.8523  0.6354 -0.6803
 9555TIP3   OH252859   0.513   6.887  12.852 -0.2009  0.1401 -0.3130
 9555TIP3    H152860   0.528   6.841  12.935 -2.2677  0.5054  0.3161
 9555TIP3    H252861   0.559   6.970  12.862  1.3447 -0.6787 -0.4094
 9556TIP3   OH252862   5.728   1.681  11.604  0.4985 -0.4050  0.4727
 9556TIP3    H152863   5.642   1.643  11.627 -1.1706  3.0156  0.5099
 9556TIP3    H252864   5.756   1.725  11.684  3.1143 -2.6035  0.8997
 9557TIP3   OH252865   1.809   4.962  12.662 -0.5314 -0.7630  0.8039
 9557TIP3    H152866   1.898   4.997  12.665 -0.6403 -0.4921  0.9269
 9557TIP3    H252867   1.820   4.867  12.666 -0.2918 -0.7021  1.8700
 9558TIP3   OH252868   2.185   3.625  13.171  0.2986  0.3436 -0.1884
 9558TIP3    H152869   2.208   3.533  13.163  0.6078  0.3902  0.1452
 9558TIP3    H252870   2.118   3.628  13.239 -1.2548  0.1235 -1.6515
 9559TIP3   OH252871   2.079   6.359  11.236 -0.2589 -0.0568  0.0710
 9559TIP3    H152872   2.034   6.420  11.294 -0.2093 -0.6432  0.7562
 9559TIP3    H252873   2.022   6.350  11.160 -1.1129 -0.4659  0.7381
 9560TIP3   OH252874   7.132   2.603  12.389  0.0208  0.5102  0.3920
 9560TIP3    H152875   7.145   2.513  12.416 -0.6356  0.7608  1.5915
 9560TIP3    H252876   7.134   2.600  12.293 -1.3722 -0.9965  0.3790
 9561TIP3   OH252877   0.823   0.887  11.132 -0.3110  0.4517 -0.6625
 9561TIP3    H152878   0.777   0.960  11.090  0.1118  1.8172  1.1294
 9561TIP3    H252879   0.756   0.845  11.187 -0.1922  0.4499 -0.5174
 9562TIP3   OH252880   4.597   6.274  11.273  0.1083 -0.5090  0.4737
 9562TIP3    H152881   4.574   6.322  11.193 -0.9842 -1.3407  0.2664
 9562TIP3    H252882   4.529   6.298  11.335 -0.3328 -1.6055  0.4348
 9563TIP3   OH252883   4.192   6.644  10.680 -0.0122  0.1260  0.7632
 9563TIP3    H152884   4.272   6.612  10.638  0.6526  1.2475  1.1423
 9563TIP3    H252885   4.144   6.564  10.704  1.2813 -0.5838  1.0874
 9564TIP3   OH252886   7.575   1.955  11.311 -0.0303 -0.2086 -0.1672
 9564TIP3    H152887   7.506   1.912  11.261 -0.8781 -0.0855  0.8513
 9564TIP3    H252888   7.601   1.890  11.377 -1.0110  0.6224  1.0997
 9565TIP3   OH252889   1.419   4.605  11.968 -0.3308  0.2807 -0.0193
 9565TIP3    H152890   1.447   4.522  12.007 -0.2150  1.0354  1.5487
 9565TIP3    H252891   1.326   4.593  11.949 -0.4556  0.0025  0.7675
 9566TIP3   OH252892   7.506   4.138  11.832  0.1781 -0.3939  0.0032
 9566TIP3    H152893   7.487   4.084  11.909 -0.6271 -0.9106 -0.5469
 9566TIP3    H252894   7.587   4.101  11.795 -0.6555 -1.5854 -0.6752
 9567TIP3   OH252895   1.645   6.592  11.776 -0.0279  0.3961  0.6781
 9567TIP3    H152896   1.600   6.623  11.854 -1.2689  1.1068 -0.2813
 9567TIP3    H252897   1.590   6.520  11.744  0.8344 -0.3392  0.8206
 9568TIP3   OH252898   7.116   3.933  10.735 -0.1016  0.0241 -0.2137
 9568TIP3    H152899   7.091   3.985  10.811  0.0185  0.5927 -0.5617
 9568TIP3    H252900   7.181   3.871  10.768  1.5988  1.6844 -0.2751
 9569TIP3   OH252901   3.057   3.875  12.600  0.8872  0.4961 -0.1488
 9569TIP3    H152902   3.043   3.908  12.512 -0.5097  0.7663  0.1570
 9569TIP3    H252903   2.984   3.815  12.615  0.8525  0.8067  0.9919
 9570TIP3   OH252904   2.786   1.412  12.037  0.0793 -0.0341 -0.0384
 9570TIP3    H152905   2.799   1.317  12.046  0.8750  0.0676 -0.0433
 9570TIP3    H252906   2.799   1.428  11.944 -0.7505 -0.0138 -0.1577
 9571TIP3   OH252907   7.046   5.095  11.113  0.2871  0.3541 -0.1766
 9571TIP3    H152908   6.988   5.125  11.044  0.1889 -0.4517 -0.4523
 9571TIP3    H252909   7.034   5.159  11.184  1.0232  1.6662 -1.1981
 9572TIP3   OH252910   4.431   6.527  10.611  0.2284  0.0924  0.3451
 9572TIP3    H152911   4.421   6.432  10.615 -1.9456  0.2019 -1.1118
 9572TIP3    H252912   4.508   6.541  10.555  0.2903 -0.7919  0.1942
 9573TIP3   OH252913   4.755   3.422  11.920  0.0526 -0.4068  0.2525
 9573TIP3    H152914   4.810   3.456  11.850 -0.6392  0.0439 -0.0767
 9573TIP3    H252915   4.763   3.327  11.913 -0.1848 -0.3729 -0.5832
 9574TIP3   OH252916   3.067   0.476  10.682  0.1081  0.0550  0.2255
 9574TIP3    H152917   2.999   0.535  10.651  0.0000 -0.1819  0.0093
 9574TIP3    H252918   3.091   0.510  10.768  1.7892  1.9203 -0.8728
 9575TIP3   OH252919   3.580   5.429  12.265 -0.1810 -0.7489 -0.6986
 9575TIP3    H152920   3.646   5.423  12.197 -0.5874  2.6910 -1.5706
 9575TIP3    H252921   3.509   5.479  12.225 -1.0839  0.0995  1.7951
 9576TIP3   OH252922   2.938   3.282  13.813  0.3963  0.3806 -0.9846
 9576TIP3    H152923   2.960   3.254  13.724  1.0350  1.3280 -1.1428
 9576TIP3    H252924   3.017   3.265  13.864 -0.5126 -1.7633 -0.1721
 9577TIP3   OH252925   5.102   2.752  12.894  0.5297 -0.1498  0.2548
 9577TIP3    H152926   5.098   2.659  12.872  1.7875 -0.3565  0.8261
 9577TIP3    H252927   5.052   2.760  12.975  1.4943 -0.5713  0.9048
 9578TIP3   OH252928   4.399   5.117  11.243 -0.3086 -0.3860  0.1188
 9578TIP3    H152929   4.318   5.148  11.283  1.5008  3.3634  1.3243
 9578TIP3    H252930   4.431   5.050  11.304 -1.9544 -1.2119  0.1265
 9579TIP3   OH252931   5.928   5.953  11.374  0.5469 -0.3286 -0.1758
 9579TIP3    H152932   5.899   5.949  11.283  1.6059  4.0190 -0.8842
 9579TIP3    H252933   6.019   5.979  11.369  0.7651 -0.4835  2.1656
 9580TIP3   OH252934   3.765   2.374  10.478  0.1807  0.2075 -0.2621
 9580TIP3    H152935   3.767   2.304  10.543  1.9201  0.2800 -0.1964
 9580TIP3    H252936   3.820   2.342  10.406  0.5302  1.2457 -0.4767
 9581TIP3   OH252937   4.814   1.794  12.262  0.3603 -0.1400  0.4576
 9581TIP3    H152938   4.801   1.756  12.349 -2.0641 -0.5229  0.0011
 9581TIP3    H252939   4.846   1.882  12.278 -0.3982 -0.0875  1.7696
 9582TIP3   OH252940   2.186   3.918  10.660  0.5157  0.5591  0.5721
 9582TIP3    H152941   2.279   3.927  10.682  0.7463 -1.2557  0.4980
 9582TIP3    H252942   2.186   3.891  10.568 -0.0063 -0.5667  0.8834
 9583TIP3   OH252943   2.862   2.699  11.372 -0.1161 -0.0582  0.5401
 9583TIP3    H152944   2.913   2.738  11.301 -0.1375  0.7217  0.9493
 9583TIP3    H252945   2.796   2.645  11.327  1.6115 -1.8330  0.0180
 9584TIP3   OH252946   4.053   2.704  11.779  0.0491 -0.1910  0.4695
 9584TIP3    H152947   4.048   2.752  11.861  0.4882 -0.4200  0.6341
 9584TIP3    H252948   4.024   2.615  11.801  0.0006 -0.2092  0.3373
 9585TIP3   OH252949   4.059   2.925  10.842  0.4833  0.0277 -0.4773
 9585TIP3    H152950   4.072   3.013  10.876  0.1741 -0.4041  0.7983
 9585TIP3    H252951   3.999   2.937  10.768 -0.4520  0.7729  0.3713
 9586TIP3   OH252952   0.530   0.942  12.692  0.4860  0.1311 -0.0923
 9586TIP3    H152953   0.580   0.915  12.616  0.9247  2.2768 -0.6262
 9586TIP3    H252954   0.594   0.981  12.751 -0.0119 -0.5273  0.9225
 9587TIP3   OH252955   2.993   4.108  11.625  0.0685 -0.4104 -0.3512
 9587TIP3    H152956   3.018   4.071  11.540 -0.4326  0.6790 -0.9826
 9587TIP3    H252957   2.908   4.149  11.610 -0.3694 -0.8358  0.8635
 9588TIP3   OH252958   2.731   5.934  10.787  0.1029  0.0563  0.2310
 9588TIP3    H152959   2.639   5.920  10.764  0.0659  2.3410 -1.3239
 9588TIP3    H252960   2.728   5.975  10.873 -0.4311  1.1802 -0.3039
 9589TIP3   OH252961   2.409   0.333  10.565  0.1542  0.2160  0.2416
 9589TIP3    H152962   2.352   0.315  10.491  0.8479  1.4887 -0.6362
 9589TIP3    H252963   2.428   0.247  10.602 -2.0726 -0.2666  0.4020
 9590TIP3   OH252964   1.178   6.186  11.366  0.5866 -0.2984  0.1630
 9590TIP3    H152965   1.201   6.135  11.289  0.2685 -0.3679  0.1138
 9590TIP3    H252966   1.097   6.231  11.342  1.7667  1.6348 -0.4547
 9591TIP3   OH252967   5.584   1.983  13.147  0.3425  0.3536 -0.1382
 9591TIP3    H152968   5.493   1.958  13.164  0.7725 -0.7468  0.6501
 9591TIP3    H252969   5.583   2.079  13.152 -0.2231  0.3159  3.1938
 9592TIP3   OH252970   5.629   1.355  12.235 -0.8744 -0.1928  0.0367
 9592TIP3    H152971   5.600   1.265  12.250  1.1314 -0.8059  0.4656
 9592TIP3    H252972   5.688   1.375  12.308  1.7237  0.0678 -1.9821
 9593TIP3   OH252973   3.677   3.759  12.060 -0.0397  0.0669 -0.0636
 9593TIP3    H152974   3.758   3.750  12.111 -1.2237 -0.1797  1.8693
 9593TIP3    H252975   3.621   3.816  12.113 -1.7534 -1.0910 -0.5375
 9594TIP3   OH252976   0.868   5.707  10.147  0.1173 -0.4124 -0.1797
 9594TIP3    H152977   0.867   5.775  10.215  0.4589  0.2068 -0.7917
 9594TIP3    H252978   0.911   5.632  10.190 -0.8472 -0.4863  0.7107
 9595TIP3   OH252979   5.861   5.676  11.054  0.3051 -0.4033 -0.0423
 9595TIP3    H152980   5.853   5.634  11.139 -1.1419 -1.2712 -0.5694
 9595TIP3    H252981   5.867   5.770  11.074  0.8116 -0.6455  1.0285
 9596TIP3   OH252982   7.590   4.600  10.550 -0.3539  0.2423 -0.5684
 9596TIP3    H152983   7.538   4.674  10.582 -1.7925  0.7429 -3.6837
 9596TIP3    H252984   7.672   4.639  10.522 -0.8001  0.5546 -1.4692
 9597TIP3   OH252985   5.890   6.885  12.160  0.3015 -0.7169  0.3769
 9597TIP3    H152986   5.960   6.882  12.226  0.2948 -0.6739  0.3856
 9597TIP3    H252987   5.906   6.807  12.106  1.7535  0.5028 -1.0465
 9598TIP3   OH252988   5.193   0.592  10.840  0.7586 -0.8560 -0.4134
 9598TIP3    H152989   5.262   0.545  10.885  1.1899 -2.0632 -2.2030
 9598TIP3    H252990   5.155   0.528  10.780 -2.2760 -0.3929  0.8157
 9599TIP3   OH252991   3.818   3.786  12.332  0.3441 -0.1146 -0.4046
 9599TIP3    H152992   3.876   3.720  12.369  0.2467 -1.0364 -1.8402
 9599TIP3    H252993   3.735   3.774  12.380  0.6620 -0.2718  0.1134
 9600TIP3   OH252994   1.607   2.626  11.168  0.1063 -0.0866 -0.1125
 9600TIP3    H152995   1.640   2.619  11.078  1.1020 -2.2587  0.3704
 9600TIP3    H252996   1.572   2.715  11.173  1.2193  0.5450 -2.2468
 9601TIP3   OH252997   1.122   3.280  11.271  0.0887 -0.4378 -0.5285
 9601TIP3    H152998   1.089   3.250  11.355  0.7917  0.6070  0.1406
 9601TIP3    H252999   1.171   3.205  11.236  0.9495 -0.4358  0.6292
 9602TIP3   OH253000   0.754   7.516  12.197 -0.5524 -0.5747 -0.2061
 9602TIP3    H153001   0.842   7.479  12.206  0.8517  2.6915  0.8745
 9602TIP3    H253002   0.719   7.518  12.286 -0.7097  0.2943 -0.2742
 9603TIP3   OH253003   5.937   0.330  12.075  0.4719 -0.0373 -0.4205
 9603TIP3    H153004   5.898   0.332  12.162  0.2439 -2.7204 -0.3549
 9603TIP3    H253005   5.865   0.350  12.015  0.4585  1.0751 -0.0510
 9604TIP3   OH253006   5.426   6.163  11.686 -0.2029 -0.0637  0.5237
 9604TIP3    H153007   5.365   6.157  11.613  2.0007  2.2518 -1.7209
 9604TIP3    H253008   5.454   6.255  11.686  2.8886 -0.8731  1.6562
 9605TIP3   OH253009   4.157   6.744  12.499  0.5864 -0.4910 -0.0901
 9605TIP3    H153010   4.185   6.744  12.590  2.6957  2.0598 -0.5996
 9605TIP3    H253011   4.221   6.688  12.454 -0.1879 -1.3884 -0.0992
 9606TIP3   OH253012   6.788   1.493  10.598 -0.0260  0.0945 -0.1043
 9606TIP3    H153013   6.735   1.566  10.566  0.0254  0.1761 -0.0028
 9606TIP3    H253014   6.725   1.424  10.617 -0.0071 -0.1933 -1.0155
 9607TIP3   OH253015   0.454   2.059  12.646  0.2864  0.2237 -0.2926
 9607TIP3    H153016   0.453   2.117  12.723  1.3317  0.1919 -0.2503
 9607TIP3    H253017   0.459   1.971  12.683  0.1313  0.1728 -0.3909
 9608TIP3   OH253018   7.305   2.954  11.873 -0.4519  0.0666  0.1585
 9608TIP3    H153019   7.268   3.039  11.848 -0.2219  0.4235  0.9957
 9608TIP3    H253020   7.367   2.934  11.803 -1.4922 -0.0770 -0.7600
 9609TIP3   OH253021   1.758   4.703  12.281 -0.2031  0.3996 -0.9463
 9609TIP3    H153022   1.793   4.790  12.300  0.0122  0.0418  0.3283
 9609TIP3    H253023   1.663   4.715  12.280 -0.3657  0.1438  2.1651
 9610TIP3   OH253024   0.515   7.534  11.259  0.6597  0.1534 -0.3136
 9610TIP3    H153025   0.498   7.557  11.351  1.0777  1.5969 -0.5834
 9610TIP3    H253026   0.562   7.451  11.265  1.4150  0.6314  0.8335
 9611TIP3   OH253027   7.312   4.759  11.321  0.5401  0.5630  0.2470
 9611TIP3    H153028   7.364   4.688  11.282  0.8418  0.4504  0.8450
 9611TIP3    H253029   7.254   4.788  11.250 -0.5892 -1.2164  0.3893
 9612TIP3   OH253030   7.537   2.745  11.929 -0.2675 -0.0387  0.1390
 9612TIP3    H153031   7.600   2.815  11.944  0.4418 -1.0858  2.6419
 9612TIP3    H253032   7.511   2.717  12.017 -1.0552 -2.4366 -0.7718
 9613TIP3   OH253033   2.174   6.826  11.835  0.3585  0.3636  0.0188
 9613TIP3    H153034   2.138   6.847  11.749 -1.6167  1.6711  1.0784
 9613TIP3    H253035   2.109   6.767  11.874 -0.1700  1.8930  1.5690
 9614TIP3   OH253036   2.216   5.249  10.941  0.3846 -0.2078  0.1850
 9614TIP3    H153037   2.238   5.325  10.888 -1.5707  0.1811 -0.1327
 9614TIP3    H253038   2.231   5.277  11.031  1.7453 -0.1856 -0.0349
 9615TIP3   OH253039   2.585   1.235  12.800  0.7111 -0.1302 -0.2986
 9615TIP3    H153040   2.628   1.174  12.740  1.2238  1.4620 -1.6347
 9615TIP3    H253041   2.653   1.260  12.862  0.9170  0.2158 -0.6636
 9616TIP3   OH253042   4.153   7.046  10.827  0.5874  0.4320  0.2734
 9616TIP3    H153043   4.101   7.059  10.906  1.8430 -0.9890  1.3951
 9616TIP3    H253044   4.230   7.102  10.840  0.5238  0.6360 -0.2233
 9617TIP3   OH253045   5.375   7.085  11.203 -0.6678 -0.1745 -0.4204
 9617TIP3    H153046   5.463   7.047  11.213 -1.0187 -0.9848 -0.3856
 9617TIP3    H253047   5.340   7.089  11.292  0.1476  2.1864 -0.1413
 9618TIP3   OH253048   2.691   7.440  11.821 -0.1877 -0.4297  0.3064
 9618TIP3    H153049   2.658   7.522  11.857  0.5979  0.3154 -0.6232
 9618TIP3    H253050   2.617   7.379  11.828 -0.8796  0.4430  0.7098
 9619TIP3   OH253051   7.106   6.020  12.838  0.7263  0.1707  0.1251
 9619TIP3    H153052   7.181   5.984  12.791  0.5042 -0.2347  0.0744
 9619TIP3    H253053   7.074   5.947  12.891  0.9624  0.6128  0.8920
 9620TIP3   OH253054   2.151   5.500  13.431 -0.1355 -0.3934  0.2308
 9620TIP3    H153055   2.213   5.433  13.401  1.2531  1.9344 -2.5030
 9620TIP3    H253056   2.100   5.456  13.499  2.0157 -3.5776 -0.0102
 9621TIP3   OH253057   0.166   7.261  13.191  0.4441  0.2465 -0.0375
 9621TIP3    H153058   0.073   7.280  13.187  0.3407 -0.3197 -0.5546
 9621TIP3    H253059   0.200   7.318  13.260 -0.5599 -0.6815  1.2721
 9622TIP3   OH253060   4.645   3.838  11.255  0.1540 -0.3448  0.2201
 9622TIP3    H153061   4.629   3.832  11.349  2.3395 -0.6561  0.6229
 9622TIP3    H253062   4.741   3.837  11.247  0.0107 -0.8273 -2.0350
 9623TIP3   OH253063   5.529   4.698  11.808  0.3224 -0.3882  0.2094
 9623TIP3    H153064   5.465   4.709  11.738  0.9313 -1.3726 -0.5148
 9623TIP3    H253065   5.613   4.691  11.763  0.7640 -0.6781  1.0563
 9624TIP3   OH253066   7.479   0.736  11.931  0.5266 -0.6359  0.4556
 9624TIP3    H153067   7.555   0.693  11.969  0.6943  1.2154  2.4658
 9624TIP3    H253068   7.512   0.782  11.854  1.3511 -0.3162  0.9872
 9625TIP3   OH253069   1.821   2.834  12.024  0.8003 -0.9652 -0.2336
 9625TIP3    H153070   1.825   2.903  12.090  0.5565 -0.7465 -0.4439
 9625TIP3    H253071   1.727   2.817  12.013  0.8033 -0.4919 -1.0422
 9626TIP3   OH253072   0.201   7.646  11.496 -0.2259 -0.2786  0.2151
 9626TIP3    H153073   0.116   7.688  11.485  0.2590  0.9950  1.0858
 9626TIP3    H253074   0.238   7.687  11.575  1.7828  0.2181 -0.9184
 9627TIP3   OH253075   7.389   5.184  10.866  0.0681  0.3324 -0.4374
 9627TIP3    H153076   7.357   5.210  10.780 -0.8102  0.5646 -0.0533
 9627TIP3    H253077   7.379   5.089  10.868  0.2362  0.3102 -0.6478
 9628TIP3   OH253078   4.490   2.056  12.134  0.4051 -0.6372 -0.4091
 9628TIP3    H153079   4.456   1.970  12.109 -1.2173  0.1364 -0.9830
 9628TIP3    H253080   4.585   2.047  12.126  0.1524 -1.4665 -3.5143
 9629TIP3   OH253081   5.386   6.266  11.033  0.0901  0.1358 -0.1353
 9629TIP3    H153082   5.369   6.204  11.105  2.4640  0.0960  0.4678
 9629TIP3    H253083   5.384   6.211  10.954 -0.9811 -0.1005  0.0324
 9630TIP3   OH253084   4.030   6.796  11.723 -0.3794 -0.8280 -0.0736
 9630TIP3    H153085   4.031   6.789  11.819 -2.0223  0.3289  0.0698
 9630TIP3    H253086   4.037   6.890  11.706  2.9375 -1.1787 -1.2370
 9631TIP3   OH253087   3.395   6.462  10.327  0.7112 -0.3518  0.0810
 9631TIP3    H153088   3.489   6.448  10.314  0.5037 -0.6176 -1.2078
 9631TIP3    H253089   3.381   6.554  10.305  0.1625 -1.0821 -3.0533
 9632TIP3   OH253090   1.670   3.845  11.920 -0.0100  0.2704 -0.3322
 9632TIP3    H153091   1.751   3.873  11.878 -0.0003  0.7566 -0.0001
 9632TIP3    H253092   1.662   3.752  11.898 -0.0162  0.5140 -1.4145
 9633TIP3   OH253093   0.180   3.449  11.661 -0.0685 -0.3047 -0.0334
 9633TIP3    H153094   0.164   3.543  11.655 -0.9446 -0.4842 -0.6085
 9633TIP3    H253095   0.171   3.417  11.571 -0.6195 -1.0691  0.2807
 9634TIP3   OH253096   5.501   3.439  12.311  0.3703 -0.4609  0.0819
 9634TIP3    H153097   5.520   3.493  12.388 -0.2835  0.2321 -0.2311
 9634TIP3    H253098   5.587   3.418  12.275  0.6811  2.8242 -1.4687
 9635TIP3   OH253099   0.790   2.124  11.087 -0.2907  0.2334 -0.2351
 9635TIP3    H153100   0.824   2.149  11.001  1.4919 -0.5504  0.1878
 9635TIP3    H253101   0.808   2.200  11.143  0.2921  0.0298 -0.1388
 9636TIP3   OH253102   1.775   5.445  12.670 -0.5919  0.2500  1.0311
 9636TIP3    H153103   1.734   5.370  12.713 -1.5255  0.0359 -0.1696
 9636TIP3    H253104   1.725   5.456  12.589  1.7236 -0.0170 -0.5348
 9637TIP3   OH253105   1.225   4.071  12.332 -0.0861  0.7263 -0.3374
 9637TIP3    H153106   1.270   4.106  12.255  0.4632  0.1961 -0.2660
 9637TIP3    H253107   1.264   4.117  12.406 -1.7533  2.4352 -0.4568
 9638TIP3   OH253108   4.201   3.796  11.089  0.1630  0.4353  0.0486
 9638TIP3    H153109   4.229   3.798  10.998  0.2295 -0.4896  0.0391
 9638TIP3    H253110   4.132   3.729  11.091 -0.6482  1.2586  0.4579
 9639TIP3   OH253111   7.573   7.035  11.984 -0.1812 -0.3641  0.3680
 9639TIP3    H153112   7.528   7.098  11.927 -1.2475  1.1498  2.6951
 9639TIP3    H253113   7.509   6.965  11.996  0.3546 -1.0947 -0.8728
 9640TIP3   OH253114   4.992   5.229  10.604  0.2544  0.4290 -0.2218
 9640TIP3    H153115   5.022   5.141  10.626  0.9423  0.5000 -0.8252
 9640TIP3    H253116   4.918   5.244  10.661  0.9679 -0.0182  0.8579
 9641TIP3   OH253117   4.034   7.413  12.914 -0.0752 -0.4056  0.2052
 9641TIP3    H153118   4.086   7.350  12.864  0.0568 -0.3113  0.2223
 9641TIP3    H253119   4.036   7.379  13.004  1.5169  0.5773  0.5728
 9642TIP3   OH253120   4.880   4.024  12.029  0.2660  0.4351 -0.0484
 9642TIP3    H153121   4.792   3.996  12.003 -0.0268  0.8424  0.4668
 9642TIP3    H253122   4.904   4.089  11.963 -0.8549  2.1554  1.1411
 9643TIP3   OH253123   1.864   0.187  12.828 -0.0810 -0.1368  0.6150
 9643TIP3    H153124   1.856   0.269  12.779 -0.6498  0.3346  1.4590
 9643TIP3    H253125   1.927   0.207  12.897 -0.3035 -0.3631  0.8873
 9644TIP3   OH253126   0.206   5.663  12.157  0.3091 -0.2337  0.4703
 9644TIP3    H153127   0.226   5.599  12.089 -0.5724  0.1657 -0.1736
 9644TIP3    H253128   0.136   5.624  12.208  0.8891 -0.4819  1.0880
 9645TIP3   OH253129   0.753   2.609  11.375  0.1906 -0.0274 -0.0483
 9645TIP3    H153130   0.705   2.667  11.316 -0.2610 -0.5041 -0.1548
 9645TIP3    H253131   0.697   2.603  11.453 -1.0158 -2.2699 -0.9843
 9646TIP3   OH253132   2.119   2.249  12.945 -0.8109  0.3455  0.0594
 9646TIP3    H153133   2.202   2.248  12.992 -1.0280  2.5056  0.5874
 9646TIP3    H253134   2.053   2.268  13.012 -1.6393 -0.4480 -0.5009
 9647TIP3   OH253135   3.801   7.656  10.918 -0.1558 -0.2254  0.4830
 9647TIP3    H153136   3.799   7.703  10.834  0.0991 -1.7731 -0.4355
 9647TIP3    H253137   3.843   7.717  10.978 -1.9293  1.6120 -0.0388
 9648TIP3   OH253138   2.200   5.706  10.635  0.2453 -0.0516  0.5632
 9648TIP3    H153139   2.193   5.801  10.630 -0.8744 -0.1230  0.5896
 9648TIP3    H253140   2.156   5.675  10.556 -2.0297 -0.6213  1.9632
 9649TIP3   OH253141   3.233   4.787  12.484 -0.0183 -0.2245  0.4003
 9649TIP3    H153142   3.140   4.788  12.460 -0.2646 -0.3503  1.3072
 9649TIP3    H253143   3.278   4.818  12.405 -0.8317 -0.0704 -0.0232
 9650TIP3   OH253144   0.644   5.666  12.367  0.0403  0.2326  0.0439
 9650TIP3    H153145   0.677   5.646  12.280 -1.9871 -1.3239 -0.4506
 9650TIP3    H253146   0.554   5.696  12.353 -0.4621 -0.4075  1.6006
 9651TIP3   OH253147   0.868   1.428  12.744  0.4648 -0.2399 -0.9708
 9651TIP3    H153148   0.852   1.465  12.831 -1.9417 -1.4532 -0.8136
 9651TIP3    H253149   0.922   1.351  12.760 -1.6060 -1.6384 -0.1954
 9652TIP3   OH253150   0.245   5.131  11.567  0.2022 -0.0476  0.2150
 9652TIP3    H153151   0.272   5.130  11.658  1.2728 -1.0724 -0.0828
 9652TIP3    H253152   0.256   5.221  11.538 -2.0426  0.7590  1.5954
 9653TIP3   OH253153   7.246   5.950  11.238 -0.1992  0.3533  0.1891
 9653TIP3    H153154   7.247   5.989  11.151  0.2342  0.4413  0.2314
 9653TIP3    H253155   7.328   5.977  11.278 -0.3630  0.2542  0.6017
 9654TIP3   OH253156   2.728   4.996  11.647 -0.0026 -0.3891 -0.0901
 9654TIP3    H153157   2.664   4.931  11.677 -1.1496  0.5506 -0.4287
 9654TIP3    H253158   2.689   5.080  11.670  1.9986  0.1990  1.4618
 9655TIP3   OH253159   5.183   7.033  10.977 -0.3952 -0.2016 -0.3203
 9655TIP3    H153160   5.233   7.054  11.055  0.4503 -0.0330 -0.8903
 9655TIP3    H253161   5.165   7.118  10.936 -1.9793 -0.1762  0.3528
 9656TIP3   OH253162   0.965   3.287  12.188 -0.1512 -0.1008  0.3783
 9656TIP3    H153163   0.943   3.322  12.102  1.6744 -0.2318 -0.1988
 9656TIP3    H253164   0.883   3.254  12.223 -1.4137  2.1930 -0.2369
 9657TIP3   OH253165   0.505   2.685  12.250  0.6685  0.0976 -0.1828
 9657TIP3    H153166   0.481   2.644  12.168  0.3956  0.4760 -0.2975
 9657TIP3    H253167   0.597   2.664  12.262  0.7868  0.2850 -0.7376
 9658TIP3   OH253168   5.411   2.916  11.994  0.4940  0.1027  0.0208
 9658TIP3    H153169   5.362   2.996  11.976 -0.8649 -0.8998 -0.8783
 9658TIP3    H253170   5.346   2.855  12.027  1.8447 -0.0864  2.6074
 9659TIP3   OH253171   7.576   7.594  11.522 -0.4133 -0.1365 -0.0534
 9659TIP3    H153172   7.487   7.621  11.500 -0.7380 -0.7992  0.4228
 9659TIP3    H253173   7.577   7.593  11.617  0.0998 -0.1603 -0.0597
 9660TIP3   OH253174   4.945   4.505  12.533 -0.3562  0.4087 -0.1946
 9660TIP3    H153175   4.947   4.473  12.443  0.1258 -1.2306  0.3563
 9660TIP3    H253176   5.037   4.516  12.556 -0.4800  0.8524  0.0940
 9661TIP3   OH253177   4.407   3.261  10.929  0.0044  0.1769 -0.0901
 9661TIP3    H153178   4.327   3.311  10.944 -0.1202  0.1626 -0.7083
 9661TIP3    H253179   4.385   3.172  10.957  0.7603  0.7623  2.7272
 9662TIP3   OH253180   7.659   6.726  12.476  0.5576  0.4146 -0.0150
 9662TIP3    H153181   7.704   6.807  12.499  0.1857  0.2918  1.1958
 9662TIP3    H253182   7.725   6.675  12.428  0.8297  1.3676 -0.6795
 9663TIP3   OH253183   6.623   0.887  12.122  0.4103  0.1944 -0.6204
 9663TIP3    H153184   6.679   0.820  12.083 -0.7669 -1.3141  0.1907
 9663TIP3    H253185   6.682   0.935  12.181  0.8266 -1.6124  0.5250
 9664TIP3   OH253186   0.253   5.126  12.509  0.0739 -0.0048 -0.6354
 9664TIP3    H153187   0.164   5.091  12.518  0.4079 -0.8349 -0.3992
 9664TIP3    H253188   0.279   5.149  12.599 -0.5004  1.8048 -0.9098
 9665TIP3   OH253189   2.550   6.000  11.874 -0.1158  0.3902  0.9075
 9665TIP3    H153190   2.623   5.970  11.928 -0.9246 -1.6102  0.9971
 9665TIP3    H253191   2.491   6.045  11.935 -1.0265 -1.8485  1.8130
 9666TIP3   OH253192   5.478   2.160  11.894 -0.3187  0.0162 -0.3153
 9666TIP3    H153193   5.496   2.206  11.812  1.2514  0.9958  0.5160
 9666TIP3    H253194   5.540   2.198  11.957 -2.0671 -0.0543  1.5770
 9667TIP3   OH253195   6.486   3.175  12.969 -0.3716 -0.1999  0.0280
 9667TIP3    H153196   6.426   3.157  12.897  1.2255  1.7316 -1.9217
 9667TIP3    H253197   6.573   3.163  12.931  0.5237 -1.0685  2.2287
 9668TIP3   OH253198   4.682   4.102  12.572 -0.0864  0.4818 -0.3277
 9668TIP3    H153199   4.744   4.093  12.645 -1.0505  0.6638  0.5297
 9668TIP3    H253200   4.724   4.055  12.500  0.1403 -1.1388  0.8019
 9669TIP3   OH253201   2.223   7.517  11.324 -0.8663 -0.0435 -0.3770
 9669TIP3    H153202   2.151   7.531  11.386  0.7791  1.2423  1.3884
 9669TIP3    H253203   2.301   7.515  11.379  0.4161 -2.1311 -2.1490
 9670TIP3   OH253204   4.282   7.591  10.768  0.2963  0.4432 -0.1608
 9670TIP3    H153205   4.271   7.671  10.819 -0.8832  0.1558  0.0681
 9670TIP3    H253206   4.372   7.563  10.787  1.2256  2.4010 -1.2976
 9671TIP3   OH253207   1.047   0.270  12.120  0.1984 -0.1582 -0.0262
 9671TIP3    H153208   1.018   0.181  12.101  2.1447 -0.7953 -0.2529
 9671TIP3    H253209   1.073   0.305  12.035  1.1152 -0.0314  0.2947
 9672TIP3   OH253210   6.288   7.147  11.735 -0.1984 -0.0490 -0.6198
 9672TIP3    H153211   6.225   7.202  11.781 -0.5706 -0.3100 -0.8108
 9672TIP3    H253212   6.361   7.205  11.714 -0.5801  0.3656 -0.8048
 9673TIP3   OH253213   3.776   6.363  12.237  0.0009  0.3168 -0.0703
 9673TIP3    H153214   3.746   6.311  12.162 -0.0631  0.8381 -0.4072
 9673TIP3    H253215   3.776   6.453  12.206 -0.8042  0.6377  0.7957
 9674TIP3   OH253216   0.109   1.005  11.619 -0.1301  0.4104 -0.2038
 9674TIP3    H153217   0.119   1.021  11.525  1.0428  2.6528  0.2446
 9674TIP3    H253218   0.097   1.092  11.657 -1.9931 -0.5653  1.6132
 9675TIP3   OH253219   6.624   6.531  12.045 -0.3692  0.1472 -0.3859
 9675TIP3    H153220   6.673   6.478  11.982 -0.2106  0.4165 -0.4896
 9675TIP3    H253221   6.598   6.469  12.113  0.5555  0.0858 -0.0699
 9676TIP3   OH253222   2.750   4.685  11.567  0.2046 -0.6437 -0.2856
 9676TIP3    H153223   2.819   4.750  11.553 -0.7627  0.8331  1.2580
 9676TIP3    H253224   2.670   4.728  11.536 -0.7174 -0.3506  2.2240
 9677TIP3   OH253225   1.583   7.659  13.116 -0.6940 -0.6370  0.1016
 9677TIP3    H153226   1.509   7.629  13.169 -1.7316  0.4605 -0.6819
 9677TIP3    H253227   1.650   7.685  13.180 -0.4491 -2.8049  0.8168
 9678TIP3   OH253228   2.906   0.856  11.471 -0.0438  0.1004 -0.1487
 9678TIP3    H153229   2.897   0.856  11.376  1.7873 -0.8126 -0.3570
 9678TIP3    H253230   2.942   0.942  11.492 -2.2997  1.0965 -0.0079
 9679TIP3   OH253231   1.699   6.879  12.119 -0.0742  0.7086  0.0176
 9679TIP3    H153232   1.716   6.785  12.118  0.6196  0.7197  2.8170
 9679TIP3    H253233   1.786   6.919  12.119 -0.3620  1.3776 -1.1000
 9680TIP3   OH253234   3.033   6.893  10.690 -0.0461  0.1729  0.6995
 9680TIP3    H153235   3.056   6.919  10.601 -0.7638 -0.7530  0.2343
 9680TIP3    H253236   3.050   6.799  10.694  2.4852  0.5964  2.3536
 9681TIP3   OH253237   0.322   0.102  12.838 -0.1101  0.4171 -0.3246
 9681TIP3    H153238   0.274   0.147  12.907 -0.3079 -1.3589  0.7698
 9681TIP3    H253239   0.258   0.044  12.797  0.1082  1.1308 -1.7680
 9682TIP3   OH253240   1.472   7.563  11.482  0.0033 -0.3175 -0.2991
 9682TIP3    H153241   1.447   7.655  11.473 -0.3394 -0.4311 -0.4855
 9682TIP3    H253242   1.563   7.560  11.451  0.8254  0.3953  1.8690
 9683TIP3   OH253243   7.322   0.720  11.428 -0.4549 -0.1544  0.3178
 9683TIP3    H153244   7.294   0.702  11.338 -0.9298 -0.4539  0.5196
 9683TIP3    H253245   7.278   0.802  11.450  0.2358  0.2972  0.0333
 9684TIP3   OH253246   5.751   3.244  11.001  0.0165 -0.4831  0.3730
 9684TIP3    H153247   5.719   3.183  10.934 -0.7417 -0.2470  0.5109
 9684TIP3    H253248   5.689   3.235  11.073  0.5884 -0.4204  0.8717
 9685TIP3   OH253249   5.142   5.867  10.895  0.2128  0.1912 -0.6665
 9685TIP3    H153250   5.084   5.855  10.969  1.1220  1.2896  0.2722
 9685TIP3    H253251   5.141   5.783  10.849  0.6977 -0.9934  1.3695
 9686TIP3   OH253252   5.748   3.645  11.348 -0.1362 -0.3284  0.0747
 9686TIP3    H153253   5.725   3.727  11.390  1.7294 -0.8924  2.4689
 9686TIP3    H253254   5.796   3.671  11.269 -0.1329  0.8811  0.4550
 9687TIP3   OH253255   1.864   4.925  12.387 -0.1618  0.0479  0.3335
 9687TIP3    H153256   1.913   5.007  12.375 -0.1340 -0.2078 -1.5654
 9687TIP3    H253257   1.833   4.929  12.477  0.2546  1.9216  0.4370
 9688TIP3   OH253258   5.190   1.929  12.437 -0.0020  0.2114 -0.5776
 9688TIP3    H153259   5.282   1.956  12.444 -0.2443  0.9388 -0.1414
 9688TIP3    H253260   5.159   1.970  12.356  0.0811 -0.1250 -0.7834
 9689TIP3   OH253261   3.160   2.899  12.522  0.1556  0.4955 -0.1252
 9689TIP3    H153262   3.161   2.960  12.449 -2.5575 -0.3487 -1.0130
 9689TIP3    H253263   3.246   2.857  12.520  1.1787  2.5063 -0.9984
 9690TIP3   OH253264   6.946   0.869  11.945 -0.3475 -0.3878 -1.1896
 9690TIP3    H153265   7.034   0.831  11.936 -0.0109  0.1740 -0.4428
 9690TIP3    H253266   6.951   0.921  12.025 -1.0216  0.5952 -1.7689
 9691TIP3   OH253267   2.335   4.423  11.263  0.4519  0.3726  0.5957
 9691TIP3    H153268   2.379   4.470  11.192 -1.9299  0.0129 -1.2439
 9691TIP3    H253269   2.301   4.492  11.320  1.3446  0.7012  0.7448
 9692TIP3   OH253270   3.433   6.014  11.036  0.0600 -1.0870  0.0069
 9692TIP3    H153271   3.450   5.966  11.117  1.3827 -3.6300 -1.6442
 9692TIP3    H253272   3.339   6.031  11.038  0.1713 -0.4460  2.3672
 9693TIP3   OH253273   5.094   1.320  10.894  0.3786  0.1367 -0.3842
 9693TIP3    H153274   5.051   1.237  10.912 -1.2130  0.7999 -0.9791
 9693TIP3    H253275   5.181   1.295  10.862 -0.8521 -1.4328 -2.8307
 9694TIP3   OH253276   3.842   3.911  10.986 -0.1404  0.1750  0.3932
 9694TIP3    H153277   3.782   3.981  10.958  0.1297  0.7064  1.0979
 9694TIP3    H253278   3.856   3.859  10.908 -3.2878 -1.3120  0.6725
 9695TIP3   OH253279   5.457   3.222  12.524 -0.2862  0.2228 -0.4961
 9695TIP3    H153280   5.368   3.191  12.537 -0.4663 -0.7626 -3.4429
 9695TIP3    H253281   5.458   3.259  12.436  2.2108  0.1380 -0.5862
 9696TIP3   OH253282   2.800   5.052  12.730  0.2868 -0.2164 -0.4713
 9696TIP3    H153283   2.780   5.138  12.694 -0.0369  0.9736  2.3016
 9696TIP3    H253284   2.889   5.060  12.764  0.8360 -1.5067 -1.4757
 9697TIP3   OH253285   3.048   1.567  11.134  0.0333 -0.3039  0.3945
 9697TIP3    H153286   3.111   1.545  11.065 -0.4596 -0.5075  0.0060
 9697TIP3    H253287   3.055   1.495  11.197 -0.3476 -0.7077 -0.0218
 9698TIP3   OH253288   2.874   6.978  11.130  0.4217  0.2396 -0.3519
 9698TIP3    H153289   2.969   6.970  11.122  0.6971  0.2238  2.1790
 9698TIP3    H253290   2.858   7.072  11.141  0.5503  0.0413  2.3165
 9699TIP3   OH253291   4.346   2.098  12.960  0.8630 -0.3088 -0.9729
 9699TIP3    H153292   4.385   2.058  13.038 -1.4943 -0.6269  0.1317
 9699TIP3    H253293   4.306   2.025  12.913 -2.2163  0.4237  0.2975
 9700TIP3   OH253294   4.571   4.099  12.151 -0.4808  0.0505  0.0619
 9700TIP3    H153295   4.527   4.037  12.209  0.4157 -0.6862 -0.0125
 9700TIP3    H253296   4.604   4.044  12.079  0.5849  0.5528  0.1486
 9701TIP3   OH253297   6.629   0.859  11.178 -0.0688  0.1890 -0.6085
 9701TIP3    H153298   6.561   0.833  11.241  0.3569  2.3492  0.8479
 9701TIP3    H253299   6.636   0.784  11.118 -0.8656 -1.7641  1.5805
 9702TIP3   OH253300   3.983   4.718  11.548  0.6365 -0.5620 -0.0674
 9702TIP3    H153301   3.939   4.678  11.622  1.1706 -0.3123  0.3888
 9702TIP3    H253302   4.065   4.752  11.583  1.1707 -0.9565 -0.8840
 9703TIP3   OH253303   4.976   2.886  12.501 -0.2934  0.1913  0.1122
 9703TIP3    H153304   4.936   2.804  12.474  0.4023 -0.3778  0.7827
 9703TIP3    H253305   4.917   2.921  12.568  0.2547 -0.6263  1.0674
 9704TIP3   OH253306   6.492   2.371  11.579 -0.1563  0.6765 -0.1073
 9704TIP3    H153307   6.398   2.368  11.560 -0.3302  1.4787  0.6103
 9704TIP3    H253308   6.497   2.386  11.673  0.6995  0.1070 -0.0573
 9705TIP3   OH253309   0.799   2.363  11.235 -0.1830 -0.1165 -1.1272
 9705TIP3    H153310   0.722   2.415  11.256 -0.9192 -1.1595 -1.1959
 9705TIP3    H253311   0.861   2.381  11.306  0.1989  2.0333 -1.9279
 9706TIP3   OH253312   6.291   4.710  11.272  0.6686  0.1149  0.1450
 9706TIP3    H153313   6.343   4.772  11.220 -0.5903  0.8028 -0.3193
 9706TIP3    H253314   6.280   4.635  11.215  0.0086  0.5227 -0.2681
 9707TIP3   OH253315   6.824   3.600  12.710  0.3419 -0.2075  0.2012
 9707TIP3    H153316   6.854   3.666  12.773  0.1824  0.0592 -0.0020
 9707TIP3    H253317   6.729   3.598  12.721  0.3995 -0.8719  0.6642
 9708TIP3   OH253318   4.290   2.182  11.386  0.3092  0.0771 -0.4441
 9708TIP3    H153319   4.299   2.099  11.340  0.3520 -0.4693  0.5275
 9708TIP3    H253320   4.228   2.164  11.457 -0.1299  1.0257 -0.5659
 9709TIP3   OH253321   3.824   0.005  12.706  0.2479  0.0763  0.2346
 9709TIP3    H153322   3.800  -0.065  12.767 -0.1334  0.7389  0.8743
 9709TIP3    H253323   3.843   0.080  12.763 -0.1643  0.7305 -0.4659
 9710TIP3   OH253324   5.302   1.058  11.514  0.1944  0.2987 -0.2908
 9710TIP3    H153325   5.381   1.107  11.535  1.2908 -0.7902 -1.7038
 9710TIP3    H253326   5.323   1.012  11.433 -1.9678  0.1471 -0.8316
 9711TIP3   OH253327   4.226   1.336  13.107 -0.3442 -0.9041  0.4025
 9711TIP3    H153328   4.183   1.305  13.028 -1.9119 -0.1777  0.9240
 9711TIP3    H253329   4.188   1.283  13.178  0.6196 -1.1625  0.7481
 9712TIP3   OH253330   0.497   7.010  11.613 -0.3868  0.5194 -0.2889
 9712TIP3    H153331   0.477   7.027  11.521 -1.3821  4.3943  0.4731
 9712TIP3    H253332   0.587   7.040  11.624  0.5577 -2.0552 -0.3675
 9713TIP3   OH253333   0.024   1.261  11.381 -0.0885 -0.2640  0.3699
 9713TIP3    H153334  -0.044   1.299  11.437 -0.8434 -0.7734 -0.1703
 9713TIP3    H253335   0.074   1.336  11.349  0.0994  0.0618  1.3915
 9714TIP3   OH253336   2.348   2.098  12.070 -0.7054 -0.1778  0.1240
 9714TIP3    H153337   2.258   2.077  12.045 -1.0214  0.1638  0.9656
 9714TIP3    H253338   2.349   2.094  12.165  0.4135 -1.1193  0.0956
 9715TIP3   OH253339   3.246   6.647  11.811  0.5823  0.7628 -0.1739
 9715TIP3    H153340   3.341   6.660  11.801  0.8116 -1.2524 -1.0477
 9715TIP3    H253341   3.239   6.565  11.860 -0.7406  1.0089  0.0692
 9716TIP3   OH253342   3.730   2.042  11.133 -0.0043 -0.0960  0.0536
 9716TIP3    H153343   3.745   2.047  11.039  0.7183 -0.7337  0.1321
 9716TIP3    H253344   3.671   2.115  11.151 -0.2202 -0.0212 -0.9040
 9717TIP3   OH253345   3.183   4.579  12.032 -0.5945  0.3950  0.6994
 9717TIP3    H153346   3.160   4.509  12.093  0.2213  0.8840  1.5874
 9717TIP3    H253347   3.279   4.578  12.028 -0.6416 -0.3954 -1.4975
 9718TIP3   OH253348   4.913   3.982  11.512  0.4819 -0.4177  0.1497
 9718TIP3    H153349   4.852   4.035  11.461 -0.1293 -0.1169  1.1748
 9718TIP3    H253350   4.999   4.005  11.477  0.0118 -1.2558 -1.6928
 9719TIP3   OH253351   1.763   6.566  12.054 -0.0469 -0.3327  0.0538
 9719TIP3    H153352   1.706   6.520  12.115 -2.1801  0.0934 -1.5223
 9719TIP3    H253353   1.765   6.512  11.976 -0.1368  0.7493 -0.7244
 9720TIP3   OH253354   0.879   3.554  11.354 -0.0712 -0.3302 -0.1775
 9720TIP3    H153355   0.970   3.562  11.384 -0.1595 -0.4850  0.1337
 9720TIP3    H253356   0.860   3.460  11.362 -0.2174 -0.3158 -0.3622
 9721TIP3   OH253357   5.350   6.970  10.758  0.1041 -0.3125 -0.2371
 9721TIP3    H153358   5.288   6.989  10.828  1.5646  0.0116  1.0206
 9721TIP3    H253359   5.436   6.983  10.798  1.0520 -2.4639 -1.3995
 9722TIP3   OH253360   1.807   4.725  11.092 -0.0985  0.3649  0.0599
 9722TIP3    H153361   1.892   4.683  11.087  0.2509  0.7307  2.2453
 9722TIP3    H253362   1.779   4.734  11.000  1.9048 -0.3263 -0.6534
 9723TIP3   OH253363   0.145   6.910  12.022  0.3306  0.0753  0.1099
 9723TIP3    H153364   0.210   6.967  11.981  1.0444 -0.2643  0.7379
 9723TIP3    H253365   0.061   6.953  12.006  0.8016  1.0020  0.0726
 9724TIP3   OH253366   5.637   7.504  11.048  0.4665  0.7688 -0.2827
 9724TIP3    H153367   5.709   7.447  11.021  0.9129  0.8569  0.6910
 9724TIP3    H253368   5.561   7.445  11.054  1.1535  0.0203  1.7621
 9725TIP3   OH253369   2.691   4.879  12.495  0.0156 -0.5122  0.6745
 9725TIP3    H153370   2.713   4.907  12.406  0.0082 -0.8356  0.5726
 9725TIP3    H253371   2.722   4.951  12.551  2.0224 -1.2817  0.6102
 9726TIP3   OH253372   2.460   7.380  12.806 -0.0943  0.2137  0.1273
 9726TIP3    H153373   2.446   7.452  12.867 -1.7543 -0.7359  0.9784
 9726TIP3    H253374   2.387   7.386  12.745  0.6224  0.1581 -0.7480
 9727TIP3   OH253375   0.710   1.478  12.375 -0.1452 -0.2229 -0.5221
 9727TIP3    H153376   0.683   1.467  12.466 -1.1705  0.2580 -0.7558
 9727TIP3    H253377   0.645   1.538  12.338  1.7955  1.8402 -0.8424
 9728TIP3   OH253378   5.900   5.297  12.971 -0.5830 -0.4671 -0.2035
 9728TIP3    H153379   5.816   5.340  12.984 -0.5768 -0.6501  0.4946
 9728TIP3    H253380   5.937   5.339  12.894 -0.3705  1.1218  0.7183
 9729TIP3   OH253381   4.013   2.081  10.924  0.4438 -0.1902 -0.6449
 9729TIP3    H153382   4.030   2.094  10.831  1.3933 -1.5646 -0.6960
 9729TIP3    H253383   4.001   2.169  10.959  2.2958  0.5362 -1.6801
 9730TIP3   OH253384   2.268   3.499  11.116  0.2915  0.1006 -0.0514
 9730TIP3    H153385   2.176   3.474  11.108 -0.2191  1.0788  2.1445
 9730TIP3    H253386   2.290   3.534  11.029 -2.1260  2.0228  0.0014
 9731TIP3   OH253387   1.273   5.686  11.698 -0.1483 -0.4070  0.3096
 9731TIP3    H153388   1.225   5.637  11.764  0.4852 -1.2028  0.1931
 9731TIP3    H253389   1.338   5.624  11.664 -0.9280 -0.2451 -1.5705
 9732TIP3   OH253390   2.133   1.783  12.294 -0.6411 -0.5101 -0.2865
 9732TIP3    H153391   2.139   1.769  12.200  0.2398 -1.3903 -0.1207
 9732TIP3    H253392   2.186   1.713  12.332 -1.9775 -0.9127  0.9157
 9733TIP3   OH253393   0.472   3.752  10.714  0.4120  0.1466 -0.1419
 9733TIP3    H153394   0.500   3.722  10.801  0.4788  0.7854  0.0616
 9733TIP3    H253395   0.447   3.672  10.668  1.2450 -0.2983  0.1559
 9734TIP3   OH253396   1.325   4.346  11.681 -0.4390  0.2237 -0.5290
 9734TIP3    H153397   1.291   4.279  11.623  1.2574  0.1628 -1.5163
 9734TIP3    H253398   1.262   4.350  11.753 -1.3183 -1.3925 -1.1653
 9735TIP3   OH253399   5.041   2.844  13.401 -0.2137  0.6119  0.3508
 9735TIP3    H153400   5.039   2.757  13.360 -0.0789  1.5032 -1.6330
 9735TIP3    H253401   4.950   2.860  13.427 -0.0664 -0.5229  1.7112
 9736TIP3   OH253402   2.446   3.084  12.710  0.2836  0.0280  0.4183
 9736TIP3    H153403   2.454   3.179  12.712  0.0778  0.0332  1.7857
 9736TIP3    H253404   2.390   3.066  12.634 -0.4830  1.0702  0.7199
 9737TIP3   OH253405   2.122   5.978  10.568  0.2331  0.0606  0.5739
 9737TIP3    H153406   2.069   6.017  10.498 -0.7616 -0.4818  1.0078
 9737TIP3    H253407   2.075   6.000  10.648 -0.6041 -2.3794  0.8091
 9738TIP3   OH253408   0.943   4.667  12.345  0.0700 -0.1039 -0.0446
 9738TIP3    H153409   1.023   4.616  12.330 -1.0900 -2.6168  1.6595
 9738TIP3    H253410   0.872   4.612  12.312 -1.3908 -0.3883  3.1685
 9739TIP3   OH253411   3.794   5.347  10.902  0.0793  0.4477  0.0522
 9739TIP3    H153412   3.759   5.309  10.982 -2.1936 -1.0348 -1.5244
 9739TIP3    H253413   3.860   5.285  10.872 -0.2547  0.1487 -0.0686
 9740TIP3   OH253414   0.569   0.571  12.397 -0.4099  0.0615  0.1578
 9740TIP3    H153415   0.599   0.482  12.380 -0.9131  0.3349 -2.7637
 9740TIP3    H253416   0.588   0.619  12.316 -2.0108  2.0805  0.8784
 9741TIP3   OH253417   4.746   2.432  11.857  0.1223 -0.1370 -0.3430
 9741TIP3    H153418   4.816   2.370  11.834  2.2189  0.4669  3.4725
 9741TIP3    H253419   4.721   2.407  11.946 -0.3168  3.2354  0.6107
 9742TIP3   OH253420   2.567   0.658  11.090 -0.4955  0.7458  0.2323
 9742TIP3    H153421   2.492   0.657  11.150 -0.4769 -0.4394  0.2722
 9742TIP3    H253422   2.608   0.572  11.103  1.4988  1.7604  0.9832
 9743TIP3   OH253423   4.393   7.359  12.355 -0.9032 -0.8478 -0.5842
 9743TIP3    H153424   4.369   7.376  12.264 -2.7040 -0.7086 -0.1161
 9743TIP3    H253425   4.385   7.443  12.399  0.9992 -0.6845 -0.4718
 9744TIP3   OH253426   3.141   0.920  12.778  0.1658 -0.1824  0.1988
 9744TIP3    H153427   3.085   0.930  12.855 -0.5485  2.9455 -0.5841
 9744TIP3    H253428   3.129   0.829  12.751 -0.8954 -0.8784  2.7326
 9745TIP3   OH253429   2.277   3.784  12.630 -0.0258  0.2414  0.1408
 9745TIP3    H153430   2.319   3.756  12.549  0.5470  2.2242 -0.2978
 9745TIP3    H253431   2.315   3.727  12.697  1.9528  0.7088 -0.5141
 9746TIP3   OH253432   1.937   3.432  11.836  0.4365  0.1562  0.0541
 9746TIP3    H153433   1.890   3.444  11.753  0.0881  0.2362  0.2605
 9746TIP3    H253434   2.024   3.402  11.810  1.2502  2.7081 -0.5075
 9747TIP3   OH253435   3.079   1.642  10.803  0.3002  0.2597 -0.5607
 9747TIP3    H153436   2.997   1.593  10.811  0.7908 -0.3646  0.8862
 9747TIP3    H253437   3.147   1.578  10.822  1.0285  1.2140  0.1362
 9748TIP3   OH253438   3.777   0.436  12.284  0.3093  0.4142  0.3745
 9748TIP3    H153439   3.711   0.429  12.352  1.6640 -2.0580  1.5635
 9748TIP3    H253440   3.727   0.433  12.202 -1.0535 -2.9353  1.1897
 9749TIP3   OH253441   3.427   1.542  10.478 -0.4234  0.6248  0.1649
 9749TIP3    H153442   3.476   1.611  10.432  0.5088 -0.4940 -0.5674
 9749TIP3    H253443   3.335   1.566  10.465 -0.1196  2.1988  0.6762
 9750TIP3   OH253444   6.975   6.613  12.344  0.2805 -0.3578  0.1242
 9750TIP3    H153445   6.953   6.598  12.436  0.2373 -1.0304  0.0093
 9750TIP3    H253446   7.068   6.638  12.346 -0.1343  1.2715  0.4918
 9751TIP3   OH253447   1.550   7.052  11.067 -0.3510  0.4660  0.5849
 9751TIP3    H153448   1.527   7.144  11.056 -0.0342  0.3738 -1.0609
 9751TIP3    H253449   1.469   7.009  11.093 -1.5102  0.5928 -2.4647
 9752TIP3   OH253450   2.788   0.420  12.378  0.3318 -0.2085  0.0323
 9752TIP3    H153451   2.756   0.364  12.449 -1.8788 -0.4949 -1.1144
 9752TIP3    H253452   2.847   0.364  12.328  2.2388  0.1128  1.7865
 9753TIP3   OH253453   4.733   3.609  12.345 -0.3074 -0.6841  0.1690
 9753TIP3    H153454   4.658   3.622  12.403  0.3691 -0.5897  1.0476
 9753TIP3    H253455   4.798   3.672  12.376  0.3513 -1.1677 -0.2041
 9754TIP3   OH253456   7.621   2.364  11.167  0.3120  0.3025  0.3173
 9754TIP3    H153457   7.669   2.286  11.192  0.0613 -0.4570 -1.4178
 9754TIP3    H253458   7.531   2.335  11.155  0.6380  0.2273 -2.7087
 9755TIP3   OH253459   0.501   0.526  10.659  0.0796  0.1312  0.1038
 9755TIP3    H153460   0.483   0.548  10.750 -0.9085 -1.0239  0.2071
 9755TIP3    H253461   0.465   0.600  10.609 -0.1401  0.3716  0.6096
 9756TIP3   OH253462   0.083   5.875  10.750 -0.3679  0.1039 -0.2254
 9756TIP3    H153463   0.046   5.951  10.794  0.2331  0.7072 -0.7488
 9756TIP3    H253464   0.023   5.858  10.677 -0.4258  0.1608 -0.1914
 9757TIP3   OH253465   1.469   4.981  12.332  0.1198  0.0240  0.2942
 9757TIP3    H153466   1.553   5.001  12.372 -0.1760  2.6496 -0.2479
 9757TIP3    H253467   1.476   4.889  12.306  1.7808 -0.6091  2.6686
 9758TIP3   OH253468   6.315   0.374  12.815  0.2501  0.1440 -0.0937
 9758TIP3    H153469   6.289   0.326  12.894 -0.1705  0.4094 -0.0651
 9758TIP3    H253470   6.239   0.369  12.758  0.9780 -1.0834 -1.0016
 9759TIP3   OH253471   0.551   1.757  12.029  0.8174  0.0556  0.3857
 9759TIP3    H153472   0.562   1.733  11.937  0.8622  0.9682  0.1451
 9759TIP3    H253473   0.628   1.809  12.050  0.1375  1.0461  0.5225
 9760TIP3   OH253474   1.873   7.295  10.745  0.2606  0.0066 -0.0506
 9760TIP3    H153475   1.863   7.353  10.670 -0.2591  0.5732  0.4422
 9760TIP3    H253476   1.880   7.354  10.820 -1.2653 -0.5616  0.5743
 9761TIP3   OH253477   6.932   4.843  12.190 -0.2107  0.0690 -0.1506
 9761TIP3    H153478   6.984   4.803  12.260 -0.9067 -2.0146 -0.7610
 9761TIP3    H253479   6.995   4.895  12.139  1.0649 -1.5039 -0.2268
 9762TIP3   OH253480   3.734   1.360  13.093  0.0374 -0.2567 -0.0460
 9762TIP3    H153481   3.643   1.367  13.065  0.2610  0.3886 -0.6388
 9762TIP3    H253482   3.777   1.312  13.023  0.0660 -0.9673  0.4503
 9763TIP3   OH253483   2.634   4.990  12.192  0.0919  0.2679  0.0441
 9763TIP3    H153484   2.662   4.921  12.131  1.4083  0.2378  0.6381
 9763TIP3    H253485   2.551   5.021  12.157 -0.3408 -1.3570 -0.4492
 9764TIP3   OH253486   2.224   0.040  10.747  0.4146  0.1599 -0.5535
 9764TIP3    H153487   2.191  -0.048  10.730 -0.3358 -0.4271  3.0246
 9764TIP3    H253488   2.310   0.042  10.706  0.6711 -2.4604 -0.3405
 9765TIP3   OH253489   4.328   3.370  13.332 -0.5461  0.0919 -0.1526
 9765TIP3    H153490   4.256   3.384  13.394  0.4181 -0.4919  1.1381
 9765TIP3    H253491   4.401   3.341  13.386  0.7941  1.0117 -1.3810
 9766TIP3   OH253492   0.042   0.229  12.366  0.0037  0.0907  0.0087
 9766TIP3    H153493   0.128   0.270  12.365 -0.7271  1.6862 -0.2632
 9766TIP3    H253494   0.016   0.226  12.274 -0.3966 -0.0221  0.1229
 9767TIP3   OH253495   7.040   5.916  12.419  0.3196 -0.1882 -0.4913
 9767TIP3    H153496   7.111   5.974  12.447  0.2124  0.2405 -1.0896
 9767TIP3    H253497   6.974   5.925  12.487  0.9216 -0.7531  0.1816
 9768TIP3   OH253498   7.628   6.384  12.522 -0.2234 -0.4624 -0.2001
 9768TIP3    H153499   7.560   6.352  12.580 -0.9006  1.8143  0.3671
 9768TIP3    H253500   7.670   6.305  12.488 -0.9665 -1.8798  1.9845
 9769TIP3   OH253501   7.552   4.069  10.401  0.2843  0.2884 -0.2602
 9769TIP3    H153502   7.637   4.093  10.362  1.6774 -1.3614  1.5218
 9769TIP3    H253503   7.497   4.146  10.389  2.0692  1.4593 -1.4258
 9770TIP3   OH253504   2.447   0.128  11.543  0.0668 -0.1774 -0.5380
 9770TIP3    H153505   2.352   0.117  11.551  0.0502  0.0335 -0.4493
 9770TIP3    H253506   2.460   0.223  11.545  0.4325 -0.2325  1.2622
 9771TIP3   OH253507   6.181   3.611  12.596 -0.4069  0.3392  0.0149
 9771TIP3    H153508   6.215   3.659  12.521  0.0553 -1.5058 -1.0118
 9771TIP3    H253509   6.158   3.679  12.660  0.7980  1.8643 -1.1090
 9772TIP3   OH253510   3.857   2.528  11.215  0.7728 -0.1564  0.2342
 9772TIP3    H153511   3.860   2.544  11.310 -0.8388 -3.5819  1.0282
 9772TIP3    H253512   3.763   2.522  11.195  0.9437  2.8483 -2.1822
 9773TIP3   OH253513   1.705   7.647  12.884 -0.7514  0.1902 -0.2866
 9773TIP3    H153514   1.663   7.667  12.967 -1.3275  0.1482 -0.5632
 9773TIP3    H253515   1.774   7.713  12.876 -0.9274  0.4183  0.0514
 9774TIP3   OH253516   2.790   1.282  11.340  0.2459 -0.2619  0.2701
 9774TIP3    H153517   2.721   1.218  11.357  0.3454 -0.0236  1.7309
 9774TIP3    H253518   2.867   1.249  11.387  0.1694  1.1218  1.4643
 9775TIP3   OH253519   1.294   6.841  10.782  0.6377 -0.1319  0.1141
 9775TIP3    H153520   1.362   6.868  10.720 -0.9216 -0.8642 -2.0662
 9775TIP3    H253521   1.284   6.747  10.766 -0.3379 -0.1854  0.9547
 9776TIP3   OH253522   2.509   2.302  12.637 -0.2633 -0.2363  0.1550
 9776TIP3    H153523   2.456   2.306  12.557  1.4308  0.0878 -1.0016
 9776TIP3    H253524   2.489   2.383  12.683 -0.0526  0.3661 -0.7744
 9777TIP3   OH253525   3.321   7.618  11.917  0.3206  0.8994  0.1388
 9777TIP3    H153526   3.391   7.561  11.947 -0.4874  1.0079  2.4458
 9777TIP3    H253527   3.332   7.623  11.822  1.2020 -2.0093 -0.0004
 9778TIP3   OH253528   6.779   6.505  11.607  0.2353  0.4194  0.2357
 9778TIP3    H153529   6.790   6.485  11.700  0.3282  0.8591  0.3204
 9778TIP3    H253530   6.729   6.586  11.605  1.2817  1.0890 -0.0599
 9779TIP3   OH253531   1.226   5.312  10.520 -0.2551 -0.4593 -0.2860
 9779TIP3    H153532   1.270   5.231  10.496 -0.6329 -0.7327 -0.0433
 9779TIP3    H253533   1.237   5.318  10.615  0.3497  0.1112 -0.3798
 9780TIP3   OH253534   1.248   1.571  11.320  0.2031 -0.0514  0.6670
 9780TIP3    H153535   1.334   1.530  11.309 -0.1588 -0.2916 -1.9605
 9780TIP3    H253536   1.196   1.504  11.365  0.2028 -1.8314 -1.7485
 9781TIP3   OH253537   6.851   3.886  11.975  0.0649 -0.5891  0.1791
 9781TIP3    H153538   6.818   3.815  11.920  1.6117 -1.1844 -0.0231
 9781TIP3    H253539   6.924   3.848  12.023 -0.5938  0.2135  1.9035
 9782TIP3   OH253540   5.756   0.399  11.889  0.3396 -0.0610  0.1699
 9782TIP3    H153541   5.761   0.437  11.801  1.6628 -2.3110 -0.8036
 9782TIP3    H253542   5.697   0.325  11.880  0.1461 -0.0612  1.3086
 9783TIP3   OH253543   5.036   1.462  12.624 -0.3802 -0.7301 -0.2882
 9783TIP3    H153544   5.020   1.443  12.532 -1.9672 -1.3374  0.0716
 9783TIP3    H253545   4.973   1.530  12.646  0.4870 -0.0605  0.1804
 9784TIP3   OH253546   1.079   7.656  12.061  0.2053 -0.2247 -0.5528
 9784TIP3    H153547   1.062   7.574  12.107  0.5274 -0.0082 -0.0370
 9784TIP3    H253548   1.046   7.641  11.972 -0.1530 -0.7519 -0.3378
 9785TIP3   OH253549   1.158   7.291  10.688  0.3211  0.2128 -0.3157
 9785TIP3    H153550   1.219   7.250  10.750  1.3924 -0.4342 -1.7386
 9785TIP3    H253551   1.184   7.383  10.687 -0.2988  0.4197  0.8450
 9786TIP3   OH253552   0.551   6.857  10.895  0.5708  0.2711  0.4322
 9786TIP3    H153553   0.515   6.928  10.947  1.1771  0.7207  0.2380
 9786TIP3    H253554   0.476   6.826  10.843  0.1561  0.3366  0.9865
 9787TIP3   OH253555   6.938   4.288  10.942 -0.1777  0.1659  0.2780
 9787TIP3    H153556   6.928   4.293  10.847 -0.8326 -0.5051  0.3016
 9787TIP3    H253557   7.022   4.331  10.959  0.1026  0.0079 -0.6302
 9788TIP3   OH253558   5.155   1.881  10.456  0.4338  0.2550 -0.1028
 9788TIP3    H153559   5.195   1.833  10.383  0.3358 -0.7401  0.4729
 9788TIP3    H253560   5.146   1.815  10.525  0.7274  1.2378  0.8904
 9789TIP3   OH253561   5.406   5.411  12.188  0.3319  0.2897 -0.7996
 9789TIP3    H153562   5.430   5.495  12.149 -0.7712  0.4580 -1.1584
 9789TIP3    H253563   5.459   5.405  12.268 -0.4329  1.8769 -0.1364
 9790TIP3   OH253564   5.566   6.308  12.566 -0.1886  0.6265  0.1138
 9790TIP3    H153565   5.577   6.364  12.644  0.5190 -0.0998  0.5445
 9790TIP3    H253566   5.653   6.304  12.527 -0.1086 -0.6117  0.3939
 9791TIP3   OH253567   3.895   7.257  13.112  0.0762  0.5479 -0.4092
 9791TIP3    H153568   3.912   7.173  13.152 -0.6985  0.6230  0.0986
 9791TIP3    H253569   3.820   7.242  13.054 -0.2700  0.9487 -0.0775
 9792TIP3   OH253570   2.386   2.607  12.033  0.5084  0.2965 -0.4021
 9792TIP3    H153571   2.421   2.651  12.111  0.1702 -0.0653 -0.0399
 9792TIP3    H253572   2.456   2.548  12.005 -0.0936 -1.0812  0.8408
 9793TIP3   OH253573   4.193   6.497  11.349  0.1341 -0.2232  0.2485
 9793TIP3    H153574   4.228   6.550  11.278  0.7841 -1.7912 -0.6583
 9793TIP3    H253575   4.201   6.552  11.427  2.4350  0.3788 -0.3439
 9794TIP3   OH253576   4.835   6.883  11.337  0.0453  0.2193  0.3765
 9794TIP3    H153577   4.838   6.951  11.405  0.0589  1.2433 -0.6270
 9794TIP3    H253578   4.916   6.895  11.287  1.0616 -1.8712  1.4064
 9795TIP3   OH253579   3.397   5.878  11.289 -0.2790  0.2624 -0.2378
 9795TIP3    H153580   3.404   5.787  11.262  0.4691  0.4044 -0.5727
 9795TIP3    H253581   3.312   5.885  11.332 -0.4169 -0.5471 -0.3715
 9796TIP3   OH253582   1.198   6.223  10.380  0.2690  0.5263 -0.1443
 9796TIP3    H153583   1.150   6.305  10.386 -2.5956 -0.8791 -1.4368
 9796TIP3    H253584   1.209   6.208  10.286 -0.0734 -0.9321  0.0100
 9797TIP3   OH253585   1.205   4.809  11.438 -1.0153 -0.4333  0.0073
 9797TIP3    H153586   1.180   4.899  11.417 -0.9729 -0.7064 -1.2771
 9797TIP3    H253587   1.256   4.781  11.363 -0.0626 -1.1624  0.9010
 9798TIP3   OH253588   0.892   4.117  12.347  0.1393 -0.9074  0.1465
 9798TIP3    H153589   0.939   4.033  12.356  1.0191 -0.3281  1.2027
 9798TIP3    H253590   0.845   4.127  12.429 -1.6646 -1.3361 -0.7953
 9799TIP3   OH253591   0.913   5.161  12.318 -0.1207  0.0269 -0.5662
 9799TIP3    H153592   0.975   5.091  12.335 -0.2117  0.5282  2.3411
 9799TIP3    H253593   0.967   5.238  12.300  0.3633  0.7759  3.2047
 9800TIP3   OH253594   0.907   5.303  11.383  0.0621  0.1707  0.0181
 9800TIP3    H153595   0.983   5.311  11.326  0.4314 -2.4269  0.0133
 9800TIP3    H253596   0.847   5.246  11.334 -0.6889 -0.0719  1.1742
 9801TIP3   OH253597   5.445   1.237  10.776 -0.3179 -0.6164 -0.0023
 9801TIP3    H153598   5.364   1.190  10.795 -0.2317 -2.3103 -3.2385
 9801TIP3    H253599   5.504   1.171  10.740  0.8007  1.4079 -2.1722
 9802TIP3   OH253600   2.214   5.408  10.585 -0.2343 -0.9013  0.2924
 9802TIP3    H153601   2.257   5.488  10.615 -0.8920 -0.4094 -0.0519
 9802TIP3    H253602   2.269   5.376  10.513 -0.8031  0.1103 -0.6200
 9803TIP3   OH253603   4.020   1.157  12.317  0.2033  0.3233 -0.1934
 9803TIP3    H153604   4.072   1.208  12.255  0.7413 -1.2979 -1.1516
 9803TIP3    H253605   3.930   1.178  12.296  0.4056  1.7091  0.2020
 9804TIP3   OH253606   3.660   2.427  12.888  0.6221 -0.0724  0.2175
 9804TIP3    H153607   3.719   2.462  12.954  0.7593  0.7049 -0.3009
 9804TIP3    H253608   3.640   2.338  12.918  3.4391 -1.0282 -0.4943
 9805TIP3   OH253609   3.588   2.331  13.641 -0.5358  0.0076  0.7950
 9805TIP3    H153610   3.506   2.338  13.691 -0.8696 -0.2637  0.2988
 9805TIP3    H253611   3.602   2.237  13.631  0.6674  0.0156  2.1953
 9806TIP3   OH253612   7.523   4.837  10.700  0.0917  1.1026 -0.6214
 9806TIP3    H153613   7.596   4.898  10.697 -0.6928  2.0270 -1.3499
 9806TIP3    H253614   7.499   4.833  10.792  1.1032  0.7063 -0.3548
 9807TIP3   OH253615   7.185   1.453  12.598 -0.3298  0.4104 -0.2259
 9807TIP3    H153616   7.107   1.433  12.651  0.7852  0.2484  1.4308
 9807TIP3    H253617   7.204   1.372  12.552 -1.3306  0.5595 -0.9519
 9808TIP3   OH253618   6.209   4.278  11.480  0.2985  0.5384  0.3717
 9808TIP3    H153619   6.160   4.196  11.485  0.6616  0.2346 -0.8225
 9808TIP3    H253620   6.275   4.270  11.549  1.9196 -1.2829 -1.2405
 9809TIP3   OH253621   0.070   1.502  11.581 -0.4066  0.0288  0.2753
 9809TIP3    H153622   0.080   1.419  11.628  1.9337  0.4047  0.6001
 9809TIP3    H253623   0.127   1.492  11.505 -0.8473  0.9906 -0.1911
 9810TIP3   OH253624   0.055   0.476  13.134  0.6190  0.1475 -0.0077
 9810TIP3    H153625   0.025   0.567  13.136  1.5155  0.4547 -0.1897
 9810TIP3    H253626  -0.021   0.425  13.163  0.3807  1.0245  0.9621
 9811TIP3   OH253627   4.491   0.830  11.595 -0.1809  0.2589  0.8093
 9811TIP3    H153628   4.541   0.903  11.560  0.5416  0.6966  2.6503
 9811TIP3    H253629   4.400   0.860  11.594 -0.1432  0.3680 -0.3578
 9812TIP3   OH253630   3.910   1.860  11.197 -0.1439 -0.1588 -0.4724
 9812TIP3    H153631   3.959   1.868  11.115  1.3149 -0.8171  0.2805
 9812TIP3    H253632   3.822   1.891  11.176  0.1950 -0.2975 -2.2691
 9813TIP3   OH253633   1.547   4.286  12.209  0.2365  0.2809 -0.3189
 9813TIP3    H153634   1.623   4.344  12.206  1.2249 -0.9880 -0.0670
 9813TIP3    H253635   1.527   4.268  12.118 -1.3952  2.6262 -0.5394
 9814TIP3   OH253636   4.732   7.111  11.609  0.5116 -0.1890 -0.1029
 9814TIP3    H153637   4.673   7.037  11.591 -1.2131  1.1944 -0.4422
 9814TIP3    H253638   4.708   7.139  11.698  1.1789 -0.0480  0.0346
 9815TIP3   OH253639   2.278   6.332  11.064 -0.3865 -0.0047  0.4189
 9815TIP3    H153640   2.235   6.381  10.994  0.5749  1.7584  0.9949
 9815TIP3    H253641   2.220   6.340  11.139  1.1365  3.0722  1.4379
 9816TIP3   OH253642   3.957   1.818  11.988 -0.3985 -0.1082 -0.0997
 9816TIP3    H153643   3.899   1.756  12.033 -1.1151  1.2573  0.9331
 9816TIP3    H253644   4.017   1.762  11.938 -1.1817 -1.6206  0.5623
 9817TIP3   OH253645   6.788   3.990  11.193  0.3532 -0.1616 -0.4362
 9817TIP3    H153646   6.872   3.948  11.178 -0.2605 -1.5207 -0.2180
 9817TIP3    H253647   6.735   3.967  11.117  0.3705  1.2269 -0.8874
 9818TIP3   OH253648   5.247   3.527  12.572  0.1328 -0.0391 -0.0743
 9818TIP3    H153649   5.235   3.449  12.518 -2.7215  0.7477 -0.7052
 9818TIP3    H253650   5.226   3.497  12.661  0.4095 -0.2979 -0.0944
 9819TIP3   OH253651   4.733   0.372  11.580 -0.1898  0.2160 -0.4914
 9819TIP3    H153652   4.786   0.451  11.568  0.1794  0.2416  1.0742
 9819TIP3    H253653   4.716   0.341  11.491  0.4356  1.5409 -1.1030
 9820TIP3   OH253654   0.685   6.019  10.381  0.7144  0.4760  0.0164
 9820TIP3    H153655   0.774   6.025  10.416  0.4296  3.1854  0.4585
 9820TIP3    H253656   0.638   6.093  10.420 -1.6349 -0.6074 -0.5607
 9821TIP3   OH253657   1.858   3.567  12.262  0.4516  0.2472 -0.0938
 9821TIP3    H153658   1.947   3.601  12.258  0.4177  0.5905  1.3088
 9821TIP3    H253659   1.857   3.494  12.200  1.0490  1.6228 -1.7871
 9822TIP3   OH253660   3.103   3.745  13.029 -0.0560 -0.1067 -0.8359
 9822TIP3    H153661   3.058   3.688  12.967 -1.0959  0.0519 -0.2493
 9822TIP3    H253662   3.147   3.811  12.975 -2.1592  0.9324 -1.3900
 9823TIP3   OH253663   2.548   5.255  12.831  0.1335  0.6050  0.5692
 9823TIP3    H153664   2.531   5.221  12.743  0.7147 -0.2282  0.7647
 9823TIP3    H253665   2.480   5.217  12.886  0.4577  0.1854  0.6862
 9824TIP3   OH253666   7.521   3.318  11.140 -0.3379  0.0554  0.2888
 9824TIP3    H153667   7.576   3.394  11.120 -0.5599  0.2600  0.4528
 9824TIP3    H253668   7.542   3.255  11.071  1.3457 -0.5314  1.2594
 9825TIP3   OH253669   6.805   6.556  11.050 -0.1498 -0.4902 -0.3611
 9825TIP3    H153670   6.840   6.486  10.996  0.7133 -0.2316 -0.1496
 9825TIP3    H253671   6.711   6.540  11.051 -0.0585 -1.1402 -1.0209
 9826TIP3   OH253672   7.654   3.553  11.076  0.4137 -0.0173  0.1116
 9826TIP3    H153673   7.653   3.642  11.110  2.3282 -0.3392  1.2048
 9826TIP3    H253674   7.598   3.555  10.999 -0.7984  1.7475  0.9915
 9827TIP3   OH253675   7.389   5.577  11.100 -0.6832 -0.1902  0.0889
 9827TIP3    H153676   7.458   5.640  11.121 -0.8613  0.3781 -0.9820
 9827TIP3    H253677   7.320   5.629  11.059 -1.6670 -0.7934  0.9207
 9828TIP3   OH253678   3.242   3.910  12.835  0.1186 -0.1331  0.1531
 9828TIP3    H153679   3.167   3.924  12.778 -1.8464  1.1459  2.8419
 9828TIP3    H253680   3.253   3.992  12.882  2.7775 -0.5374  0.4052
 9829TIP3   OH253681   0.448   7.187  12.660  0.1475  0.5820  0.2998
 9829TIP3    H153682   0.473   7.161  12.749  0.5445  0.9956  0.3117
 9829TIP3    H253683   0.531   7.212  12.619 -0.0389  0.4034 -0.1815
 9830TIP3   OH253684   1.284   4.620  10.918  0.0757 -0.6224 -0.1313
 9830TIP3    H153685   1.324   4.589  10.837 -0.3294  0.3401 -0.7259
 9830TIP3    H253686   1.193   4.640  10.894 -0.5699 -2.0116  0.9955
 9831TIP3   OH253687   5.378   0.865  12.257  0.1463  0.0147  0.1914
 9831TIP3    H153688   5.301   0.811  12.278 -1.1049  1.2274 -1.0161
 9831TIP3    H253689   5.392   0.851  12.163  1.1960  0.0912  0.3231
 9832TIP3   OH253690   0.533   3.194  11.216 -0.6577 -0.4708  0.4206
 9832TIP3    H153691   0.521   3.229  11.128 -1.0526  0.2350  0.7500
 9832TIP3    H253692   0.448   3.158  11.239  0.2367 -3.6898 -0.7420
 9833TIP3   OH253693   0.751   1.855  11.324 -0.4338 -0.0385  0.3683
 9833TIP3    H153694   0.668   1.901  11.311 -0.2233  0.1699 -0.2935
 9833TIP3    H253695   0.745   1.818  11.412 -1.3539 -0.2833  0.2100
 9834TIP3   OH253696   6.564   0.453  12.449  0.0996 -0.8079 -0.1706
 9834TIP3    H153697   6.656   0.437  12.474 -0.0834 -0.3133  0.9078
 9834TIP3    H253698   6.533   0.515  12.515 -1.4688 -2.1590  0.4037
 9835TIP3   OH253699   5.698   4.775  10.592  0.1264  0.0481  0.1718
 9835TIP3    H153700   5.685   4.813  10.505 -0.6451  0.5308  0.4956
 9835TIP3    H253701   5.667   4.841  10.653  2.0388  0.3460  0.9063
 9836TIP3   OH253702   2.154   1.947  12.932  0.2606 -0.3396 -0.3503
 9836TIP3    H153703   2.070   1.907  12.908 -0.6392  1.6771 -0.7917
 9836TIP3    H253704   2.137   2.041  12.930  2.5046  0.1229 -0.2608
 9837TIP3   OH253705   3.061   3.135  11.647  0.0565  0.6042  0.2607
 9837TIP3    H153706   3.110   3.053  11.652 -0.8751  0.0938  3.8127
 9837TIP3    H253707   2.970   3.109  11.659 -0.1529  2.1302  2.7553
 9838TIP3   OH253708   5.019   0.247  11.799 -0.4303 -0.2597  0.1057
 9838TIP3    H153709   5.041   0.197  11.877  0.8521 -0.4045 -0.3225
 9838TIP3    H253710   4.933   0.214  11.773 -0.0893 -1.4739  0.4465
 9839TIP3   OH253711   4.925   0.740  11.137 -0.3786  0.3767  0.0518
 9839TIP3    H153712   4.861   0.778  11.076  1.1528 -1.3372 -2.8706
 9839TIP3    H253713   5.007   0.783  11.113  0.1033  0.4476  1.7497
 9840TIP3   OH253714   4.807   5.503  11.092 -0.1515  0.4052  0.3346
 9840TIP3    H153715   4.797   5.471  11.182 -2.1906 -0.6279 -0.2099
 9840TIP3    H253716   4.810   5.423  11.039  0.4199  1.0252 -0.5861
 9841TIP3   OH253717   4.309   5.145  12.279  0.0377  0.4437  0.3213
 9841TIP3    H153718   4.389   5.196  12.261  0.2544 -0.0046  0.0081
 9841TIP3    H253719   4.325   5.106  12.365  1.0890 -1.4014 -0.6536
 9842TIP3   OH253720   5.935   4.798  10.772  0.0955  0.2580  0.3003
 9842TIP3    H153721   5.873   4.816  10.701  0.1527 -0.6870 -0.0076
 9842TIP3    H253722   5.985   4.879  10.781 -0.8057  0.8446  0.1764
 9843TIP3   OH253723   3.202   2.020  11.567  0.1282  0.0563 -0.4581
 9843TIP3    H153724   3.270   1.984  11.625 -1.1198 -1.1312  0.3069
 9843TIP3    H253725   3.132   1.955  11.567 -0.4263  0.5784 -2.3952
 9844TIP3   OH253726   2.671   7.180  12.729 -0.1165  0.4711 -0.2621
 9844TIP3    H153727   2.763   7.203  12.717 -0.0470 -0.2452 -1.2528
 9844TIP3    H253728   2.630   7.260  12.761  1.0881  0.4360  1.5094
 9845TIP3   OH253729   4.603   5.261  12.115 -0.1848  0.2441  0.3757
 9845TIP3    H153730   4.547   5.266  12.037 -0.3996  2.3899  0.5949
 9845TIP3    H253731   4.594   5.348  12.155 -0.8197 -1.0802  3.3259
 9846TIP3   OH253732   0.148   0.602  12.766  0.4575 -0.1333  0.0706
 9846TIP3    H153733   0.221   0.589  12.706  0.7286  1.6737 -0.0324
 9846TIP3    H253734   0.189   0.610  12.853  0.3203  0.1857  0.1064
 9847TIP3   OH253735   4.199   3.160  11.257 -0.0158  0.8317 -0.2520
 9847TIP3    H153736   4.189   3.255  11.255  0.6370  0.8940 -1.5037
 9847TIP3    H253737   4.113   3.127  11.284  0.5717  1.8629  3.3584
 9848TIP3   OH253738   1.211   4.255  10.962 -0.2939 -0.0209  0.1928
 9848TIP3    H153739   1.241   4.226  10.876  1.1313  1.1896  0.2267
 9848TIP3    H253740   1.154   4.329  10.943 -0.8322 -0.4201  0.2506
 9849TIP3   OH253741   0.841   5.312  11.877 -0.3657 -0.1420  0.1861
 9849TIP3    H153742   0.849   5.216  11.878  1.1872 -0.1485 -2.2828
 9849TIP3    H253743   0.792   5.331  11.797 -1.7917  1.1293  1.3116
 9850TIP3   OH253744   7.440   3.681  13.097  0.5637 -0.1689  0.1462
 9850TIP3    H153745   7.413   3.653  13.009  1.7365 -0.0169 -0.2859
 9850TIP3    H253746   7.505   3.615  13.124  2.9488  1.7008 -0.6473
 9851TIP3   OH253747   7.583   2.894  10.738  0.2628 -0.3716 -0.4975
 9851TIP3    H153748   7.496   2.857  10.756  1.3884 -2.2115  1.8511
 9851TIP3    H253749   7.643   2.820  10.750  2.3215  1.2896  0.0383
 9852TIP3   OH253750   6.204   3.328  12.548  0.1293  0.1601  0.2815
 9852TIP3    H153751   6.203   3.424  12.541  0.9000  0.1085 -0.7560
 9852TIP3    H253752   6.113   3.302  12.530  0.0000  0.6758  0.1698
 9853TIP3   OH253753   0.276   3.208  10.776 -0.0187 -0.0583 -0.2350
 9853TIP3    H153754   0.258   3.279  10.838 -0.9780 -0.8300  0.3844
 9853TIP3    H253755   0.195   3.199  10.726  0.3053 -0.3361 -0.7191
 9854TIP3   OH253756   0.681   3.508  12.315 -0.8265  0.5561  0.5796
 9854TIP3    H153757   0.656   3.529  12.405  0.0237  0.7256  0.7920
 9854TIP3    H253758   0.708   3.416  12.319 -0.1798  0.7442  0.6439
 9855TIP3   OH253759   2.306   2.529  13.306 -0.6807 -0.3540 -0.4928
 9855TIP3    H153760   2.364   2.558  13.236 -0.0714  1.4932  0.7073
 9855TIP3    H253761   2.313   2.434  13.305  1.6176 -0.2342 -1.0545
 9856TIP3   OH253762   4.860   4.315  10.611  0.4101  0.1989 -0.1039
 9856TIP3    H153763   4.910   4.261  10.550  1.0432  0.0076  0.5744
 9856TIP3    H253764   4.921   4.383  10.638 -0.3148  1.1442 -0.7877
 9857TIP3   OH253765   5.298   1.483  11.902  0.2130  0.2342 -0.7004
 9857TIP3    H153766   5.312   1.389  11.902 -2.5092 -0.2458  0.1627
 9857TIP3    H253767   5.322   1.511  11.990  2.2626  0.6281 -1.3350
 9858TIP3   OH253768   1.444   3.176  12.810 -0.1146  0.0487  0.0118
 9858TIP3    H153769   1.438   3.271  12.812  2.1067  0.2151  1.2663
 9858TIP3    H253770   1.384   3.147  12.879  0.2603  0.6132  0.5828
 9859TIP3   OH253771   3.894   7.287  12.358 -0.3855 -0.1059  0.2544
 9859TIP3    H153772   3.948   7.294  12.437  0.4267  1.4125 -0.3989
 9859TIP3    H253773   3.925   7.357  12.301 -0.3362 -1.7244 -1.8179
 9860TIP3   OH253774   2.351   2.772  13.652  0.1473 -0.1848 -0.2760
 9860TIP3    H153775   2.272   2.741  13.607 -0.2071  0.4209 -0.0891
 9860TIP3    H253776   2.423   2.734  13.603 -0.1610  1.8531 -2.5061
 9861TIP3   OH253777   5.872   0.839  11.703 -0.0300  0.1379 -0.0869
 9861TIP3    H153778   5.806   0.908  11.689 -0.7815 -0.3131  1.1147
 9861TIP3    H253779   5.928   0.874  11.772  0.6606  0.2728 -0.7051
 9862TIP3   OH253780   2.014   0.040  10.973  0.6600  0.2037 -0.0232
 9862TIP3    H153781   1.968  -0.040  10.946  0.8173 -0.4245  1.4691
 9862TIP3    H253782   2.100   0.010  11.001  0.8418  0.9551  0.2318
 9863TIP3   OH253783   1.865   0.349  10.556 -0.5260  0.6884 -0.0853
 9863TIP3    H153784   1.933   0.338  10.623  1.3664 -0.6310 -2.0677
 9863TIP3    H253785   1.900   0.416  10.498 -0.8930  0.0002 -1.1313
 9864TIP3   OH253786   6.932   2.138  12.222 -0.1043  0.2784 -0.4915
 9864TIP3    H153787   6.838   2.124  12.229  0.1689 -0.7966  1.7939
 9864TIP3    H253788   6.963   2.064  12.168 -0.5226  0.5985 -1.1924
 9865TIP3   OH253789   5.243   5.802  12.268  0.0642 -0.1732  0.1070
 9865TIP3    H153790   5.279   5.831  12.183 -1.7594 -1.1379 -1.0417
 9865TIP3    H253791   5.295   5.725  12.290  1.4478  0.8462  0.5824
 9866TIP3   OH253792   2.320   6.041  12.042 -0.5468 -0.8250 -0.7743
 9866TIP3    H153793   2.293   5.950  12.040  0.0259 -1.0076 -0.5437
 9866TIP3    H253794   2.258   6.086  11.985 -0.1182 -1.5602 -1.8532
 9867TIP3   OH253795   1.475   3.922  13.302  0.0145 -1.1405  0.5122
 9867TIP3    H153796   1.407   3.922  13.234 -1.4649  0.7991  1.8657
 9867TIP3    H253797   1.500   3.830  13.310 -0.8407 -1.6313 -1.5796
 9868TIP3   OH253798   0.959   3.793  12.254 -0.2483 -0.2846 -0.7315
 9868TIP3    H153799   0.988   3.806  12.344 -1.3400 -1.9937 -0.1026
 9868TIP3    H253800   0.880   3.846  12.246 -1.1444 -1.4932 -0.1139
 9869TIP3   OH253801   4.417   0.557  12.528 -0.2195  0.2042 -0.2080
 9869TIP3    H153802   4.410   0.640  12.481 -0.3039  0.5292  0.3672
 9869TIP3    H253803   4.511   0.537  12.526 -0.1689  0.4317 -0.1438
 9870TIP3   OH253804   2.918   0.598  11.648  0.1875 -0.0359 -0.7245
 9870TIP3    H153805   2.917   0.578  11.742 -0.7587  0.3374 -0.6373
 9870TIP3    H253806   2.996   0.652  11.636 -0.2856  0.8641  0.0722
 9871TIP3   OH253807   0.505   1.635  12.288  0.1190 -0.0339 -0.0131
 9871TIP3    H153808   0.485   1.679  12.206 -0.6704 -0.4185 -0.0292
 9871TIP3    H253809   0.486   1.700  12.356 -0.3090 -0.0909 -0.0769
 9872TIP3   OH253810   2.413   1.277  11.972  0.2455 -0.9795  0.2214
 9872TIP3    H153811   2.414   1.181  11.972  2.0724 -0.9943 -0.0028
 9872TIP3    H253812   2.432   1.301  11.881 -1.4747 -0.3718 -0.0052
 9873TIP3   OH253813   4.508   6.898  11.099  0.1941  0.0854 -0.4685
 9873TIP3    H153814   4.494   6.839  11.025  2.8159 -0.2342 -0.7854
 9873TIP3    H253815   4.565   6.967  11.065 -0.0843  0.9653  0.7719
 9874TIP3   OH253816   6.331   1.304  11.281  0.3162  0.0706 -0.3988
 9874TIP3    H153817   6.291   1.319  11.195  0.8250 -1.1165 -0.8653
 9874TIP3    H253818   6.411   1.255  11.262  0.0639 -0.8478  0.8060
 9875TIP3   OH253819   2.575   3.399  12.032  0.7167 -0.5680 -0.6945
 9875TIP3    H153820   2.590   3.327  11.972  1.2532  0.0577 -1.3267
 9875TIP3    H253821   2.655   3.405  12.083  0.8661 -0.1168 -0.9754
 9876TIP3   OH253822   0.893   0.611  10.932  0.0945  0.0013  0.1556
 9876TIP3    H153823   0.973   0.559  10.940  0.6498  0.8848  0.4047
 9876TIP3    H253824   0.849   0.600  11.016 -0.6162 -1.3677 -0.3553
 9877TIP3   OH253825   0.761   5.735  10.525 -0.3327  0.1208  0.2512
 9877TIP3    H153826   0.677   5.693  10.507  0.5873 -1.4266 -0.6217
 9877TIP3    H253827   0.780   5.786  10.446  0.3062 -0.8631 -0.2455
 9878TIP3   OH253828   1.629   2.848  13.569 -0.2850  0.1003  0.0959
 9878TIP3    H153829   1.665   2.759  13.567 -0.2766  0.0962  0.3475
 9878TIP3    H253830   1.598   2.863  13.480  2.1751  0.8617 -0.7336
 9879TIP3   OH253831   3.620   7.033  11.837 -0.5310 -0.2957  0.9115
 9879TIP3    H153832   3.600   7.109  11.783  1.1364 -0.9168 -0.6998
 9879TIP3    H253833   3.644   7.070  11.922  0.0058  0.9780  0.2418
 9880TIP3   OH253834   6.312   2.619  10.722  0.2518 -0.0049 -0.5446
 9880TIP3    H153835   6.334   2.530  10.749  1.4012  0.1642 -0.8484
 9880TIP3    H253836   6.228   2.611  10.678  0.0949 -0.8513 -0.1096
 9881TIP3   OH253837   3.714   6.830  12.287  0.7934  0.2810  0.0067
 9881TIP3    H153838   3.767   6.756  12.259  0.2721  0.0397 -0.3712
 9881TIP3    H253839   3.764   6.907  12.261  2.0439  0.1031  1.7161
 9882TIP3   OH253840   4.341   1.827  12.116 -0.3423 -0.3946 -0.6079
 9882TIP3    H153841   4.345   1.773  12.037  1.4759 -0.3560 -0.5774
 9882TIP3    H253842   4.251   1.861  12.117 -0.4640 -0.5480 -2.5431
 9883TIP3   OH253843   0.293   6.659  12.088  0.0517  0.1971  0.1388
 9883TIP3    H153844   0.270   6.749  12.063  1.1353  0.3606 -0.2892
 9883TIP3    H253845   0.216   6.628  12.136 -0.0117  1.6481  1.0620
 9884TIP3   OH253846   5.724   1.452  11.993 -0.0021 -0.6668  0.0180
 9884TIP3    H153847   5.696   1.419  12.079  0.3621 -1.9449 -0.3396
 9884TIP3    H253848   5.741   1.545  12.008 -0.4218 -0.7651  1.2147
 9885TIP3   OH253849   4.974   0.880  11.814 -0.1922  0.5507  0.6401
 9885TIP3    H153850   5.046   0.935  11.844  0.2120  0.5200 -0.2209
 9885TIP3    H253851   4.951   0.917  11.728 -0.4606 -0.1093  0.4229
 9886TIP3   OH253852   0.437   3.345  11.654 -0.3904 -0.3197 -0.0423
 9886TIP3    H153853   0.477   3.432  11.654 -0.8586 -0.1015 -0.1927
 9886TIP3    H253854   0.343   3.361  11.665 -0.2669 -0.9088  2.5674
 9887TIP3   OH253855   0.502   2.027  10.878 -0.0491  0.4039 -0.0594
 9887TIP3    H153856   0.503   2.121  10.895 -0.2008  1.2982 -4.0340
 9887TIP3    H253857   0.424   2.013  10.824 -0.7996 -2.3310  1.5297
 9888TIP3   OH253858   6.638   5.582  11.703  0.4554 -1.0455 -0.0058
 9888TIP3    H153859   6.606   5.605  11.790 -1.0970  0.2206 -0.8752
 9888TIP3    H253860   6.613   5.490  11.692 -0.0111 -0.9924  0.5764
 9889TIP3   OH253861   7.032   6.233  12.614  0.4755 -0.1708 -0.1180
 9889TIP3    H153862   6.984   6.204  12.537 -0.8252  0.2938  0.4883
 9889TIP3    H253863   6.987   6.192  12.688  0.7947  0.5590  0.4995
 9890TIP3   OH253864   6.744   5.651  10.679  0.6925 -0.0741  0.0502
 9890TIP3    H153865   6.688   5.725  10.702 -0.6889 -0.7381 -1.0064
 9890TIP3    H253866   6.682   5.579  10.662  1.5672 -0.1338 -3.8932
 9891TIP3   OH253867   6.801   1.282  11.767  0.7089  0.2064 -0.2797
 9891TIP3    H153868   6.819   1.188  11.764 -0.2870  0.0230 -0.9879
 9891TIP3    H253869   6.716   1.291  11.722  1.5598  1.6291 -1.6831
 9892TIP3   OH253870   1.042   1.187  12.808 -0.3480  0.2045 -0.5154
 9892TIP3    H153871   1.080   1.145  12.731 -0.0287 -1.0701  0.3050
 9892TIP3    H253872   0.968   1.131  12.831  0.4395 -0.2757  0.9519
 9893TIP3   OH253873   5.047   4.186  10.441  0.1550 -0.4546  0.7010
 9893TIP3    H153874   5.125   4.205  10.493  0.8344 -2.3127  0.4422
 9893TIP3    H253875   5.081   4.156  10.356 -0.8483 -0.6661  0.3596
 9894TIP3   OH253876   4.385   2.888  11.751  0.3457  0.0535  0.1410
 9894TIP3    H153877   4.376   2.796  11.776 -0.0459  0.4173  1.3867
 9894TIP3    H253878   4.312   2.902  11.690  0.3988 -0.4528 -0.0492
 9895TIP3   OH253879   5.706   3.024  13.213  0.1222 -0.0083 -0.1433
 9895TIP3    H153880   5.680   3.053  13.125  1.2934 -0.2115 -0.5748
 9895TIP3    H253881   5.700   2.929  13.209  0.2941 -0.0230 -0.0429
 9896TIP3   OH253882   1.282   0.643  11.698  0.2045  0.2219  0.3386
 9896TIP3    H153883   1.229   0.610  11.770 -1.0683  0.4111 -0.4801
 9896TIP3    H253884   1.229   0.628  11.619  1.0294  1.1154 -0.4224
 9897TIP3   OH253885   1.502   5.089  12.064 -0.0563  0.1039  0.2229
 9897TIP3    H153886   1.582   5.140  12.050 -0.5586  0.8183 -0.0752
 9897TIP3    H253887   1.493   5.085  12.159  1.0667 -1.1564  0.3100
 9898TIP3   OH253888   6.269   4.968  11.995  0.4171  0.1132 -0.6838
 9898TIP3    H153889   6.357   5.001  11.978  0.8683 -0.5796  0.2381
 9898TIP3    H253890   6.283   4.880  12.032 -0.5284  0.9772  1.9434
 9899TIP3   OH253891   5.539   1.469  13.152  0.1049 -0.1339  0.1607
 9899TIP3    H153892   5.622   1.477  13.200 -0.1361  1.1434  0.3809
 9899TIP3    H253893   5.543   1.538  13.086 -0.0735 -1.1361 -0.9461
 9900TIP3   OH253894   4.806   6.308  13.586  0.2808  0.3067  0.1670
 9900TIP3    H153895   4.831   6.377  13.525 -1.6236 -0.1920 -1.3120
 9900TIP3    H253896   4.875   6.307  13.652  1.9318  1.5580 -1.4359
 9901TIP3   OH253897   2.552   4.459  11.480 -0.5491  0.8923 -0.1032
 9901TIP3    H153898   2.513   4.546  11.468  0.2271  1.2254 -0.2436
 9901TIP3    H253899   2.493   4.401  11.433 -0.5546  1.4739 -0.8397
 9902TIP3   OH253900   1.841   1.120  10.772 -0.2954  0.3395  0.4589
 9902TIP3    H153901   1.822   1.213  10.777 -1.3966  0.1791 -0.5043
 9902TIP3    H253902   1.759   1.077  10.799 -0.8416 -0.3542 -2.0622
 9903TIP3   OH253903   3.392   4.132  11.681 -0.2268 -0.1061 -0.5821
 9903TIP3    H153904   3.487   4.132  11.669 -0.3594  1.9689 -2.1540
 9903TIP3    H253905   3.363   4.215  11.644 -2.6186 -0.4293  0.3751
 9904TIP3   OH253906   5.164   5.271  11.194  0.3232 -0.4188  0.5558
 9904TIP3    H153907   5.124   5.261  11.280  0.6145 -1.2892  0.5996
 9904TIP3    H253908   5.219   5.193  11.184  0.5771 -0.1432 -0.2616
 9905TIP3   OH253909   2.765   1.445  11.745  0.1943  0.5952  0.0647
 9905TIP3    H153910   2.696   1.484  11.692  0.3455  0.5818 -0.1418
 9905TIP3    H253911   2.846   1.483  11.712  0.1580  2.0731  1.5740
 9906TIP3   OH253912   7.342   1.878  13.394  0.1462  0.4852  0.2164
 9906TIP3    H153913   7.421   1.926  13.368  1.9183 -1.2019  2.0417
 9906TIP3    H253914   7.278   1.946  13.416  0.3353  1.9213 -3.1151
 9907TIP3   OH253915   7.111   5.139  11.392  0.0065  0.0841 -0.4122
 9907TIP3    H153916   7.135   5.047  11.404 -0.1495  0.2010  0.8191
 9907TIP3    H253917   7.098   5.173  11.480 -1.1854  0.9717 -0.9047
 9908TIP3   OH253918   4.275   4.923  12.701  0.6235 -0.0693 -0.5325
 9908TIP3    H153919   4.217   4.910  12.626 -1.3557  2.0238  0.5114
 9908TIP3    H253920   4.294   4.834  12.732 -0.3529 -0.8863 -2.1111
 9909TIP3   OH253921   4.816   2.926  10.903 -0.5415  0.1763 -0.5308
 9909TIP3    H153922   4.739   2.870  10.918  0.1796 -0.3207  1.8164
 9909TIP3    H253923   4.803   3.000  10.962  0.6045  0.2455 -0.3482
 9910TIP3   OH253924   5.737   4.454  12.682  0.0792  0.6804 -0.5722
 9910TIP3    H153925   5.731   4.431  12.775 -1.0289 -0.5423 -0.9123
 9910TIP3    H253926   5.646   4.468  12.655  0.1384 -1.2280 -1.9766
 9911TIP3   OH253927   5.220   0.586  12.020 -0.0379  0.0709 -0.6676
 9911TIP3    H153928   5.185   0.646  12.087  0.9911 -0.9123  0.8165
 9911TIP3    H253929   5.303   0.625  11.994 -0.5419  0.5686 -1.5738
 9912TIP3   OH253930   5.925   1.904  12.478 -0.6853 -0.4340 -0.6935
 9912TIP3    H153931   5.988   1.867  12.416 -1.4676 -2.1697 -0.5140
 9912TIP3    H253932   5.892   1.828  12.526 -0.7505  0.7632  1.2533
 9913TIP3   OH253933   2.880   3.892  12.855 -0.1586 -0.2669 -0.7175
 9913TIP3    H153934   2.831   3.874  12.774  1.6495  0.2504 -1.9860
 9913TIP3    H253935   2.904   3.806  12.889 -0.1078 -0.4685 -1.2618
 9914TIP3   OH253936   2.436   7.202  11.512  0.1119  0.5237 -0.0163
 9914TIP3    H153937   2.401   7.161  11.591 -1.8348  1.0427 -0.5545
 9914TIP3    H253938   2.376   7.174  11.442  0.2293  2.1977 -0.8303
 9915TIP3   OH253939   0.349   6.391  10.797 -0.0669  0.0490  0.3159
 9915TIP3    H153940   0.380   6.306  10.766 -1.2069  0.3434 -1.8463
 9915TIP3    H253941   0.255   6.391  10.779 -1.0036  0.1643  4.2978
 9916TIP3   OH253942   7.225   3.284  12.157 -0.2321 -0.0732  0.4104
 9916TIP3    H153943   7.256   3.276  12.067 -1.3783 -0.9945  0.0651
 9916TIP3    H253944   7.304   3.290  12.210  0.4583  0.8818 -0.6829
 9917TIP3   OH253945   3.670   4.696  12.058 -0.0910 -0.1125 -0.1852
 9917TIP3    H153946   3.750   4.743  12.081 -0.6810  0.6755  0.3289
 9917TIP3    H253947   3.602   4.763  12.059 -0.4715 -0.3684 -2.4948
 9918TIP3   OH253948   5.411   3.318  10.780  0.2764  0.2049 -0.3575
 9918TIP3    H153949   5.357   3.285  10.708 -0.6361 -0.4833  0.6113
 9918TIP3    H253950   5.454   3.241  10.815 -0.5993  0.2636  0.8949
 9919TIP3   OH253951   1.054   4.845  12.702  0.2028  0.2658 -0.8886
 9919TIP3    H153952   1.119   4.876  12.640  0.5954 -0.7866 -1.0168
 9919TIP3    H253953   1.034   4.921  12.757 -2.0674  2.0266 -3.8553
 9920TIP3   OH253954   7.095   1.449  13.244  0.6340 -0.1674  0.2484
 9920TIP3    H153955   7.034   1.465  13.316 -0.4281  2.0965 -1.0048
 9920TIP3    H253956   7.156   1.523  13.248  0.2164  0.3131 -1.4226
 9921TIP3   OH253957   2.393   1.684  12.454 -0.2133 -0.6538  0.3380
 9921TIP3    H153958   2.466   1.645  12.502  0.3236  0.4157  0.4187
 9921TIP3    H253959   2.360   1.754  12.511 -0.5732 -0.3900 -0.1799
 9922TIP3   OH253960   0.648   0.752  11.289 -0.3009  0.4886 -0.2509
 9922TIP3    H153961   0.560   0.754  11.326  0.4340  0.2953  1.5966
 9922TIP3    H253962   0.650   0.671  11.237 -0.8074 -0.2134  0.7888
 9923TIP3   OH253963   6.205   2.059  10.987  0.9622  0.4953  0.1196
 9923TIP3    H153964   6.116   2.044  10.956  1.3488 -1.0252 -0.3808
 9923TIP3    H253965   6.244   2.115  10.920  0.6170  0.5066 -0.0774
 9924TIP3   OH253966   5.304   1.346  13.145 -0.2440 -0.0008  0.6301
 9924TIP3    H153967   5.337   1.267  13.188  1.6875  1.0834  1.2263
 9924TIP3    H253968   5.376   1.408  13.151 -0.6137  0.8621 -2.4710
 9925TIP3   OH253969   0.150   7.336  10.960 -0.0897  0.3861 -0.2834
 9925TIP3    H153970   0.188   7.310  11.044 -1.7978 -0.7539  0.1831
 9925TIP3    H253971   0.179   7.426  10.947  3.2247 -0.5399 -0.2809
 9926TIP3   OH253972   1.235   2.230  10.965  0.1714  0.0447  0.1651
 9926TIP3    H153973   1.253   2.177  10.887  1.2083 -0.7908  0.9434
 9926TIP3    H253974   1.275   2.314  10.948 -1.4042  0.5877 -1.0515
 9927TIP3   OH253975   0.805   6.026  11.230  0.1091  0.2601  0.2270
 9927TIP3    H153976   0.776   6.114  11.205 -1.5732 -0.1496  0.5762
 9927TIP3    H253977   0.730   5.990  11.279  1.5600 -0.5948  1.9361
 9928TIP3   OH253978   2.988   5.769  11.065 -0.6917  0.3039  0.2964
 9928TIP3    H153979   2.907   5.800  11.104 -0.8247  0.8934 -0.4216
 9928TIP3    H253980   2.962   5.697  11.009 -1.0492  1.7552 -1.5053
 9929TIP3   OH253981   7.410   2.802  10.463 -0.0077  0.6358  0.0643
 9929TIP3    H153982   7.338   2.849  10.504  0.0896  1.5165 -0.7215
 9929TIP3    H253983   7.478   2.868  10.452  1.1209 -0.2859  1.2194
 9930TIP3   OH253984   2.697   3.896  13.382 -0.3345  0.0964 -0.0011
 9930TIP3    H153985   2.643   3.817  13.387  0.2375 -0.2809  0.2678
 9930TIP3    H253986   2.742   3.888  13.298  1.3713 -0.9637  0.9472
 9931TIP3   OH253987   6.012   2.923  12.592 -0.1236  0.1881 -0.1943
 9931TIP3    H153988   6.068   2.985  12.546  0.6454  0.5698  1.1948
 9931TIP3    H253989   6.063   2.842  12.594  0.0960  0.3326  0.4437
 9932TIP3   OH253990   0.322   1.932  10.692 -0.1354  0.5650  0.2108
 9932TIP3    H153991   0.306   2.000  10.627  1.2048  0.2696 -0.4627
 9932TIP3    H253992   0.243   1.877  10.690 -1.2244  2.0512  0.7452
 9933TIP3   OH253993   4.963   6.235  12.074  0.1257  0.3168  0.4313
 9933TIP3    H153994   4.933   6.156  12.119  0.1493 -0.0837 -0.2382
 9933TIP3    H253995   5.059   6.229  12.076  0.1330 -0.3628 -0.7696
 9934TIP3   OH253996   0.807   2.270  12.976 -0.3957  0.6558  0.1954
 9934TIP3    H153997   0.800   2.183  13.016 -0.4353  1.5616  2.3214
 9934TIP3    H253998   0.729   2.317  13.006  0.1930  1.7741  0.0642
 9935TIP3   OH253999   3.109   1.174  10.318 -0.1545 -0.3956 -0.7398
 9935TIP3    H154000   3.117   1.122  10.399  1.4502 -1.7192 -1.6846
 9935TIP3    H254001   3.024   1.149  10.282 -0.4820 -0.4951  0.0786
 9936TIP3   OH254002   2.090   2.916  12.234 -0.2919 -0.2375 -0.5541
 9936TIP3    H154003   2.148   2.951  12.167 -0.0106 -0.6260 -0.5183
 9936TIP3    H254004   2.100   2.821  12.227  0.6793 -0.2791  0.8299
 9937TIP3   OH254005   0.733   2.025  12.204 -0.3930 -0.5494 -0.0926
 9937TIP3    H154006   0.800   2.048  12.267  0.2914  2.1011 -1.6323
 9937TIP3    H254007   0.759   1.939  12.170  0.6360 -0.8161  1.3244
 9938TIP3   OH254008   4.240   7.430  11.786 -0.6360  0.0834 -0.1412
 9938TIP3    H154009   4.313   7.486  11.814 -0.4313 -0.1586 -0.1868
 9938TIP3    H254010   4.273   7.341  11.797 -0.3583 -0.0290 -1.5812
 9939TIP3   OH254011   2.722   5.668  12.496  0.6195  0.1382  0.3437
 9939TIP3    H154012   2.752   5.758  12.486 -0.7202  0.4377 -1.4290
 9939TIP3    H254013   2.732   5.649  12.590  0.6642  2.2084  0.7928
 9940TIP3   OH254014   6.160   7.345  11.377  0.2272 -0.1102 -0.3867
 9940TIP3    H154015   6.080   7.309  11.416 -0.6245  1.0081 -1.0494
 9940TIP3    H254016   6.180   7.421  11.430 -0.0676  0.5253 -1.1526
 9941TIP3   OH254017   5.082   2.147  11.513  0.1070 -0.3093  0.0480
 9941TIP3    H154018   5.055   2.082  11.448  0.1276 -1.1424  0.8507
 9941TIP3    H254019   5.021   2.219  11.501 -0.2434 -0.6889 -0.5180
 9942TIP3   OH254020   2.218   4.602  11.428 -0.5199  0.0221  0.2796
 9942TIP3    H154021   2.190   4.536  11.492 -0.0602  0.0432  0.5079
 9942TIP3    H254022   2.304   4.632  11.460  1.4716 -2.5063 -2.1681
 9943TIP3   OH254023   2.401   3.076  10.848 -0.0561 -0.5138  0.0318
 9943TIP3    H154024   2.385   2.998  10.901  0.8142 -0.2332  0.7300
 9943TIP3    H254025   2.474   3.051  10.791 -0.7423 -0.6882 -0.8085
 9944TIP3   OH254026   4.647   4.458  11.361  0.2927  0.5439  0.0784
 9944TIP3    H154027   4.613   4.370  11.346  0.6807  0.5301 -0.7813
 9944TIP3    H254028   4.571   4.508  11.392 -0.1335  0.1138 -0.2528
 9945TIP3   OH254029   5.498   0.596  11.202 -0.1637  0.5558  0.5334
 9945TIP3    H154030   5.464   0.684  11.222 -0.3922  0.3353  1.1346
 9945TIP3    H254031   5.518   0.558  11.288 -1.7368 -0.6383  0.4052
 9946TIP3   OH254032   1.765   0.232  12.284 -0.5482  0.2657 -0.3985
 9946TIP3    H154033   1.838   0.174  12.266 -0.5248 -1.5912  4.2093
 9946TIP3    H254034   1.804   0.305  12.332 -1.3745  0.6070 -0.2335
 9947TIP3   OH254035   2.373   0.791  10.545 -0.2775 -0.5554 -0.5044
 9947TIP3    H154036   2.323   0.836  10.476 -2.0522 -0.4330  0.8020
 9947TIP3    H254037   2.307   0.764  10.608  1.4742  1.9622  2.6921
 9948TIP3   OH254038   1.181   2.809  12.028 -0.2324 -0.3309  0.2672
 9948TIP3    H154039   1.132   2.878  11.983 -0.2500  0.1664  1.0313
 9948TIP3    H254040   1.203   2.747  11.959  0.4503  0.8158 -0.5874
 9949TIP3   OH254041   3.343   6.887  11.603 -0.1850  0.0018  0.5786
 9949TIP3    H154042   3.381   6.973  11.585  1.3274 -0.7688 -0.0875
 9949TIP3    H254043   3.382   6.860  11.686 -0.8015  0.0337  0.8817
 9950TIP3   OH254044   0.259   3.744  11.191  0.5101 -0.2886  0.2390
 9950TIP3    H154045   0.330   3.681  11.184  0.4231 -0.4044  0.3907
 9950TIP3    H254046   0.280   3.812  11.127  1.7260  0.6237  1.5443
 9951TIP3   OH254047   3.902   4.842  12.088 -0.7842  0.2570  0.0999
 9951TIP3    H154048   3.910   4.893  12.168 -0.7170  0.1346  0.1718
 9951TIP3    H254049   3.901   4.907  12.018 -1.1930  0.3797  0.2208
 9952TIP3   OH254050   5.707   4.386  11.670 -0.2534 -0.4221 -0.0612
 9952TIP3    H154051   5.771   4.448  11.635 -1.0524  0.4126 -0.0731
 9952TIP3    H254052   5.750   4.349  11.747 -1.0280  2.7906  2.1327
 9953TIP3   OH254053   1.484   0.345  11.030 -0.1174 -0.3428 -0.0966
 9953TIP3    H154054   1.554   0.398  11.068  0.5373  0.3843 -2.1940
 9953TIP3    H254055   1.480   0.267  11.086  0.4101  0.8852  1.7322
 9954TIP3   OH254056   0.406   6.253  12.949 -0.7203  0.0567  0.0698
 9954TIP3    H154057   0.433   6.171  12.907 -0.1169  1.3946 -2.2717
 9954TIP3    H254058   0.317   6.235  12.980 -0.4310 -1.6164  0.0422
 9955TIP3   OH254059   1.362   6.417  11.457 -0.1193 -0.2267  0.5395
 9955TIP3    H154060   1.294   6.356  11.428 -0.3192  0.4634 -0.4680
 9955TIP3    H254061   1.376   6.475  11.383  0.3786  0.6913  1.3288
 9956TIP3   OH254062   2.028   0.375  12.345  0.1197  0.1092 -0.2083
 9956TIP3    H154063   2.047   0.376  12.439 -1.1747 -1.7930  0.1232
 9956TIP3    H254064   2.108   0.342  12.304 -0.0553 -1.2207  0.4788
 9957TIP3   OH254065   4.869   7.151  10.758 -0.1813 -0.2225 -0.3025
 9957TIP3    H154066   4.866   7.175  10.850 -0.9880  0.5502 -0.5152
 9957TIP3    H254067   4.801   7.204  10.717  1.1967  0.6338 -1.6084
 9958TIP3   OH254068   5.124   7.346  11.123 -0.5467  0.4645  0.5366
 9958TIP3    H154069   5.068   7.420  11.101 -0.2215  1.0467  1.5798
 9958TIP3    H254070   5.107   7.329  11.216  0.4353  0.1674  0.6829
 9959TIP3   OH254071   3.314   2.363  13.368 -0.2770  0.5168  0.1264
 9959TIP3    H154072   3.400   2.347  13.331  0.2273  3.1448 -0.0226
 9959TIP3    H254073   3.255   2.306  13.318  1.3128 -1.2779  0.1988
 9960TIP3   OH254074   4.830   4.903  10.650 -0.3998  0.4311 -0.5575
 9960TIP3    H154075   4.780   4.973  10.607 -0.8377  0.3911 -0.1140
 9960TIP3    H254076   4.921   4.932  10.644 -0.1811 -0.5083 -3.3353
 9961TIP3   OH254077   4.200   3.826  13.275 -0.1394 -0.1349  0.4804
 9961TIP3    H154078   4.195   3.888  13.202 -0.9662 -0.0189  0.6236
 9961TIP3    H254079   4.200   3.882  13.353 -2.6272 -0.3030  0.6858
 9962TIP3   OH254080   5.976   0.046  11.369  0.4518 -0.0531  0.5556
 9962TIP3    H154081   5.927   0.021  11.291  1.4906 -2.5621  0.5726
 9962TIP3    H254082   5.911   0.079  11.430 -0.3347  2.3467 -1.4470
 9963TIP3   OH254083   6.548   2.535  12.156 -0.1171 -0.1694  0.2397
 9963TIP3    H154084   6.543   2.444  12.187  2.3122  0.1493  1.8567
 9963TIP3    H254085   6.637   2.562  12.178 -0.1871  2.0535 -1.8749
 9964TIP3   OH254086   5.575   2.264  13.178  0.1539 -0.2286  0.4660
 9964TIP3    H154087   5.632   2.331  13.140 -0.4246  0.0512  0.0524
 9964TIP3    H254088   5.493   2.311  13.195 -0.4165 -0.9343 -0.2670
 9965TIP3   OH254089   6.625   2.919  13.110  0.5581  0.0548  0.1024
 9965TIP3    H154090   6.654   2.910  13.201 -0.2516 -0.4458  0.3275
 9965TIP3    H254091   6.593   3.009  13.105 -0.1763 -0.1639  0.5702
 9966TIP3   OH254092   5.501   7.161  12.397 -0.7968 -0.1318 -0.5481
 9966TIP3    H154093   5.503   7.207  12.313  0.7234  0.9549  0.0526
 9966TIP3    H254094   5.526   7.072  12.376 -0.8655  0.0193 -1.3032
 9967TIP3   OH254095   2.440   5.723  13.054 -0.2790  0.2798 -0.1558
 9967TIP3    H154096   2.403   5.733  12.966 -0.2701  0.9396 -0.0879
 9967TIP3    H254097   2.365   5.702  13.109 -0.4068  0.6623 -0.1840
 9968TIP3   OH254098   6.392   1.024  13.088 -0.0797  0.3912  0.6580
 9968TIP3    H154099   6.394   0.934  13.054 -1.9594  0.2696  0.7665
 9968TIP3    H254100   6.479   1.059  13.069  0.0646 -0.8246 -1.1251
 9969TIP3   OH254101   1.243   1.337  12.602  0.0114 -0.1989 -0.1629
 9969TIP3    H154102   1.231   1.426  12.569 -0.5191 -0.4132 -0.5757
 9969TIP3    H254103   1.223   1.343  12.695  0.8903  0.2906  0.0068
 9970TIP3   OH254104   0.118   2.105  11.238 -0.7590  0.1650 -0.3133
 9970TIP3    H154105   0.036   2.056  11.246 -1.1153  0.9105  0.7991
 9970TIP3    H254106   0.126   2.152  11.321  1.7072 -1.2756  0.3709
 9971TIP3   OH254107   5.529   3.617  12.964 -0.1767 -0.4666  0.1141
 9971TIP3    H154108   5.541   3.705  13.001 -0.7611  0.2313 -1.2714
 9971TIP3    H254109   5.438   3.595  12.982  0.0447 -0.9277  0.7084
 9972TIP3   OH254110   2.856   5.437  12.943  0.4769  0.2183  0.2464
 9972TIP3    H154111   2.941   5.456  12.903  0.8041  1.6185  1.4993
 9972TIP3    H254112   2.857   5.343  12.959  0.4540 -0.3719 -2.6408
 9973TIP3   OH254113   1.333   0.162  12.516  0.0469 -0.0940 -0.3690
 9973TIP3    H154114   1.421   0.154  12.480  1.2457  2.0187  1.8081
 9973TIP3    H254115   1.334   0.110  12.596 -0.6143  0.0990 -0.2248
 9974TIP3   OH254116   6.245   5.720  11.579  0.2027 -0.4906  0.0161
 9974TIP3    H154117   6.152   5.711  11.562  0.5716 -2.4589 -1.3011
 9974TIP3    H254118   6.283   5.742  11.494  0.8758  1.2602  0.7222
 9975TIP3   OH254119   1.600   1.037  11.002 -0.0828  0.5531  0.7379
 9975TIP3    H154120   1.688   1.030  11.039 -0.7389 -0.9557  2.1425
 9975TIP3    H254121   1.580   0.949  10.971 -0.4137  1.3015 -1.2730
 9976TIP3   OH254122   7.337   3.985  10.972 -0.2414  0.2209 -0.0982
 9976TIP3    H154123   7.251   4.024  10.985 -0.0963  1.4646 -2.3931
 9976TIP3    H254124   7.320   3.911  10.914  0.1333 -0.1092  0.2115
 9977TIP3   OH254125   0.250   1.861  11.537 -0.0273  0.1136  0.0052
 9977TIP3    H154126   0.286   1.788  11.588  0.4720  0.3647  0.0228
 9977TIP3    H254127   0.158   1.866  11.563 -0.5192 -1.5781 -1.2418
 9978TIP3   OH254128   1.124   1.077  11.663  0.4875 -0.1994 -0.0915
 9978TIP3    H154129   1.185   1.112  11.728  0.8940 -0.6301 -0.2340
 9978TIP3    H254130   1.088   1.154  11.619  0.2866  0.0895  0.5733
 9979TIP3   OH254131   7.387   5.960  11.863  0.2902 -0.5172 -0.9507
 9979TIP3    H154132   7.414   6.008  11.785  0.6898 -2.2544 -1.9469
 9979TIP3    H254133   7.319   5.900  11.831 -0.9386  0.0458  0.4462
 9980TIP3   OH254134   6.161   3.842  10.795  0.0169  0.3370  0.3349
 9980TIP3    H154135   6.184   3.799  10.713  3.8821  0.9988  0.8744
 9980TIP3    H254136   6.093   3.786  10.833  2.1033 -3.2281 -0.7300
 9981TIP3   OH254137   7.231   4.842  11.778 -0.0464  0.3835 -0.1556
 9981TIP3    H154138   7.297   4.870  11.842 -0.5167 -0.0592  0.5333
 9981TIP3    H254139   7.164   4.798  11.830 -0.7953  0.6528 -0.8753
 9982TIP3   OH254140   0.745   3.225  12.350 -0.2678 -0.2746 -0.2677
 9982TIP3    H154141   0.688   3.149  12.339 -1.2492  0.4257 -0.1034
 9982TIP3    H254142   0.739   3.247  12.443  1.4309 -1.0697  0.0706
 9983TIP3   OH254143   0.632   1.226  12.799  0.2289  0.1839 -0.5636
 9983TIP3    H154144   0.680   1.294  12.845 -0.8786  0.7486 -0.2257
 9983TIP3    H254145   0.551   1.215  12.849 -0.2381 -0.3804 -1.4135
 9984TIP3   OH254146   2.979   2.694  11.595  0.7256 -0.8255 -0.3384
 9984TIP3    H154147   2.941   2.686  11.508 -1.6803  0.4263  0.5049
 9984TIP3    H254148   2.939   2.623  11.645  0.6155 -0.3766  0.2163
 9985TIP3   OH254149   0.357   6.325  12.473 -0.8201  0.0594 -0.3464
 9985TIP3    H154150   0.415   6.249  12.468 -0.8131 -0.0576  1.1430
 9985TIP3    H254151   0.288   6.308  12.409  0.1377 -0.3486 -1.3023
 9986TIP3   OH254152   6.898   3.174  11.380 -0.0935 -0.3303 -0.3031
 9986TIP3    H154153   6.980   3.214  11.406 -0.8585 -0.2951  2.3523
 9986TIP3    H254154   6.840   3.248  11.360  0.2433 -0.3354 -1.3595
 9987TIP3   OH254155   4.463   5.362  10.824 -0.1965 -0.4361  0.3619
 9987TIP3    H154156   4.423   5.307  10.892  1.7900 -0.1511  1.8454
 9987TIP3    H254157   4.475   5.447  10.865  0.6213 -0.1226 -0.4814
 9988TIP3   OH254158   4.031   6.063  12.977  0.7089 -0.0775  0.3497
 9988TIP3    H154159   3.971   6.123  12.932 -0.4385 -0.8658  0.7909
 9988TIP3    H254160   4.050   5.996  12.912 -1.1170 -1.3330  1.0234
 9989TIP3   OH254161   0.049   6.256  12.086 -0.0192  0.4743  0.2650
 9989TIP3    H154162   0.029   6.349  12.097 -0.4788  0.1066  3.2623
 9989TIP3    H254163  -0.036   6.212  12.091  0.1962 -0.1721 -1.0637
 9990TIP3   OH254164   5.537   5.875  10.831  0.0640 -0.5416  0.2216
 9990TIP3    H154165   5.465   5.934  10.807  0.0522 -0.5922  0.1309
 9990TIP3    H254166   5.616   5.922  10.804  0.0203 -0.8843 -0.5352
 9991TIP3   OH254167   6.492   4.301  11.539  0.4200  0.1806  0.4129
 9991TIP3    H154168   6.506   4.306  11.444 -0.5646 -0.3553  0.2211
 9991TIP3    H254169   6.424   4.366  11.557  0.6438  0.3221  0.7636
 9992TIP3   OH254170   2.505   4.806  10.877  0.3093  1.3707  0.1370
 9992TIP3    H154171   2.491   4.783  10.786  2.2513  1.3665 -0.2011
 9992TIP3    H254172   2.586   4.857  10.877  1.2479 -0.0019  2.0236
 9993TIP3   OH254173   4.819   6.988  12.494 -0.0896 -0.1379 -0.0232
 9993TIP3    H154174   4.778   6.931  12.559  0.1054 -2.1615 -1.5624
 9993TIP3    H254175   4.900   7.019  12.536 -0.7271 -0.1186  1.2325
 9994TIP3   OH254176   5.270   6.975  12.555 -0.2280  0.1858  0.4732
 9994TIP3    H154177   5.262   7.032  12.479 -2.7741  0.2754  0.7244
 9994TIP3    H254178   5.270   6.886  12.519  1.7009  0.2480  0.2192
 9995TIP3   OH254179   6.634   1.718  10.565 -0.5538 -0.6539 -0.1076
 9995TIP3    H154180   6.645   1.739  10.658 -0.7660 -1.6390  0.1474
 9995TIP3    H254181   6.562   1.775  10.536  0.1399  0.3476  0.0805
 9996TIP3   OH254182   0.098   0.647  12.365  0.5505  0.6538 -0.4394
 9996TIP3    H154183   0.187   0.616  12.381  0.1186 -0.1980  0.4264
 9996TIP3    H254184   0.042   0.582  12.408 -0.4076  2.6685  1.5873
 9997TIP3   OH254185   0.945   3.839  11.209 -0.7157 -0.0036  0.0476
 9997TIP3    H154186   1.007   3.802  11.271 -0.0237  0.8050 -0.1430
 9997TIP3    H254187   0.876   3.774  11.202 -0.3039 -0.5462  0.9018
 9998TIP3   OH254188   2.106   4.849  10.478 -0.0292 -0.2204 -0.5001
 9998TIP3    H154189   2.162   4.924  10.500 -0.9188  0.2362  0.2533
 9998TIP3    H254190   2.017   4.884  10.480 -0.3783 -1.0129 -1.4020
 9999TIP3   OH254191   2.856   2.718  12.052 -0.3844 -0.2520 -0.6303
 9999TIP3    H154192   2.815   2.642  12.010  0.0987 -1.1846  0.5119
 9999TIP3    H254193   2.950   2.702  12.043 -0.2498 -0.7325  1.1481
10000TIP3   OH254194   0.234   6.563  13.411 -0.1097 -0.0676  0.0683
10000TIP3    H154195   0.147   6.604  13.415 -0.8197 -1.5533  0.6265
10000TIP3    H254196   0.279   6.609  13.341 -0.8968  1.5756  0.6008
10001TIP3   OH254197   0.099   4.481  12.238  0.1769  0.1253  0.1705
10001TIP3    H154198   0.162   4.449  12.304  0.2799 -1.7147 -0.7630
10001TIP3    H254199   0.086   4.407  12.180 -1.2921  1.1568 -0.8712
10002TIP3   OH254200   1.365   0.714  12.772  0.0085 -0.3660  0.0701
10002TIP3    H154201   1.417   0.634  12.760  2.7379  0.5207  4.0438
10002TIP3    H254202   1.290   0.686  12.825 -0.3381 -0.6321 -0.5466
10003TIP3   OH254203   5.016   5.541  12.004  0.1820  0.2742 -0.1716
10003TIP3    H154204   5.051   5.548  11.915 -0.0755 -1.8116 -0.4972
10003TIP3    H254205   4.964   5.461  12.003 -0.3080  0.5179  1.7159
10004TIP3   OH254206   4.067   3.689  12.780  0.0810  0.7131 -0.6090
10004TIP3    H154207   4.073   3.775  12.822  1.4529  0.8252 -0.9784
10004TIP3    H254208   4.133   3.636  12.824 -1.7192 -0.6366  0.6176
10005TIP3   OH254209   2.783   1.284  10.410  0.1509  0.1269  0.0602
10005TIP3    H154210   2.693   1.315  10.425  0.8147  1.6786  1.0354
10005TIP3    H254211   2.781   1.191  10.435 -1.2054  0.0976 -0.0745
10006TIP3   OH254212   2.517   6.510  10.221  0.4424  0.4125  0.4528
10006TIP3    H154213   2.586   6.553  10.270  0.6598  0.6045 -0.0103
10006TIP3    H254214   2.536   6.417  10.228  1.3059  0.5037 -0.4624
10007TIP3   OH254215   2.548   6.498  11.586 -0.2499  0.5250 -0.0657
10007TIP3    H154216   2.501   6.445  11.522  0.5408  0.7387 -0.8542
10007TIP3    H254217   2.639   6.467  11.579 -0.0563  0.9569  0.5329
10008TIP3   OH254218   2.460   3.568  11.837  0.0292  0.2447  0.1012
10008TIP3    H154219   2.476   3.511  11.913 -2.0699 -0.6301 -0.0518
10008TIP3    H254220   2.475   3.512  11.761 -0.7479  0.2564 -0.0693
10009TIP3   OH254221   0.906   5.824  12.394 -0.0578 -0.5263  0.2687
10009TIP3    H154222   0.948   5.738  12.388 -0.6081 -0.8216  0.6067
10009TIP3    H254223   0.813   5.806  12.382 -0.3172 -0.1308  1.5458
10010TIP3   OH254224   6.374   0.949  11.575  0.1723 -0.5235 -0.0776
10010TIP3    H154225   6.425   1.029  11.585 -0.6702 -0.0682  0.7843
10010TIP3    H254226   6.284   0.980  11.562 -0.2980 -1.3207  1.0894
10011TIP3   OH254227   5.839   4.895  12.778 -0.4756  0.3588 -0.2991
10011TIP3    H154228   5.886   4.894  12.862  2.2172 -1.1957 -1.6726
10011TIP3    H254229   5.758   4.848  12.796  0.0099  0.0973  1.4612
10012TIP3   OH254230   2.534   1.385  12.216  0.2557  0.7826 -0.1816
10012TIP3    H154231   2.504   1.343  12.135  1.7014 -0.6590 -0.0156
10012TIP3    H254232   2.491   1.335  12.285  0.6748  0.6547 -0.0135
10013TIP3   OH254233   7.627   2.762  13.063  0.0908  0.0101  0.0171
10013TIP3    H154234   7.544   2.740  13.022 -0.0678 -2.5049  1.4955
10013TIP3    H254235   7.607   2.834  13.122 -1.3321 -1.3099  1.2027
10014TIP3   OH254236   2.088   0.271  10.736 -0.7951  0.2547 -0.3875
10014TIP3    H154237   2.073   0.288  10.829  1.1016  2.9593 -0.4570
10014TIP3    H254238   2.126   0.183  10.734  1.2052  0.9515  1.7187
10015TIP3   OH254239   1.417   3.564  10.739  0.8695 -0.4443  0.3151
10015TIP3    H154240   1.385   3.481  10.703  0.8778 -0.1710 -0.3451
10015TIP3    H254241   1.507   3.571  10.705  1.2686 -0.6995  1.2900
10016TIP3   OH254242   4.468   1.963  10.844 -0.3656 -0.2129 -0.1602
10016TIP3    H154243   4.445   1.874  10.816 -0.0882 -0.5906  0.7626
10016TIP3    H254244   4.556   1.977  10.808 -0.1660 -0.5477  0.1827
10017TIP3   OH254245   2.645   6.628  11.166  0.4968 -0.2177 -0.3682
10017TIP3    H154246   2.681   6.683  11.236  1.1388 -0.2018 -0.7010
10017TIP3    H254247   2.616   6.690  11.100  1.0483 -0.2670 -0.6618
10018TIP3   OH254248   1.301   1.669  12.369  0.7557  0.4108 -0.0092
10018TIP3    H154249   1.251   1.696  12.292  2.0345  0.6212 -0.8064
10018TIP3    H254250   1.316   1.576  12.357 -0.3809  0.1145  0.7964
10019TIP3   OH254251   7.241   1.913  11.398  0.4800  0.3170 -0.0523
10019TIP3    H154252   7.301   1.915  11.323  1.0658 -1.1880  0.3223
10019TIP3    H254253   7.243   1.822  11.427 -2.7854 -0.0542 -0.6181
10020TIP3   OH254254   2.392   6.890  11.369  0.1036  0.0567 -0.2297
10020TIP3    H154255   2.473   6.924  11.329  0.5820  0.9626  1.3977
10020TIP3    H254256   2.322   6.931  11.318  0.6794  0.7653 -0.4866
10021TIP3   OH254257   3.285   2.627  12.064 -0.0416 -0.0277 -0.1542
10021TIP3    H154258   3.217   2.566  12.038 -0.5859  0.3737  0.2931
10021TIP3    H254259   3.274   2.636  12.159  1.2177 -0.6489  0.0704
10022TIP3   OH254260   0.574   6.849  13.125  0.1287 -0.1142  0.0109
10022TIP3    H154261   0.541   6.866  13.213 -0.8110 -3.3010  0.4128
10022TIP3    H254262   0.663   6.819  13.138  0.6893  1.3161 -0.3662
10023TIP3   OH254263   5.761   3.186  12.874 -0.3721 -0.3713 -0.4276
10023TIP3    H154264   5.716   3.109  12.909 -2.1386  1.6863  2.3019
10023TIP3    H254265   5.853   3.162  12.875 -0.8485 -2.4274  0.3499
10024TIP3   OH254266   0.096   7.568  12.411 -0.0506  0.1069  0.0343
10024TIP3    H154267   0.135   7.607  12.333  1.1272 -0.2200  0.4466
10024TIP3    H254268   0.026   7.512  12.377  1.4176 -1.2283 -0.9356
10025TIP3   OH254269   4.750   4.855  11.250 -0.6927  0.2871  0.0414
10025TIP3    H154270   4.838   4.817  11.246 -1.5092 -1.6951 -1.1509
10025TIP3    H254271   4.721   4.841  11.340 -0.2192 -0.1586  0.1292
10026TIP3   OH254272   6.446   2.727  12.797  0.4520 -0.1810 -0.1731
10026TIP3    H154273   6.525   2.722  12.851 -0.7408  2.3801  2.1040
10026TIP3    H254274   6.412   2.637  12.796  3.4762 -1.4668 -1.6185
10027TIP3   OH254275   2.483   5.024  11.092  0.0707  0.7044 -0.6244
10027TIP3    H154276   2.465   5.117  11.077  1.9174  1.1226 -0.4717
10027TIP3    H254277   2.477   4.984  11.005 -0.5466  0.9837 -0.7183
10028TIP3   OH254278   1.541   2.781  11.968  0.1343  0.3721 -0.4120
10028TIP3    H154279   1.503   2.814  12.049  2.8304  1.5633  0.4803
10028TIP3    H254280   1.535   2.686  11.975  0.7143  0.4351  1.4518
10029TIP3   OH254281   1.159   0.568  11.450 -0.8232  0.0903  0.1020
10029TIP3    H154282   1.104   0.641  11.421 -0.9611 -0.7477 -1.9194
10029TIP3    H254283   1.211   0.545  11.374 -0.4866 -1.6601  0.8048
10030TIP3   OH254284   3.282   5.627  11.224  0.6334  0.7285  0.0896
10030TIP3    H154285   3.272   5.634  11.129  0.4842 -0.5274 -0.0089
10030TIP3    H254286   3.195   5.604  11.256  0.8307  0.4767  0.4541
10031TIP3   OH254287   3.244   3.042  11.124 -0.1856  0.1882  0.4027
10031TIP3    H154288   3.274   3.133  11.118  0.9976 -0.1731  0.3876
10031TIP3    H254289   3.243   3.023  11.217 -0.3956  0.2026  0.4039
10032TIP3   OH254290   5.509   7.380  11.416 -0.2935 -0.2728  0.2204
10032TIP3    H154291   5.558   7.337  11.486 -0.6202  2.9057  2.6654
10032TIP3    H254292   5.576   7.428  11.366 -0.3114 -0.7179 -0.2398
10033TIP3   OH254293   4.963   5.430  12.435 -0.0175 -0.5185  0.1887
10033TIP3    H154294   5.001   5.506  12.479 -0.5468 -0.4446  0.5251
10033TIP3    H254295   5.024   5.411  12.363 -0.2412  0.6613 -0.3369
10034TIP3   OH254296   7.388   0.374  10.953  0.5413 -0.2609 -0.4111
10034TIP3    H154297   7.390   0.450  10.895  1.4333 -0.2945 -0.4499
10034TIP3    H254298   7.377   0.300  10.895 -4.0523 -0.0211 -0.1535
10035TIP3   OH254299   1.605   1.977  11.301  0.1083 -0.2119 -0.7841
10035TIP3    H154300   1.560   2.002  11.220  1.0331 -1.0027 -1.5648
10035TIP3    H254301   1.539   1.931  11.352 -0.8213  1.3326 -0.5482
10036TIP3   OH254302   6.765   0.351  11.581 -0.5155 -0.2895 -0.4516
10036TIP3    H154303   6.740   0.441  11.601  0.5091  0.2030 -1.2869
10036TIP3    H254304   6.775   0.349  11.485 -1.5500 -1.5688 -0.5683
10037TIP3   OH254305   3.032   0.901  10.994  0.0841 -0.0986 -0.3211
10037TIP3    H154306   3.052   0.988  11.028  2.0372 -0.6077 -0.0059
10037TIP3    H254307   2.966   0.866  11.053  1.2264  0.1749  1.1755
10038TIP3   OH254308   5.211   4.967  11.161  0.1062  0.1971 -0.0189
10038TIP3    H154309   5.306   4.958  11.171  0.4948  4.2710  1.7633
10038TIP3    H254310   5.175   4.947  11.247 -0.1561  2.5660  0.4699
10039TIP3   OH254311   4.185   3.424  12.167  0.1991 -0.2479 -0.4690
10039TIP3    H154312   4.228   3.403  12.084  0.6327  2.4146 -1.0323
10039TIP3    H254313   4.126   3.497  12.145  0.3691  0.5735  1.5620
10040TIP3   OH254314   3.251   4.046  10.626 -0.0545 -0.6035 -0.6960
10040TIP3    H154315   3.227   3.969  10.574 -1.1005 -2.2897  2.0510
10040TIP3    H254316   3.321   4.015  10.684 -1.2385  0.1373  1.2265
10041TIP3   OH254317   6.689   4.795  12.074  0.1270  0.1535  0.4827
10041TIP3    H154318   6.654   4.775  12.161  1.9239 -0.1172  1.1738
10041TIP3    H254319   6.784   4.799  12.086  0.3465  1.1967 -1.2524
10042TIP3   OH254320   2.461   6.350  11.346 -0.2233  0.6772  0.0885
10042TIP3    H154321   2.419   6.435  11.332  0.8869  1.3312  0.5361
10042TIP3    H254322   2.395   6.286  11.320 -1.7051  1.6180  1.3449
10043TIP3   OH254323   1.463   4.736  12.202  0.3770  0.0749  0.3605
10043TIP3    H154324   1.458   4.711  12.110  3.5490  1.8232 -0.4519
10043TIP3    H254325   1.465   4.653  12.250 -0.6893 -0.8771 -1.1752
10044TIP3   OH254326   2.060   7.180  11.524 -0.1473  0.2144  0.1940
10044TIP3    H154327   1.989   7.180  11.588  1.7889 -1.6290  2.5373
10044TIP3    H254328   2.061   7.090  11.490  1.6425 -0.0827  0.9549
10045TIP3   OH254329   0.193   1.500  11.981  0.0661 -0.5993  0.8894
10045TIP3    H154330   0.253   1.457  12.043 -1.8471 -3.6976  0.8175
10045TIP3    H254331   0.119   1.440  11.974 -0.1806 -0.0975 -3.8414
10046TIP3   OH254332   2.491   0.081  10.669 -0.0560  0.3228 -0.8002
10046TIP3    H154333   2.522   0.007  10.616  0.5191  0.0453 -0.1044
10046TIP3    H254334   2.542   0.075  10.750 -0.5059  1.0734 -0.4478
10047TIP3   OH254335   3.102   6.578  13.438 -0.5508 -0.3895  0.4509
10047TIP3    H154336   3.156   6.657  13.446 -2.4670  0.9277  1.3769
10047TIP3    H254337   3.123   6.543  13.352  0.4096  1.1170  0.0277
10048TIP3   OH254338   1.523   3.629  13.272 -0.0794  0.0766 -0.2127
10048TIP3    H154339   1.608   3.588  13.287 -0.3370 -0.1669  0.6751
10048TIP3    H254340   1.460   3.572  13.317 -0.6465  0.5401 -0.3962
10049TIP3   OH254341   6.452   7.099  12.594 -0.5565  0.3316  0.2310
10049TIP3    H154342   6.503   7.175  12.622  0.3359 -0.3885  0.6186
10049TIP3    H254343   6.514   7.047  12.542 -0.9276 -0.4949  0.6058
10050TIP3   OH254344   3.623   6.938  10.966  0.1159 -0.1315 -0.5249
10050TIP3    H154345   3.599   6.872  10.901  1.3258 -0.1339 -0.9961
10050TIP3    H254346   3.717   6.927  10.979 -0.1276 -0.2826  1.4365
10051TIP3   OH254347   5.478   1.506  10.760  0.2552 -0.0293 -0.2010
10051TIP3    H154348   5.430   1.522  10.842  1.9287 -1.0141  1.0309
10051TIP3    H254349   5.477   1.411  10.749  2.4048 -0.1677  0.2433
10052TIP3   OH254350   1.455   6.566  11.243 -0.0254  0.1877  0.6545
10052TIP3    H154351   1.538   6.612  11.262  0.1449 -0.6389  2.0801
10052TIP3    H254352   1.469   6.526  11.157  0.2935  1.7238 -0.0394
10053TIP3   OH254353   2.562   5.209  11.716  0.3330  0.4840  0.3923
10053TIP3    H154354   2.561   5.255  11.632 -0.2370  1.0779  0.7098
10053TIP3    H254355   2.472   5.216  11.748  0.2937 -0.6678  0.5630
10054TIP3   OH254356   2.084   3.220  12.219 -0.7440 -0.2480  0.1361
10054TIP3    H154357   2.158   3.255  12.269  0.5393 -1.1069 -1.0536
10054TIP3    H254358   2.047   3.152  12.275  1.0270 -1.5946 -0.2363
10055TIP3   OH254359   3.796   1.272  13.340 -0.4556 -0.8098 -0.5293
10055TIP3    H154360   3.772   1.306  13.254 -0.1749 -0.3331 -0.4285
10055TIP3    H254361   3.714   1.238  13.377 -0.7087 -0.4133 -0.7198
10056TIP3   OH254362   5.650   6.406  12.810 -0.2797  0.1315  0.4294
10056TIP3    H154363   5.733   6.374  12.844  0.4233 -0.2963 -1.5449
10056TIP3    H254364   5.610   6.453  12.884  1.1676 -0.6305  1.7528
10057TIP3   OH254365   3.574   3.300  12.957  0.5362  0.2034  0.1806
10057TIP3    H154366   3.613   3.259  12.879 -1.6696  0.0067 -0.9055
10057TIP3    H254367   3.604   3.391  12.953 -0.9391  0.6757 -1.9829
10058TIP3   OH254368   3.575   0.101  12.134  0.1516  0.1029  0.0352
10058TIP3    H154369   3.587   0.076  12.042  0.5969 -3.0542  0.8390
10058TIP3    H254370   3.661   0.088  12.173 -0.6294 -1.2984  1.4093
10059TIP3   OH254371   6.964   1.755  11.706 -0.6253  0.1090  0.5658
10059TIP3    H154372   7.056   1.778  11.702 -0.4387 -0.6833  0.0365
10059TIP3    H254373   6.918   1.831  11.671 -0.1757  0.4995  0.8175
10060TIP3   OH254374   0.577   2.744  10.946  0.0730  0.3614 -0.1871
10060TIP3    H154375   0.528   2.669  10.912  2.1935 -1.7876  1.1772
10060TIP3    H254376   0.668   2.726  10.922  1.1625  0.5485  3.3264
10061TIP3   OH254377   3.879   3.542  11.575 -0.3209 -0.7629 -0.2091
10061TIP3    H154378   3.866   3.569  11.666  0.8184  1.4359 -0.6436
10061TIP3    H254379   3.963   3.497  11.575  0.7732  1.2032 -0.5088
10062TIP3   OH254380   2.806   0.970  10.350 -0.2177 -0.0759 -0.2011
10062TIP3    H154381   2.761   1.013  10.277 -0.4181 -0.0010 -0.0336
10062TIP3    H254382   2.741   0.910  10.386 -0.4455  0.5997  0.5334
10063TIP3   OH254383   6.808   3.893  12.760  0.0677  0.2700  0.0894
10063TIP3    H154384   6.862   3.940  12.696  0.7313  0.9027  1.0899
10063TIP3    H254385   6.732   3.951  12.774 -0.9530 -0.6403 -1.3527
10064TIP3   OH254386   7.640   5.332  12.490 -0.1547  0.3606 -0.1983
10064TIP3    H154387   7.631   5.275  12.566 -0.8522 -0.0855 -0.6079
10064TIP3    H254388   7.702   5.400  12.518 -1.3721  0.9388  1.2049
10065TIP3   OH254389   5.024   7.605  11.107  0.5413 -0.4349 -0.0094
10065TIP3    H154390   4.997   7.697  11.102 -0.2224 -0.6546  0.0169
10065TIP3    H254391   5.115   7.609  11.136  0.8102  0.3472 -0.8774
10066TIP3   OH254392   7.301   2.343  11.671  0.3833 -0.9277  0.0675
10066TIP3    H154393   7.312   2.248  11.667  0.0106 -0.9372 -1.8593
10066TIP3    H254394   7.226   2.357  11.728  0.8319 -1.7379  0.8833
10067TIP3   OH254395   2.315   3.399  12.297  0.3307  0.5334  0.6871
10067TIP3    H154396   2.394   3.348  12.316  1.5581  1.9553 -0.3240
10067TIP3    H254397   2.348   3.482  12.263 -1.6158  1.4320  0.8657
10068TIP3   OH254398   0.727   7.278  12.047  0.5130  0.1776 -0.7805
10068TIP3    H154399   0.801   7.234  12.089 -0.0905  0.3226  0.5027
10068TIP3    H254400   0.735   7.369  12.076 -0.7483 -0.0165  0.2627
10069TIP3   OH254401   6.299   3.679  11.800 -0.2083  0.3522 -0.4581
10069TIP3    H154402   6.239   3.699  11.729 -1.4232 -1.0025  0.1384
10069TIP3    H254403   6.243   3.661  11.875  1.0026  0.4228  0.5013
10070TIP3   OH254404   4.509   4.551  10.765 -0.1499  0.1424 -0.3954
10070TIP3    H154405   4.551   4.583  10.844 -1.2062  2.8293 -0.8200
10070TIP3    H254406   4.540   4.460  10.756  0.5315 -0.0177  2.6502
10071TIP3   OH254407   6.198   6.002  11.368  0.6483 -0.4420 -0.1183
10071TIP3    H154408   6.270   5.973  11.423  0.9868 -0.6998 -0.6972
10071TIP3    H254409   6.218   6.094  11.349  0.7879 -0.4925 -0.2180
10072TIP3   OH254410   5.182   1.892  12.712  0.1034 -0.3907  0.5839
10072TIP3    H154411   5.180   1.947  12.633 -0.6233 -1.4267 -0.1508
10072TIP3    H254412   5.121   1.821  12.693  1.1366 -1.5456  1.4230
10073TIP3   OH254413   1.112   3.716  11.399  0.4948 -0.2416 -0.4684
10073TIP3    H154414   1.124   3.708  11.493  0.5445  1.6675 -0.2832
10073TIP3    H254415   1.197   3.746  11.367  0.3793 -0.5559 -1.0883
10074TIP3   OH254416   4.412   2.123  12.656  0.0992 -0.3096  0.3656
10074TIP3    H154417   4.396   2.071  12.735 -0.1184  0.7760  1.0526
10074TIP3    H254418   4.325   2.142  12.622  0.1132  0.7062  0.8619
10075TIP3   OH254419   1.211   3.017  10.219  0.0278 -0.2118  0.2388
10075TIP3    H154420   1.149   2.950  10.248  2.0243 -1.6735  1.4529
10075TIP3    H254421   1.273   2.969  10.164  0.4310  1.0707 -0.4529
10076TIP3   OH254422   4.106   0.340  11.776 -0.5810  0.3416  0.0490
10076TIP3    H154423   4.162   0.414  11.800  0.3181 -0.0467 -0.7719
10076TIP3    H254424   4.141   0.310  11.692 -2.8941  0.9487 -1.2216
10077TIP3   OH254425   1.932   5.414  12.045 -0.2289  0.0618  0.6674
10077TIP3    H154426   1.960   5.497  12.005 -2.1467  0.3042 -0.2952
10077TIP3    H254427   1.943   5.349  11.976 -0.2916 -0.1618  0.8676
10078TIP3   OH254428   1.684   6.104  12.117 -0.0509  0.4552  0.0444
10078TIP3    H154429   1.754   6.100  12.182 -0.2502 -2.5329  0.2316
10078TIP3    H254430   1.720   6.060  12.040 -0.3976  2.4503 -1.3423
10079TIP3   OH254431   6.842   7.656  11.722 -0.2003  0.3570 -0.3120
10079TIP3    H154432   6.864   7.605  11.800 -0.0566 -0.9596 -1.1990
10079TIP3    H254433   6.780   7.722  11.754 -1.9801 -1.5959  0.5171
10080TIP3   OH254434   4.204   0.943  10.415  0.0221  0.0695  0.5402
10080TIP3    H154435   4.243   0.857  10.434 -0.5353 -0.1386  0.7793
10080TIP3    H254436   4.266   1.006  10.451  0.0705 -0.2579  1.0438
10081TIP3   OH254437   2.298   4.467  11.761 -0.3201 -0.2471  0.3540
10081TIP3    H154438   2.350   4.417  11.824  1.3507  0.2550 -0.5578
10081TIP3    H254439   2.326   4.434  11.676 -0.8016  0.7239 -0.1930
10082TIP3   OH254440   3.898   3.532  12.410 -0.0635 -0.4587  0.0084
10082TIP3    H154441   3.976   3.499  12.457 -0.4353 -0.5451  0.5818
10082TIP3    H254442   3.831   3.466  12.428 -0.2937 -0.3344 -0.4054
10083TIP3   OH254443   5.876   2.060  11.814  0.2770  0.2378 -0.4512
10083TIP3    H154444   5.806   2.086  11.754 -0.1120 -1.3223 -0.7040
10083TIP3    H254445   5.861   2.113  11.892 -1.5213 -0.4495 -0.2866
10084TIP3   OH254446   6.361   2.715  12.390  0.6646 -0.1466  0.0086
10084TIP3    H154447   6.382   2.635  12.439  1.0398 -0.6240 -0.9016
10084TIP3    H254448   6.372   2.786  12.453  1.0841 -0.7519  0.6276
10085TIP3   OH254449   5.022   0.116  12.049  0.4756  0.5954  0.0301
10085TIP3    H154450   4.975   0.055  12.105  0.4169  0.7063  0.1020
10085TIP3    H254451   5.113   0.086  12.052  0.0514 -1.1466 -2.0871
10086TIP3   OH254452   4.584   6.363  11.013  0.2606  0.2073 -0.3515
10086TIP3    H154453   4.671   6.323  11.009 -0.1307 -0.5525 -1.7384
10086TIP3    H254454   4.596   6.451  10.977  0.5569  0.3462  0.0658
10087TIP3   OH254455   2.688   3.528  11.440 -0.2216  0.1672 -0.3143
10087TIP3    H154456   2.710   3.452  11.495  1.7228  0.0955 -1.1107
10087TIP3    H254457   2.594   3.519  11.423 -0.5179 -0.7715  1.5080
10088TIP3   OH254458   1.861   2.381  11.120  0.2826  0.0382 -0.1199
10088TIP3    H154459   1.915   2.312  11.082  0.4001  1.3611 -2.5787
10088TIP3    H254460   1.775   2.341  11.131  0.7628 -0.9604  0.0865
10089TIP3   OH254461   3.535   4.561  11.732  0.4530  0.0356 -0.1614
10089TIP3    H154462   3.579   4.486  11.771 -0.8377 -0.7884 -0.2629
10089TIP3    H254463   3.466   4.523  11.678  0.8674  1.2252 -1.6085
10090TIP3   OH254464   7.455   1.251  12.600 -0.1258  0.2507  0.1961
10090TIP3    H154465   7.449   1.194  12.524 -0.0311 -0.0203  0.3892
10090TIP3    H254466   7.436   1.194  12.674  0.2718  0.4019  0.4178
10091TIP3   OH254467   7.180   5.673  12.358 -0.0659 -0.1055 -0.0858
10091TIP3    H154468   7.147   5.762  12.375  2.2705  1.0352 -1.1720
10091TIP3    H254469   7.126   5.617  12.415 -0.4870  2.1819  1.9550
10092TIP3   OH254470   4.630   5.700  11.129 -0.1076  0.2040 -0.2424
10092TIP3    H154471   4.679   5.746  11.198 -1.7704  0.9082  0.5183
10092TIP3    H254472   4.677   5.618  11.117  0.6617  0.4001  1.1898
10093TIP3   OH254473   1.836   2.046  12.992 -0.2142 -0.2035  0.4980
10093TIP3    H154474   1.845   2.138  13.017  0.1435 -0.2525  0.5525
10093TIP3    H254475   1.799   2.003  13.069 -2.1174  0.2113 -0.1183
10094TIP3   OH254476   2.709   2.921  12.136 -0.4341  0.2728  0.2555
10094TIP3    H154477   2.762   2.998  12.114 -0.8555  0.2854 -0.8176
10094TIP3    H254478   2.756   2.848  12.097  0.9139 -0.3126  2.7966
10095TIP3   OH254479   0.188   1.519  10.862 -0.0262  0.5965 -0.2219
10095TIP3    H154480   0.237   1.544  10.940  0.5934  0.7535 -0.6547
10095TIP3    H254481   0.251   1.472  10.808 -0.2487  1.1045 -0.9421
10096TIP3   OH254482   4.489   4.948  11.469 -0.2345 -0.1831 -0.7559
10096TIP3    H154483   4.555   4.879  11.460  1.1663  1.1825 -1.4361
10096TIP3    H254484   4.406   4.904  11.449  0.6506 -1.5871 -1.5410
10097TIP3   OH254485   0.378   2.107  11.593 -0.2339  0.1253 -0.2882
10097TIP3    H154486   0.336   2.026  11.564  0.1821  0.0276 -0.6261
10097TIP3    H254487   0.372   2.103  11.689 -0.0095 -0.4226 -0.2898
10098TIP3   OH254488   6.682   1.209  10.633 -0.2125 -0.2185  0.0504
10098TIP3    H154489   6.743   1.141  10.661  1.0200 -0.0493 -2.0199
10098TIP3    H254490   6.623   1.221  10.708  0.7173 -2.1810  1.1745
10099TIP3   OH254491   3.312   2.944  10.857  0.0724  0.0024  0.3723
10099TIP3    H154492   3.309   2.850  10.877 -3.2290  0.0761  0.7690
10099TIP3    H254493   3.281   2.986  10.937  0.1058  1.3375 -0.2963
10100TIP3   OH254494   5.606   0.488  10.690  0.1961 -0.2113 -0.0346
10100TIP3    H154495   5.653   0.407  10.673 -1.4417 -1.2921  0.4121
10100TIP3    H254496   5.536   0.490  10.624 -0.4603  0.2708  0.6517
10101TIP3   OH254497   7.191   2.606  11.623  0.4419 -0.1417 -0.0666
10101TIP3    H154498   7.280   2.582  11.595  0.8059  0.0715  0.8594
10101TIP3    H254499   7.151   2.523  11.647  0.9166 -0.0924  0.9465
10102TIP3   OH254500   6.339   3.725  11.171 -0.2147 -0.3288 -0.0467
10102TIP3    H154501   6.305   3.762  11.253  2.0370 -1.8923  1.7254
10102TIP3    H254502   6.312   3.633  11.173 -1.2559 -0.0811 -1.7504
10103TIP3   OH254503   5.591   7.433  12.949  0.2632 -0.1579  0.1137
10103TIP3    H154504   5.683   7.453  12.966  0.0627 -0.1673  1.3394
10103TIP3    H254505   5.543   7.510  12.982 -0.2021 -0.4019  0.0174
10104TIP3   OH254506   6.939   0.045  11.022  1.2008 -0.2620  0.1600
10104TIP3    H154507   7.000  -0.025  11.047  0.3752 -0.8603  0.5512
10104TIP3    H254508   6.985   0.126  11.044  1.9416 -0.6989  0.2455
10105TIP3   OH254509   1.079   1.374  11.058  0.3480  0.2701  0.2885
10105TIP3    H154510   1.022   1.343  10.988  1.2120 -0.5661 -0.0564
10105TIP3    H254511   1.087   1.299  11.117  0.5512  0.6018  0.6851
10106TIP3   OH254512   5.629   2.365  10.655 -0.3209  0.0222  0.8838
10106TIP3    H154513   5.607   2.332  10.742 -0.7020 -1.5303  0.2392
10106TIP3    H254514   5.714   2.325  10.635 -0.8570 -0.7446  0.0320
10107TIP3   OH254515   4.996   0.550  12.683  0.0380 -0.2233  0.3627
10107TIP3    H154516   5.042   0.613  12.738  1.8865 -0.0771 -1.2419
10107TIP3    H254517   5.059   0.479  12.670 -1.2071 -1.3543  0.3305
10108TIP3   OH254518   4.313   0.805  12.420 -0.2235  0.1911  0.5283
10108TIP3    H154519   4.328   0.812  12.514 -0.5941  0.0458  0.5995
10108TIP3    H254520   4.319   0.895  12.388 -1.1655  0.3850  0.8563
10109TIP3   OH254521   6.729   7.657  11.484 -0.4624 -0.7305  0.1571
10109TIP3    H154522   6.766   7.637  11.570  0.6987  0.3657 -0.0599
10109TIP3    H254523   6.637   7.674  11.501  0.2526  2.2443  1.6873
10110TIP3   OH254524   2.699   1.018  13.081 -0.4513  0.1268 -0.3924
10110TIP3    H154525   2.698   0.925  13.105 -0.1222  0.3503  0.5676
10110TIP3    H254526   2.631   1.027  13.015 -1.6863 -0.5046  0.7290
10111TIP3   OH254527   5.269   0.932  13.041 -0.0443 -0.1949  0.1176
10111TIP3    H154528   5.309   0.992  13.104 -0.8727 -0.9924  1.4723
10111TIP3    H254529   5.188   0.976  13.015  0.8318  0.6512 -1.3216
10112TIP3   OH254530   6.899   7.081  11.949  0.7838  0.0400  0.4311
10112TIP3    H154531   6.984   7.098  11.910  0.9949 -0.7690  0.5201
10112TIP3    H254532   6.901   6.989  11.973  0.7525  0.5402  2.5761
10113TIP3   OH254533   2.242   4.055  12.216 -0.2049 -0.2568 -0.3560
10113TIP3    H154534   2.154   4.068  12.182 -0.6892 -0.9378  0.5991
10113TIP3    H254535   2.230   4.000  12.294  0.7284  2.1128  1.5844
10114TIP3   OH254536   5.038   0.807  11.384  0.9489  0.5630 -0.4762
10114TIP3    H154537   4.989   0.783  11.306  1.0114 -1.6060  0.0660
10114TIP3    H254538   5.120   0.843  11.352  1.3640 -1.1441 -1.4821
10115TIP3   OH254539   6.726   3.127  12.850 -0.3592  0.2428 -0.1118
10115TIP3    H154540   6.712   3.203  12.793 -0.7034  0.0070 -0.3456
10115TIP3    H254541   6.810   3.090  12.822 -0.4720  0.1951 -0.3885
10116TIP3   OH254542   0.940   6.123  10.186  0.2641  0.3430  0.2951
10116TIP3    H154543   0.854   6.136  10.146 -0.3481 -0.6027  1.2643
10116TIP3    H254544   0.938   6.176  10.266  0.4525  0.0266  0.5097
10117TIP3   OH254545   5.310   7.598  11.219 -0.3500 -0.0436  0.1215
10117TIP3    H154546   5.355   7.519  11.188 -1.0130 -0.2588 -0.3198
10117TIP3    H254547   5.381   7.657  11.244  0.1688 -0.5844 -0.0223
10118TIP3   OH254548   5.267   6.260  12.197 -0.3297  0.3230  0.2807
10118TIP3    H154549   5.336   6.194  12.193 -0.3607  0.2610  0.7265
10118TIP3    H254550   5.279   6.313  12.118 -0.5364 -0.4448 -0.2745
10119TIP3   OH254551   5.815   3.319  11.302  0.5167 -0.2599 -0.2701
10119TIP3    H154552   5.844   3.400  11.343 -0.0940  0.2555 -0.8358
10119TIP3    H254553   5.817   3.337  11.208 -1.3126 -0.2951 -0.3525
10120TIP3   OH254554   3.347   5.852  13.257 -0.5992 -0.5147 -0.5946
10120TIP3    H154555   3.361   5.938  13.296 -1.7759 -0.9563  0.9134
10120TIP3    H254556   3.257   5.855  13.223 -1.0672 -1.4685  0.4709
10121TIP3   OH254557   6.810   5.286  13.011 -0.7965  0.0430 -0.2637
10121TIP3    H154558   6.846   5.298  13.099  0.4040  0.2565 -0.7566
10121TIP3    H254559   6.746   5.216  13.019  0.3512 -0.9500  0.5119
10122TIP3   OH254560   3.049   5.579  11.860  0.1157 -0.0674 -0.5221
10122TIP3    H154561   2.963   5.544  11.836  0.6892 -1.9584  0.0466
10122TIP3    H254562   3.096   5.586  11.777  0.1622 -1.1654 -0.6004
10123TIP3   OH254563   6.897   2.231  12.692 -0.1874 -0.0968 -0.2028
10123TIP3    H154564   6.988   2.226  12.720 -0.1445  0.8922 -0.1019
10123TIP3    H254565   6.859   2.147  12.715  0.6610 -0.4595 -0.1012
10124TIP3   OH254566   4.739   5.100  11.776 -0.4288  0.0311 -0.0072
10124TIP3    H154567   4.774   5.048  11.849  0.4624  0.8817  0.1851
10124TIP3    H254568   4.648   5.116  11.800 -0.8408 -1.7406 -0.2448
10125TIP3   OH254569   3.976   6.086  12.328 -0.3305 -0.2774 -0.0309
10125TIP3    H154570   3.930   6.017  12.281 -0.8875  0.2987 -0.3437
10125TIP3    H254571   4.030   6.039  12.392  0.7245 -1.1004 -1.4584
10126TIP3   OH254572   0.514   2.224  12.872  0.0802 -0.3202 -0.5631
10126TIP3    H154573   0.537   2.273  12.950 -0.7817 -2.7121  1.3486
10126TIP3    H254574   0.587   2.163  12.859 -1.0289 -1.9053  0.2121
10127TIP3   OH254575   7.594   5.184  12.253 -0.0590  0.9452 -0.0755
10127TIP3    H154576   7.523   5.246  12.238 -0.0427  1.3663  1.4255
10127TIP3    H254577   7.623   5.201  12.342 -0.7054 -1.8540  0.7923
10128TIP3   OH254578   3.468   4.511  12.372 -0.5806 -0.5679 -0.0546
10128TIP3    H154579   3.418   4.593  12.372  0.3953  0.0342 -0.4815
10128TIP3    H254580   3.510   4.508  12.458  2.1107  1.1066 -1.1933
10129TIP3   OH254581   3.451   3.318  11.997 -0.1143 -0.5041 -0.2607
10129TIP3    H154582   3.382   3.256  11.973 -1.6230  1.5231 -1.4538
10129TIP3    H254583   3.413   3.404  11.980  2.4021  0.7349 -0.0395
10130TIP3   OH254584   6.315   5.808  12.207 -0.1791 -0.4212  0.6652
10130TIP3    H154585   6.321   5.728  12.259 -0.2144 -0.7204  0.2131
10130TIP3    H254586   6.221   5.819  12.190 -0.2397  0.1012  1.3175
10131TIP3   OH254587   0.633   3.559  11.219  0.4374 -0.0393 -0.0491
10131TIP3    H154588   0.580   3.507  11.280  0.6200  0.7568  0.8029
10131TIP3    H254589   0.721   3.558  11.257  1.1001 -1.4248 -1.5012
10132TIP3   OH254590   2.801   3.146  10.679  0.0398  0.5343  0.2201
10132TIP3    H154591   2.715   3.106  10.694  0.7327 -1.5636 -0.9744
10132TIP3    H254592   2.864   3.079  10.707  1.3196  1.8801  0.7212
10133TIP3   OH254593   2.205   2.754  12.637 -0.5088 -0.0983 -0.3450
10133TIP3    H154594   2.173   2.832  12.682  0.1601  0.0447 -0.1029
10133TIP3    H254595   2.129   2.721  12.589 -1.1755 -0.1164  0.6893
10134TIP3   OH254596   0.326   2.872  12.593  0.1402 -0.0018  0.3777
10134TIP3    H154597   0.312   2.937  12.525 -0.2410 -1.2891 -0.8366
10134TIP3    H254598   0.398   2.906  12.646  0.6142  0.9016 -0.8235
10135TIP3   OH254599   2.565   6.146  12.832 -0.7745  0.2588  0.2871
10135TIP3    H154600   2.556   6.075  12.769  2.4419  0.0755 -0.1418
10135TIP3    H254601   2.476   6.164  12.862 -1.8375 -3.1688 -0.4132
10136TIP3   OH254602   6.379   1.498  11.465  0.7898  0.1498 -0.3192
10136TIP3    H154603   6.429   1.433  11.514 -0.6229  0.0835  1.1491
10136TIP3    H254604   6.352   1.452  11.385  1.0836 -0.5698 -0.0130
10137TIP3   OH254605   5.492   4.117  10.806 -0.1962  0.0966  0.5495
10137TIP3    H154606   5.475   4.034  10.760  1.9261 -0.5270  0.7947
10137TIP3    H254607   5.433   4.115  10.881 -1.3250 -0.4284 -0.3149
10138TIP3   OH254608   4.402   3.282  11.465  0.0643  0.2371 -0.4306
10138TIP3    H154609   4.331   3.263  11.526  1.5902 -0.9708  1.0678
10138TIP3    H254610   4.421   3.199  11.422  0.2844  0.6473 -1.1614
10139TIP3   OH254611   6.417   7.314  12.060  0.2832 -0.2255  0.6183
10139TIP3    H154612   6.376   7.227  12.055  0.0716 -0.1752  1.3631
10139TIP3    H254613   6.511   7.297  12.062  0.3332 -0.3413 -1.1987
10140TIP3   OH254614   2.503   7.176  12.388 -0.3061  0.0493 -0.2115
10140TIP3    H154615   2.508   7.104  12.451  0.2370  0.2490 -0.0188
10140TIP3    H254616   2.550   7.144  12.311  1.6397  0.8878  0.5713
10141TIP3   OH254617   5.518   6.912  11.736  0.5035  0.2522 -0.3611
10141TIP3    H154618   5.440   6.959  11.763 -0.0145 -0.2868 -0.8860
10141TIP3    H254619   5.539   6.947  11.650 -0.7966 -1.4997 -1.4604
10142TIP3   OH254620   0.015   3.729  10.522  0.6164  0.0182  0.4221
10142TIP3    H154621   0.043   3.764  10.607  1.2472 -2.5948  1.3691
10142TIP3    H254622   0.097   3.719  10.473  0.5305 -0.7342  0.4244
10143TIP3   OH254623   1.235   2.332  11.253 -0.2667 -0.1171  0.2229
10143TIP3    H154624   1.328   2.354  11.250 -0.4149  0.3813 -1.0136
10143TIP3    H254625   1.220   2.277  11.177 -0.8315 -0.8811  0.8628
10144TIP3   OH254626   6.649   0.156  12.343  0.3330  0.0917  0.0961
10144TIP3    H154627   6.680   0.220  12.407  2.3205  1.0287 -1.6933
10144TIP3    H254628   6.628   0.207  12.265 -1.3141 -1.1120 -0.3192
10145TIP3   OH254629   0.282   3.721  10.390  0.7028 -0.0414 -0.1271
10145TIP3    H154630   0.345   3.790  10.370  0.5459  0.0862 -0.1827
10145TIP3    H254631   0.332   3.640  10.380  0.8178  0.0520 -0.3187
10146TIP3   OH254632   3.821   0.499  11.832 -0.0278 -0.2075 -0.0970
10146TIP3    H154633   3.885   0.447  11.783  0.6025  0.0690  0.4118
10146TIP3    H254634   3.872   0.573  11.867 -1.0142  1.0626 -1.2670
10147TIP3   OH254635   0.150   6.125  11.793  0.2998 -0.3825 -0.3981
10147TIP3    H154636   0.134   6.069  11.869  0.3674  0.3998  0.2032
10147TIP3    H254637   0.078   6.105  11.733  0.0127 -0.7045  0.0466
10148TIP3   OH254638   7.567   4.109  12.205  0.0861  0.4476 -0.2080
10148TIP3    H154639   7.556   4.015  12.216  0.5492  0.7290  3.9505
10148TIP3    H254640   7.481   4.146  12.220 -0.0951  0.7943 -1.8287
10149TIP3   OH254641   0.898   4.562  11.968 -0.2767 -0.8950  0.0282
10149TIP3    H154642   0.871   4.514  12.046 -0.3776  0.3467  0.7890
10149TIP3    H254643   0.880   4.654  11.990  2.1255 -0.2562 -0.4250
10150TIP3   OH254644   2.125   7.255  10.512  0.1114  0.3872 -0.5062
10150TIP3    H154645   2.031   7.264  10.529  0.1039 -0.5129 -0.0042
10150TIP3    H254646   2.132   7.180  10.454  0.5452  0.1729 -0.1857
10151TIP3   OH254647   5.473   4.372  13.027 -0.0252 -0.0842 -0.0166
10151TIP3    H154648   5.431   4.401  12.946 -1.0023  0.7730  0.7657
10151TIP3    H254649   5.459   4.278  13.030  0.5124 -0.2151 -1.1011
10152TIP3   OH254650   5.301   7.550  11.527  0.2041  0.5166  0.0635
10152TIP3    H154651   5.355   7.485  11.482  1.7101  1.4062  0.5191
10152TIP3    H254652   5.273   7.609  11.457 -0.1353  0.0885 -0.1670
10153TIP3   OH254653   3.467   0.680  11.795 -0.2002 -0.1870 -0.4882
10153TIP3    H154654   3.427   0.765  11.774 -1.1615 -0.5898 -0.3345
10153TIP3    H254655   3.453   0.670  11.889  2.5228  0.8063  0.1148
10154TIP3   OH254656   7.544   5.015  11.725 -0.3889 -0.1750 -0.0532
10154TIP3    H154657   7.600   4.998  11.649  0.9263 -1.0629  1.0522
10154TIP3    H254658   7.524   5.108  11.720 -0.2583 -0.2051 -1.4358
10155TIP3   OH254659   3.557   0.521  12.430 -0.1257  0.1900  0.8849
10155TIP3    H154660   3.557   0.467  12.509 -0.6225 -0.9813  0.1145
10155TIP3    H254661   3.493   0.479  12.372  0.3274  0.9377 -0.1900
10156TIP3   OH254662   2.476   2.505  12.846  0.2928 -0.3876  0.6524
10156TIP3    H154663   2.384   2.512  12.874 -0.2308 -2.6002 -0.2563
10156TIP3    H254664   2.523   2.475  12.924 -0.2199 -1.5234  0.5493
10157TIP3   OH254665   6.257   0.095  11.270 -0.4720  0.6123 -0.3700
10157TIP3    H154666   6.173   0.072  11.309 -0.3331  1.2447  0.3101
10157TIP3    H254667   6.322   0.057  11.328 -0.2732  0.4444 -0.6958
10158TIP3   OH254668   4.630   0.063  11.509 -0.1283  0.7899  0.4373
10158TIP3    H154669   4.641   0.136  11.449 -0.1830 -1.0299 -1.9245
10158TIP3    H254670   4.680  -0.008  11.470 -0.2865 -0.5471  2.5093
10159TIP3   OH254671   3.032   4.604  10.901 -0.8110  0.4236  0.3535
10159TIP3    H154672   3.065   4.687  10.869 -0.2289 -0.0954 -0.4398
10159TIP3    H254673   2.977   4.627  10.976  1.3733  1.3129  1.7804
10160TIP3   OH254674   2.898   0.105  11.885  0.5962 -0.2574 -0.2748
10160TIP3    H154675   2.843   0.131  11.960 -0.0055 -2.0375 -0.0490
10160TIP3    H254676   2.918   0.188  11.841  1.0056  0.8612  1.8541
10161TIP3   OH254677   0.240   2.234  10.818 -0.4525  0.0527 -0.0908
10161TIP3    H154678   0.155   2.199  10.792 -1.3445  2.6290 -0.9621
10161TIP3    H254679   0.290   2.238  10.736  0.0298 -0.1996  0.1856
10162TIP3   OH254680   2.572   0.559  11.886  0.5325  0.5196  0.0572
10162TIP3    H154681   2.537   0.600  11.807  0.3712 -0.6995 -0.5211
10162TIP3    H254682   2.655   0.604  11.902  0.3494  1.0799 -0.5453
10163TIP3   OH254683   6.829   6.338  13.026 -0.5896  0.1391 -0.5558
10163TIP3    H154684   6.858   6.426  13.003  0.0978  0.0822  0.0641
10163TIP3    H254685   6.758   6.351  13.090  1.0694  0.2506  1.3593
10164TIP3   OH254686   5.825   6.267  10.637  0.5389  0.2919  0.3047
10164TIP3    H154687   5.857   6.307  10.556  0.5167  1.3782  0.8156
10164TIP3    H254688   5.894   6.286  10.701  0.4936 -0.4437  0.5826
10165TIP3   OH254689   6.134   3.910  11.327  0.0611  0.2825  0.2356
10165TIP3    H154690   6.083   3.944  11.253 -0.6035 -1.3351 -0.0912
10165TIP3    H254691   6.086   3.939  11.405  0.8074  2.0622  0.0945
10166TIP3   OH254692   2.019   3.409  11.087 -1.0918  0.0402 -0.0136
10166TIP3    H154693   2.051   3.338  11.031 -1.1218 -0.6310  0.8004
10166TIP3    H254694   1.939   3.439  11.044  0.2208  1.3169 -1.7378
10167TIP3   OH254695   4.279   5.156  10.979 -0.2188 -0.6659 -0.5074
10167TIP3    H154696   4.318   5.145  11.066 -0.4400  1.2439 -0.1194
10167TIP3    H254697   4.324   5.091  10.925  1.9229 -0.0814  0.4218
10168TIP3   OH254698   0.849   2.069  11.637  0.2252  0.1410  0.2314
10168TIP3    H154699   0.765   2.105  11.610 -0.3671 -1.4725 -0.1311
10168TIP3    H254700   0.894   2.048  11.555  0.2451 -0.6606  0.4465
10169TIP3   OH254701   2.032   7.597  11.504  0.5764 -0.2134  0.1965
10169TIP3    H154702   1.988   7.610  11.588  0.3304 -0.1331  0.0567
10169TIP3    H254703   2.069   7.683  11.483 -0.5400  0.1245 -0.4404
10170TIP3   OH254704   7.565   3.502  10.587  0.3469 -0.0758  0.5679
10170TIP3    H154705   7.530   3.502  10.676 -0.0781 -0.2037  0.4054
10170TIP3    H254706   7.601   3.590  10.575 -1.1764  0.5381  0.2649
10171TIP3   OH254707   5.592   0.806  11.430  0.1973  0.1758  0.1472
10171TIP3    H154708   5.684   0.805  11.403  0.0658 -0.5892 -0.3078
10171TIP3    H254709   5.544   0.820  11.349 -0.1111 -0.0182  0.2948
10172TIP3   OH254710   2.952   3.354  11.551 -0.2128  0.6391 -0.1071
10172TIP3    H154711   3.003   3.435  11.556  0.1559  0.3461  1.8694
10172TIP3    H254712   3.015   3.285  11.573 -1.3218  0.2337  2.0523
10173TIP3   OH254713   1.363   6.895  11.173  0.6356 -0.6081 -0.3155
10173TIP3    H154714   1.289   6.838  11.194 -1.0500  0.6022 -2.5808
10173TIP3    H254715   1.408   6.907  11.257 -1.3061 -1.9608  1.0089
10174TIP3   OH254716   6.277   6.070  11.716  0.1549  0.0545 -0.1675
10174TIP3    H154717   6.347   6.124  11.680  0.8662 -0.6440  0.1402
10174TIP3    H254718   6.321   5.991  11.747 -0.6317  0.0243  0.9441
10175TIP3   OH254719   7.178   6.262  10.973  0.1668  0.1492 -0.8797
10175TIP3    H154720   7.229   6.294  11.047 -1.0549  0.5229 -0.1709
10175TIP3    H254721   7.097   6.228  11.012  0.6529 -2.2285 -1.7752
10176TIP3   OH254722   7.313   6.285  12.380 -0.1483 -0.0139 -0.5205
10176TIP3    H154723   7.312   6.346  12.454 -0.6853  0.0529 -0.5767
10176TIP3    H254724   7.333   6.200  12.419 -0.4814  0.0121 -0.2861
10177TIP3   OH254725   4.433   6.201  10.842  0.1323 -0.2493  0.7608
10177TIP3    H154726   4.473   6.154  10.769 -0.4356  0.5793 -0.1174
10177TIP3    H254727   4.506   6.245  10.886  0.3871 -0.0720  0.1675
10178TIP3   OH254728   0.095   1.849  12.254 -0.0575  0.4810  0.0583
10178TIP3    H154729   0.143   1.896  12.323 -0.2693 -1.2630  1.4728
10178TIP3    H254730   0.151   1.855  12.177  0.4728  1.9864  0.5289
10179TIP3   OH254731   7.565   0.518  12.181  0.4306 -0.3386  0.4769
10179TIP3    H154732   7.643   0.568  12.161  1.2893 -1.0747  1.8601
10179TIP3    H254733   7.581   0.480  12.267 -1.3657 -0.6743  0.7115
10180TIP3   OH254734   5.543   1.225  11.512  0.1580  0.1360 -0.0409
10180TIP3    H154735   5.535   1.315  11.544 -1.8086  0.0197 -0.0899
10180TIP3    H254736   5.592   1.233  11.430 -1.4016  1.4231 -0.9180
10181TIP3   OH254737   7.068   6.642  11.864  0.5607 -0.0584 -0.4959
10181TIP3    H154738   7.001   6.577  11.884  0.5100  0.6271  1.8688
10181TIP3    H254739   7.149   6.603  11.897  0.8440  0.3192 -0.7375
10182TIP3   OH254740   6.988   2.261  10.358  0.2368  0.1430 -0.1822
10182TIP3    H154741   7.038   2.311  10.293  0.5373 -0.4941 -0.4562
10182TIP3    H254742   6.969   2.178  10.314  0.4830 -0.3133  0.5599
10183TIP3   OH254743   2.196   0.421  11.314 -0.1920  0.5282 -0.2989
10183TIP3    H154744   2.170   0.433  11.222  0.4899  2.3630 -0.2979
10183TIP3    H254745   2.129   0.467  11.364  0.1440  0.6601  0.0345
10184TIP3   OH254746   3.266   2.846  11.900 -0.0715 -0.4498  0.1179
10184TIP3    H154747   3.271   2.774  11.962 -0.1291  0.2456  0.9509
10184TIP3    H254748   3.357   2.861  11.873  0.1496  0.2029  1.1807
10185TIP3   OH254749   0.596   7.655  12.016  0.0148  0.3527 -0.3541
10185TIP3    H154750   0.654   7.626  12.086  0.2821  3.3547  0.8041
10185TIP3    H254751   0.533   7.584  12.006  0.6178 -0.6365  2.1970
10186TIP3   OH254752   6.133   7.295  11.954  0.0184  0.5806 -0.1807
10186TIP3    H154753   6.175   7.228  12.008 -2.2559 -0.1077  0.8767
10186TIP3    H254754   6.155   7.378  11.997 -0.6141  0.1444  1.0579
10187TIP3   OH254755   7.292   1.279  11.817  0.0849  0.0742  0.0637
10187TIP3    H154756   7.356   1.207  11.824  0.8568  0.8372  1.3609
10187TIP3    H254757   7.345   1.358  11.826 -0.8498  0.7949 -0.6193
10188TIP3   OH254758   5.560   6.139  11.247  0.2457 -0.1520 -0.0101
10188TIP3    H154759   5.530   6.230  11.248  1.4348  0.2611  0.1018
10188TIP3    H254760   5.618   6.132  11.323  0.4513 -0.8947 -0.2231
10189TIP3   OH254761   1.079   7.272  13.092 -0.5439 -0.0700 -0.2360
10189TIP3    H154762   1.111   7.183  13.103 -1.5593 -0.4934 -0.5407
10189TIP3    H254763   1.080   7.310  13.180  0.5910 -0.1160 -0.2126
10190TIP3   OH254764   6.615   4.675  11.858 -0.1806  0.1752  0.1401
10190TIP3    H154765   6.608   4.733  11.935  0.0811  1.8166 -1.0192
10190TIP3    H254766   6.633   4.589  11.895 -0.1838  0.8889  1.9359
10191TIP3   OH254767   5.921   6.362  12.834 -0.7626  0.2610 -0.2828
10191TIP3    H154768   5.956   6.410  12.759 -0.5359  3.1147  1.5161
10191TIP3    H254769   5.982   6.380  12.905 -2.3400 -0.1541  1.2464
10192TIP3   OH254770   2.262   1.023  13.120 -0.0617 -0.3228 -0.6704
10192TIP3    H154771   2.283   1.000  13.210  0.8932  0.9359 -0.5477
10192TIP3    H254772   2.330   0.980  13.068  0.0360 -0.1328 -0.6977
10193TIP3   OH254773   4.924   3.842  11.770  0.5617  0.3763  0.2064
10193TIP3    H154774   4.836   3.848  11.806  0.5881 -0.2433  0.3878
10193TIP3    H254775   4.916   3.877  11.681 -0.0320 -0.3776 -0.0456
10194TIP3   OH254776   3.377   5.455  12.565  0.0378  0.3379  0.3637
10194TIP3    H154777   3.417   5.398  12.630  1.6900  3.5436  2.4302
10194TIP3    H254778   3.284   5.435  12.568  0.5365 -2.1532  0.9441
10195TIP3   OH254779   2.021   6.272  11.969 -0.4026  0.2409 -0.1352
10195TIP3    H154780   2.031   6.197  12.027 -0.8886  0.1543 -0.1613
10195TIP3    H254781   1.929   6.296  11.977 -0.6395 -0.1899 -1.3938
10196TIP3   OH254782   7.281   4.100  12.661 -0.5315 -0.1521  0.3592
10196TIP3    H154783   7.206   4.150  12.694  1.8183  3.0470  1.3062
10196TIP3    H254784   7.280   4.115  12.566 -0.2030  1.3163  0.5605
10197TIP3   OH254785   0.010   0.426  11.304  0.3534 -0.1775 -0.0140
10197TIP3    H154786  -0.051   0.368  11.351  0.2628  0.7632  1.0688
10197TIP3    H254787  -0.012   0.514  11.335 -0.3476  0.6262 -2.5472
10198TIP3   OH254788   4.553   3.759  11.537  0.0124 -0.0052  0.0963
10198TIP3    H154789   4.644   3.735  11.524 -0.2575 -1.3171  0.4592
10198TIP3    H254790   4.507   3.675  11.546 -0.9001  0.6476  2.0874
10199TIP3   OH254791   2.944   6.388  13.562  0.2285  0.3339 -0.1879
10199TIP3    H154792   2.994   6.456  13.517  0.4818  0.1442 -0.1982
10199TIP3    H254793   2.992   6.308  13.544  1.0678  0.4225  1.4795
10200TIP3   OH254794   6.350   1.945  12.056  0.4320 -0.1707  0.1870
10200TIP3    H154795   6.344   1.906  11.969  2.3168  1.5536 -0.7759
10200TIP3    H254796   6.259   1.962  12.080 -0.0936  1.7549 -2.6454
10201TIP3   OH254797   2.841   2.444  11.223 -0.6240  0.0355  0.0999
10201TIP3    H154798   2.750   2.473  11.217 -0.8002 -0.6936 -0.9775
10201TIP3    H254799   2.835   2.349  11.238 -0.0574 -0.2405 -1.2731
10202TIP3   OH254800   4.466   0.675  11.205 -1.1493 -0.6403 -0.1215
10202TIP3    H154801   4.538   0.679  11.268  1.2883 -0.1431 -2.7448
10202TIP3    H254802   4.392   0.715  11.250  0.3955 -0.4753  2.4404
10203TIP3   OH254803   6.164   4.638  11.517 -0.5956  0.4149 -0.0199
10203TIP3    H154804   6.229   4.637  11.447 -0.4433  1.0461  0.1059
10203TIP3    H254805   6.181   4.720  11.565 -1.4491  0.5702  0.0373
10204TIP3   OH254806   1.207   0.343  11.851 -0.2109  0.0173  0.2352
10204TIP3    H154807   1.243   0.380  11.931 -0.1478 -0.8119  0.5950
10204TIP3    H254808   1.119   0.380  11.845  0.4617  1.6173 -0.3551
10205TIP3   OH254809   5.503   5.092  12.867  0.1477 -0.0972  0.1869
10205TIP3    H154810   5.550   5.020  12.825  0.9839  0.8270 -0.5382
10205TIP3    H254811   5.566   5.165  12.865 -0.3486  0.4065  1.7016
10206TIP3   OH254812   7.486   5.475  12.009 -0.1552 -0.1783 -0.0841
10206TIP3    H154813   7.421   5.454  11.942 -0.6560  0.8208  0.0654
10206TIP3    H254814   7.520   5.560  11.983  0.0401 -0.0330  0.6291
10207TIP3   OH254815   6.610   1.146  10.949  0.7255 -0.2960 -0.4863
10207TIP3    H154816   6.701   1.116  10.947  0.9679  0.3681  0.2339
10207TIP3    H254817   6.559   1.066  10.932  1.4430 -0.5789 -1.4118
10208TIP3   OH254818   5.036   3.582  11.841  0.4725 -0.7482  0.2213
10208TIP3    H154819   5.111   3.612  11.892  0.4835  0.4408 -0.4662
10208TIP3    H254820   5.000   3.661  11.802 -0.2094 -1.4945 -0.7094
10209TIP3   OH254821   1.532   4.930  12.679 -0.4724  0.2335  0.0859
10209TIP3    H154822   1.564   5.017  12.703  0.4631  0.0845 -0.5533
10209TIP3    H254823   1.611   4.883  12.652 -0.7017 -1.3426  1.9641
10210TIP3   OH254824   2.837   2.253  11.820  0.4135  0.2772  0.4922
10210TIP3    H154825   2.928   2.254  11.790  0.4201 -1.5149  0.3141
10210TIP3    H254826   2.822   2.161  11.844 -1.4229  0.4941  0.2634
10211TIP3   OH254827   1.143   5.654  12.678  0.0928 -0.4422 -0.3708
10211TIP3    H154828   1.152   5.645  12.773  0.5741  0.7375 -0.2891
10211TIP3    H254829   1.052   5.681  12.665  0.6289  1.7088 -0.0281
10212TIP3   OH254830   1.206   3.223  11.579  0.6760 -0.0686 -0.5092
10212TIP3    H154831   1.133   3.178  11.536  0.0172  1.3523 -0.9373
10212TIP3    H254832   1.171   3.310  11.600  1.2521 -0.3808  2.1131
10213TIP3   OH254833   7.359   6.875  12.082 -0.6067  0.0217  0.1239
10213TIP3    H154834   7.406   6.830  12.151 -0.7125 -0.0446  0.1535
10213TIP3    H254835   7.282   6.913  12.126  0.1103  1.2820  0.3547
10214TIP3   OH254836   2.303   5.049  10.308  0.2170  0.8089 -0.1609
10214TIP3    H154837   2.315   5.024  10.216 -0.0893 -0.2033  0.0695
10214TIP3    H254838   2.214   5.023  10.329  0.1512  1.3994  0.3213
10215TIP3   OH254839   2.804   4.573  11.090 -0.7257 -0.2567  0.6039
10215TIP3    H154840   2.716   4.542  11.111 -0.4987 -0.1466  1.7443
10215TIP3    H254841   2.819   4.647  11.148 -1.2885  2.1736 -2.1385
10216TIP3   OH254842   3.089   5.466  12.792 -0.0765  0.3978  0.2397
10216TIP3    H154843   3.170   5.417  12.804 -1.5306 -2.0643  0.7115
10216TIP3    H254844   3.107   5.551  12.833  2.2839 -0.0017  0.1952
10217TIP3   OH254845   2.098   7.356  11.148 -0.1231  0.7109 -0.0872
10217TIP3    H154846   2.178   7.305  11.130 -0.7455 -1.2696  2.1412
10217TIP3    H254847   2.127   7.426  11.206 -0.1144 -0.7253  1.7154
10218TIP3   OH254848   3.524   2.875  11.839  0.2699 -0.1309  0.5714
10218TIP3    H154849   3.579   2.907  11.767 -0.5086 -1.0926 -0.4929
10218TIP3    H254850   3.530   2.943  11.906  0.6107  1.0572 -0.6170
10219TIP3   OH254851   1.826   0.512  11.823 -0.2551 -0.1639  0.2238
10219TIP3    H154852   1.909   0.498  11.777 -1.4364 -1.4629 -1.6344
10219TIP3    H254853   1.841   0.477  11.910  1.0236 -0.7354 -0.1941
10220TIP3   OH254854   1.627   5.300  10.671  0.5201 -0.6607 -0.5571
10220TIP3    H154855   1.621   5.219  10.720  0.2711 -1.4868 -1.9027
10220TIP3    H254856   1.716   5.300  10.635  0.1364 -0.9653 -1.5569
10221TIP3   OH254857   3.294   0.602  12.570  0.0192  0.1193  0.0740
10221TIP3    H154858   3.384   0.621  12.596 -0.4164  0.5351  1.3247
10221TIP3    H254859   3.302   0.528  12.509  1.0752 -0.9070  1.4013
10222TIP3   OH254860   3.508   1.127  11.437 -0.2466  0.2463 -0.0954
10222TIP3    H154861   3.420   1.090  11.433  0.0420 -0.6214  1.1320
10222TIP3    H254862   3.560   1.060  11.481  0.3115  2.0308  2.1326
10223TIP3   OH254863   0.972   5.126  10.512  0.1534 -0.1302 -0.1076
10223TIP3    H154864   1.004   5.215  10.524 -0.8216  0.2001  0.0761
10223TIP3    H254865   1.018   5.075  10.580  0.4772  0.2815 -0.0131
10224TIP3   OH254866   0.660   6.648  11.439 -0.7448 -0.7795  0.2397
10224TIP3    H154867   0.707   6.690  11.367 -0.1048 -1.3554  0.3123
10224TIP3    H254868   0.605   6.582  11.396 -1.4821 -0.1276  0.1575
10225TIP3   OH254869   7.384   1.478  12.834  0.0241 -0.1643  0.4389
10225TIP3    H154870   7.392   1.385  12.855 -0.9541  0.1961  2.7246
10225TIP3    H254871   7.320   1.481  12.763  1.2883 -1.2852 -0.8298
10226TIP3   OH254872   7.066   1.913  12.435 -0.4253  0.2680 -0.1705
10226TIP3    H154873   7.116   1.995  12.428  0.6539 -0.3833 -0.3766
10226TIP3    H254874   6.975   1.941  12.439 -0.3021  1.3932 -2.8136
10227TIP3   OH254875   0.255   0.298  13.036 -0.3425 -0.8101  0.2728
10227TIP3    H154876   0.201   0.376  13.047 -0.0145 -0.6344  0.7031
10227TIP3    H254877   0.345   0.331  13.036 -0.2396 -1.0024 -1.2790
10228TIP3   OH254878   6.676   2.535  10.959  0.0382 -0.2854 -0.0840
10228TIP3    H154879   6.760   2.544  10.914 -0.5778 -0.1480 -1.2443
10228TIP3    H254880   6.693   2.566  11.048  2.0462 -3.3678  0.7424
10229TIP3   OH254881   0.607   6.311  11.773 -0.2174 -0.2609 -0.2529
10229TIP3    H154882   0.687   6.331  11.723 -0.3201 -0.1004 -0.3553
10229TIP3    H254883   0.635   6.312  11.864 -0.5208  1.9669 -0.1262
10230TIP3   OH254884   6.273   5.135  10.875 -0.3487 -0.1503 -0.1709
10230TIP3    H154885   6.254   5.049  10.913 -0.6537  0.3481  0.8520
10230TIP3    H254886   6.202   5.152  10.814 -1.7204  0.4629  1.5139
10231TIP3   OH254887   3.659   2.760  12.403 -0.1186  0.1397  0.1102
10231TIP3    H154888   3.663   2.666  12.423  1.6438  0.0825 -0.2897
10231TIP3    H254889   3.664   2.764  12.307  0.2885  0.6486  0.1507
10232TIP3   OH254890   5.020   3.632  10.776 -0.5298 -0.3845  0.6078
10232TIP3    H154891   4.971   3.552  10.754 -1.2697 -0.2523  1.6946
10232TIP3    H254892   5.111   3.604  10.781 -0.5213 -0.7451 -0.9278
10233TIP3   OH254893   7.217   4.210  11.355 -0.0377 -0.6340 -0.4728
10233TIP3    H154894   7.174   4.150  11.294  1.2998 -0.4564 -1.6518
10233TIP3    H254895   7.301   4.230  11.314 -0.5662  2.3556 -0.3149
10234TIP3   OH254896   6.563   1.654  10.931 -0.8180  0.0007  0.1441
10234TIP3    H154897   6.624   1.728  10.929  1.0343 -1.4552 -2.1359
10234TIP3    H254898   6.476   1.694  10.927 -0.1146  2.1329  3.0812
10235TIP3   OH254899   2.627   3.481  10.996 -0.1038 -0.2246 -0.1949
10235TIP3    H154900   2.710   3.480  10.949 -0.9726 -0.0202 -1.8037
10235TIP3    H254901   2.562   3.455  10.931 -1.8996  3.7002 -0.2268
10236TIP3   OH254902   4.725   4.734  10.830 -0.0869 -0.1352  0.4099
10236TIP3    H154903   4.738   4.647  10.791  0.4296  0.2109 -0.2036
10236TIP3    H254904   4.771   4.794  10.771  1.1512  0.3559  1.7974
10237TIP3   OH254905   3.518   3.859  12.253 -0.2287 -0.1664  0.0584
10237TIP3    H154906   3.431   3.838  12.286 -0.3984 -0.1373 -0.3761
10237TIP3    H254907   3.560   3.906  12.325 -0.2962 -0.8607  0.5657
10238TIP3   OH254908   7.628   5.234  10.600 -0.0465  0.5296  0.1441
10238TIP3    H154909   7.680   5.313  10.586 -1.0025  1.1081 -0.2537
10238TIP3    H254910   7.538   5.265  10.604 -0.5323 -0.6333 -0.9400
10239TIP3   OH254911   2.779   6.418  11.912  0.1676 -0.1531 -0.1810
10239TIP3    H154912   2.853   6.478  11.903  0.8320 -1.1389 -1.6432
10239TIP3    H254913   2.777   6.370  11.830  0.2017 -2.7780  1.2549
10240TIP3   OH254914   3.713   6.143  12.516  0.1609  0.1313 -0.0329
10240TIP3    H154915   3.624   6.137  12.482  0.3138  0.4608 -0.4971
10240TIP3    H254916   3.720   6.070  12.578 -0.0588 -0.5978 -0.8514
10241TIP3   OH254917   7.023   3.520  12.514  0.4559  0.7299  0.2118
10241TIP3    H154918   6.958   3.529  12.584  1.8631  0.9981  1.5290
10241TIP3    H254919   7.107   3.515  12.560  1.3239 -0.2493 -1.4195
10242TIP3   OH254920   5.788   4.272  12.923 -0.2307 -0.1418 -0.0217
10242TIP3    H154921   5.757   4.196  12.874 -0.8764 -0.0717  0.2707
10242TIP3    H254922   5.872   4.244  12.960 -0.2030 -0.5226 -0.3664
10243TIP3   OH254923   2.411   0.665  12.665 -0.4178 -0.2043 -0.2454
10243TIP3    H154924   2.371   0.737  12.616 -1.0500 -0.3699  0.0130
10243TIP3    H254925   2.476   0.629  12.606  0.2624  0.8880 -0.2025
10244TIP3   OH254926   5.650   3.416  10.523 -0.3229  0.2185 -0.8443
10244TIP3    H154927   5.624   3.413  10.615  0.9924  0.6861 -0.4289
10244TIP3    H254928   5.746   3.409  10.525 -0.1952  1.2149 -2.1170
10245TIP3   OH254929   0.683   6.328  12.685  0.3660 -0.2877  0.0395
10245TIP3    H154930   0.624   6.403  12.688  0.9348  0.1455  0.6972
10245TIP3    H254931   0.740   6.339  12.761  2.1185 -0.0127 -1.2442
10246TIP3   OH254932   7.543   2.711  11.665 -0.3240  0.2592  0.9122
10246TIP3    H154933   7.535   2.792  11.615  0.2407  0.8786  1.8074
10246TIP3    H254934   7.541   2.738  11.757  1.0040 -0.6010  1.2309
10247TIP3   OH254935   7.541   3.457  12.769 -0.0125  0.2984 -0.0851
10247TIP3    H154936   7.491   3.528  12.809 -1.8038 -0.9218 -0.0194
10247TIP3    H254937   7.633   3.482  12.782 -0.5594  2.7950 -0.4926
10248TIP3   OH254938   6.868   4.672  10.389 -0.2506  0.4075 -0.4147
10248TIP3    H154939   6.884   4.746  10.330  0.1554  1.4113  0.9173
10248TIP3    H254940   6.934   4.607  10.363 -0.6219  0.4687 -1.6091
10249TIP3   OH254941   3.701   4.411  11.926 -0.1133 -0.1365 -0.2795
10249TIP3    H154942   3.779   4.388  11.977 -1.6660 -2.0278  1.4432
10249TIP3    H254943   3.715   4.501  11.898  2.8217 -0.5437 -0.3462
10250TIP3   OH254944   5.829   7.169  12.118 -0.2271 -0.1632  0.6777
10250TIP3    H154945   5.734   7.159  12.110 -0.4272 -0.7572  2.9262
10250TIP3    H254946   5.863   7.080  12.108 -0.1097 -0.2404  1.6536
10251TIP3   OH254947   6.139   1.825  11.237 -0.1324  0.3520 -0.1518
10251TIP3    H154948   6.065   1.859  11.287  1.5667  1.3715  1.8121
10251TIP3    H254949   6.201   1.898  11.232  2.4463 -1.4618  1.8402
10252TIP3   OH254950   0.466   6.506  12.647 -0.1023 -0.1917  0.4180
10252TIP3    H154951   0.392   6.485  12.704  0.2608 -0.1903  0.8909
10252TIP3    H254952   0.449   6.455  12.567 -0.7429  0.0076  0.4174
10253TIP3   OH254953   2.232   1.843  12.656 -0.0787  0.0938 -0.9697
10253TIP3    H154954   2.165   1.894  12.610 -1.3736 -2.1216 -1.6808
10253TIP3    H254955   2.240   1.886  12.742 -2.2836  0.5287 -0.9274
10254TIP3   OH254956   1.706   4.605  11.796  0.0405 -0.6788 -0.1677
10254TIP3    H154957   1.751   4.647  11.722  0.4121 -1.6439 -0.5023
10254TIP3    H254958   1.680   4.519  11.763 -1.2863 -0.4732  0.3045
10255TIP3   OH254959   1.520   4.278  11.942  0.3059 -0.1360 -0.8427
10255TIP3    H154960   1.538   4.347  11.877 -1.5992  1.0371 -0.2109
10255TIP3    H254961   1.468   4.213  11.895  1.8288 -1.0478 -1.3501
10256TIP3   OH254962   7.449   7.652  11.108  0.3288  0.0410  0.2097
10256TIP3    H154963   7.486   7.580  11.057 -0.3835  0.3378 -0.7691
10256TIP3    H254964   7.517   7.719  11.109  0.9921 -0.6154  1.1164
10257TIP3   OH254965   2.709   7.439  13.084 -0.1486 -0.3379  0.1600
10257TIP3    H154966   2.795   7.417  13.119  0.6900  1.1660 -0.8343
10257TIP3    H254967   2.727   7.502  13.014 -2.0561  0.0016 -0.0853
10258TIP3   OH254968   2.396   1.410  13.024 -0.5016 -0.0035  0.1029
10258TIP3    H154969   2.446   1.332  13.047 -1.2610 -0.4217  0.3348
10258TIP3    H254970   2.460   1.482  13.032  0.2190 -0.5952 -0.1921
10259TIP3   OH254971   7.088   3.956  11.302  0.0254  0.6484  0.2312
10259TIP3    H154972   7.055   3.983  11.387 -1.2344 -1.3439  0.4344
10259TIP3    H254973   7.100   3.861  11.309  3.0426  0.8328 -0.8101
10260TIP3   OH254974   2.597   1.003  10.666 -0.1175 -0.1706  0.0394
10260TIP3    H154975   2.618   0.941  10.596  0.2954  0.0480 -0.0332
10260TIP3    H254976   2.681   1.017  10.711 -0.3636 -0.2478  0.5282
10261TIP3   OH254977   5.868   0.279  12.803  0.0200  0.4473  0.2417
10261TIP3    H154978   5.896   0.187  12.796 -1.6031 -0.0496 -0.1118
10261TIP3    H254979   5.905   0.309  12.886  0.0232 -0.7468  0.6934
10262TIP3   OH254980   7.243   1.888  11.986 -0.2665  0.3524  0.4593
10262TIP3    H154981   7.332   1.917  12.006  1.0952 -3.1788  0.4214
10262TIP3    H254982   7.243   1.876  11.891 -0.8551  0.5746  0.4285
10263TIP3   OH254983   5.602   4.815  13.096 -0.4174 -0.4061 -0.1150
10263TIP3    H154984   5.629   4.748  13.033 -1.7956 -0.2623 -0.8754
10263TIP3    H254985   5.507   4.809  13.099 -0.5767  1.5240 -0.2016
10264TIP3   OH254986   3.875   2.050  11.874  0.3985 -0.3243 -0.2421
10264TIP3    H154987   3.908   1.978  11.927  0.4077 -0.0715  0.0982
10264TIP3    H254988   3.870   2.014  11.785  0.8254 -0.6059 -0.1538
10265TIP3   OH254989   0.220   5.416  10.585  0.4467 -0.1755  0.3035
10265TIP3    H154990   0.298   5.367  10.559  1.1919  2.1114 -2.2532
10265TIP3    H254991   0.253   5.495  10.628 -0.5968 -0.2808  1.3719
10266TIP3   OH254992   4.597   5.993  11.546 -0.0601 -0.5355 -0.0170
10266TIP3    H154993   4.685   6.003  11.511  0.2801  0.2405  1.0283
10266TIP3    H254994   4.562   6.082  11.551  0.1035 -0.5436  2.0890
10267TIP3   OH254995   6.328   0.216  10.626  0.6785 -0.1315  0.4017
10267TIP3    H154996   6.270   0.187  10.697  1.0504 -0.0360  0.7527
10267TIP3    H254997   6.393   0.146  10.620  0.8200  0.0055  0.3570
10268TIP3   OH254998   0.376   2.275  11.842  0.0481  0.2129 -0.7320
10268TIP3    H154999   0.442   2.302  11.779  0.0698  2.9528  0.3428
10268TIP3    H255000   0.416   2.200  11.888  2.2233  1.4555 -0.4683
10269TIP3   OH255001   5.414   3.059  11.660 -0.1966  0.3598  0.2945
10269TIP3    H155002   5.335   3.054  11.715  0.7068 -0.4132  1.5906
10269TIP3    H255003   5.482   3.091  11.720  1.0054 -1.2320 -0.1539
10270TIP3   OH255004   4.297   4.668  12.771 -0.1152  0.5458 -0.5047
10270TIP3    H155005   4.334   4.599  12.716  1.1626 -0.6133  1.7139
10270TIP3    H255006   4.248   4.622  12.838 -1.3118  1.9183 -0.3767
10271TIP3   OH255007   4.211   4.525  12.043  0.5203  0.3208 -0.6080
10271TIP3    H155008   4.236   4.616  12.027 -0.6084  0.7007 -0.2802
10271TIP3    H255009   4.263   4.498  12.118  0.1883  0.9904 -0.1356
10272TIP3   OH255010   3.575   1.162  10.915  0.1686 -0.3004 -0.2282
10272TIP3    H155011   3.578   1.163  10.820 -0.6837 -0.4592 -0.2663
10272TIP3    H255012   3.660   1.128  10.942  0.0140 -1.3045 -0.9712
10273TIP3   OH255013   6.805   6.989  12.327  0.8158 -0.2454 -0.1008
10273TIP3    H155014   6.719   7.028  12.313  0.3646 -1.5704 -1.2453
10273TIP3    H255015   6.807   6.913  12.269  1.9702 -1.4286  1.4064
10274TIP3   OH255016   1.408   1.810  11.420 -0.7796 -0.2846 -0.0031
10274TIP3    H155017   1.408   1.776  11.509 -1.3481  2.8227  1.3120
10274TIP3    H255018   1.332   1.769  11.378 -0.9330 -1.2192  1.1448
10275TIP3   OH255019   0.333   7.408  13.032 -0.1258  0.2297  0.2354
10275TIP3    H155020   0.269   7.374  13.095  0.6723  0.6592  1.3112
10275TIP3    H255021   0.375   7.330  12.996 -0.4752 -0.0192  0.3635
10276TIP3   OH255022   1.588   0.017  12.155  0.4136  0.0764 -0.1344
10276TIP3    H155023   1.493   0.017  12.153  0.3494  1.3524 -2.9672
10276TIP3    H255024   1.611   0.092  12.211 -0.2970  0.5634 -0.4812
10277TIP3   OH255025   3.584   4.543  12.643  0.3694 -0.1677  0.0587
10277TIP3    H155026   3.680   4.547  12.649  0.6581 -2.8850 -1.0365
10277TIP3    H255027   3.556   4.510  12.729  0.4556  0.1543  0.2115
10278TIP3   OH255028   5.003   1.466  11.122  0.4270  0.7618  0.5572
10278TIP3    H155029   5.006   1.561  11.106  2.0323  0.8134  1.0423
10278TIP3    H255030   5.053   1.428  11.050 -1.1459  0.1673 -0.2573
10279TIP3   OH255031   2.002   2.739  12.926  0.2671  0.6131 -0.5008
10279TIP3    H155032   1.943   2.803  12.886  0.6385  1.7439  0.6873
10279TIP3    H255033   1.953   2.657  12.923  0.6286  0.3470 -4.0899
10280TIP3   OH255034   3.017   6.246  13.313  0.2444 -0.6556 -0.6387
10280TIP3    H155035   2.948   6.300  13.274 -0.4079  0.4954  1.8984
10280TIP3    H255036   2.971   6.167  13.343  0.0313 -0.0156  0.7944
10281TIP3   OH255037   3.967   3.914  10.672  0.0856 -0.3191 -0.3300
10281TIP3    H155038   3.963   3.905  10.576  0.7055 -0.1902 -0.3745
10281TIP3    H255039   4.039   3.975  10.687 -0.3551  0.0811  0.2032
10282TIP3   OH255040   3.472   6.435  13.087  0.3581 -0.1569 -0.4931
10282TIP3    H155041   3.538   6.369  13.065  0.8993 -0.2152  1.1812
10282TIP3    H255042   3.513   6.519  13.066  0.0203 -0.2708 -1.7297
10283TIP3   OH255043   6.595   4.006  12.994  0.1743 -0.2758 -0.1688
10283TIP3    H155044   6.633   4.073  12.938 -0.1220 -1.7085 -2.2021
10283TIP3    H255045   6.505   3.995  12.961 -0.0142 -1.1439  0.5952
10284TIP3   OH255046   0.338   6.524  11.685  0.1997 -0.0156  0.6065
10284TIP3    H155047   0.382   6.445  11.717  1.6577  0.3084 -0.5197
10284TIP3    H255048   0.397   6.596  11.708 -0.0391  0.5098 -0.3547
10285TIP3   OH255049   3.927   2.867  13.179  0.6334 -0.7871  0.3671
10285TIP3    H155050   3.970   2.791  13.218 -1.1448 -0.8435  2.3717
10285TIP3    H255051   3.896   2.918  13.254 -1.0139  0.2559 -0.9645
10286TIP3   OH255052   4.322   4.278  11.436 -0.2901  0.8073 -0.4406
10286TIP3    H155053   4.267   4.356  11.426 -0.4837  0.5742 -1.2357
10286TIP3    H255054   4.275   4.225  11.501 -0.2899  1.2229 -0.0883
10287TIP3   OH255055   6.119   1.303  10.721 -0.8019 -0.4931 -0.5576
10287TIP3    H155056   6.115   1.208  10.725 -0.5612 -0.5055 -0.6267
10287TIP3    H255057   6.195   1.322  10.666 -0.9311 -0.2622 -0.6590
10288TIP3   OH255058   3.493   3.714  12.564  0.2600  0.1858 -0.0255
10288TIP3    H155059   3.425   3.666  12.612 -1.3194  1.8830 -0.4783
10288TIP3    H255060   3.575   3.681  12.601 -0.8009 -1.2963  1.1501
10289TIP3   OH255061   4.444   1.157  13.284 -0.2307  0.0635  0.3290
10289TIP3    H155062   4.465   1.213  13.208  0.5773  0.4275  0.8068
10289TIP3    H255063   4.415   1.074  13.245  0.3398  0.1854 -0.3847
10290TIP3   OH255064   1.474   2.688  10.724 -0.1027  0.4369  0.3021
10290TIP3    H155065   1.558   2.686  10.770  1.3412 -5.0987 -1.8067
10290TIP3    H255066   1.496   2.709  10.634 -0.8649 -1.2825 -0.3165
10291TIP3   OH255067   6.305   0.938  12.316  0.2243  0.5329 -0.5947
10291TIP3    H155068   6.231   0.881  12.296  0.0299  1.3733 -2.4791
10291TIP3    H255069   6.378   0.901  12.266  0.5155  0.9778 -0.5032
10292TIP3   OH255070   6.535   1.550  12.280 -0.2711 -0.3042 -0.6046
10292TIP3    H155071   6.557   1.549  12.187 -1.7039  0.4591 -0.9867
10292TIP3    H255072   6.495   1.636  12.294 -0.5447 -0.6126  0.5897
10293TIP3   OH255073   3.862   3.266  11.210  0.0551 -0.1414 -0.5521
10293TIP3    H155074   3.778   3.313  11.207  0.1051  0.0186  0.1979
10293TIP3    H255075   3.841   3.183  11.251  0.1552 -0.3580 -0.9377
10294TIP3   OH255076   1.515   6.480  10.990  0.1638 -0.0654 -0.6861
10294TIP3    H155077   1.467   6.428  10.926 -1.6391  0.9169 -0.1973
10294TIP3    H255078   1.550   6.553  10.940  0.8904 -0.5982 -0.9787
10295TIP3   OH255079   4.206   5.247  11.826 -0.0212 -0.0366 -0.3079
10295TIP3    H155080   4.166   5.246  11.913  0.5088  0.0403 -0.0561
10295TIP3    H255081   4.141   5.289  11.770  0.5622  2.1227  0.5204
10296TIP3   OH255082   6.402   2.768  11.671  0.5458  0.3487  0.2266
10296TIP3    H155083   6.336   2.806  11.728 -0.2525  0.0619 -0.4903
10296TIP3    H255084   6.379   2.675  11.666  1.3830  0.1191  0.4823
10297TIP3   OH255085   5.989   3.368  11.031 -0.7631  0.0383  0.5953
10297TIP3    H155086   6.023   3.286  11.066 -0.2872 -0.0490 -0.0494
10297TIP3    H255087   5.900   3.347  11.004 -0.8546 -0.1042  1.0041
10298TIP3   OH255088   7.207   1.424  10.603 -0.4092  0.3197  0.1861
10298TIP3    H155089   7.262   1.488  10.649 -1.5231  0.3258  1.5824
10298TIP3    H255090   7.205   1.455  10.513  1.3972  0.6286  0.2120
10299TIP3   OH255091   3.950   3.266  12.769 -0.3631  0.2218  0.0605
10299TIP3    H155092   3.889   3.198  12.740  0.0622  1.4735 -4.4370
10299TIP3    H255093   3.946   3.262  12.865 -1.0199 -5.4486  0.1351
10300TIP3   OH255094   2.883   6.307  12.801  0.2158 -0.5115 -0.4548
10300TIP3    H155095   2.835   6.270  12.727 -0.0995 -1.8485  0.3715
10300TIP3    H255096   2.846   6.263  12.878  1.9398 -0.7075  0.3094
10301TIP3   OH255097   1.718   2.937  11.472 -0.0897  0.6346 -0.4011
10301TIP3    H155098   1.784   2.979  11.528 -1.8318  2.0826  0.6531
10301TIP3    H255099   1.646   2.916  11.531 -0.7419 -0.6013 -1.5925
10302TIP3   OH255100   7.404   1.010  11.318  0.0336  0.0533  0.2526
10302TIP3    H155101   7.494   1.040  11.315  0.3685 -0.6732  1.8097
10302TIP3    H255102   7.371   1.042  11.402 -0.8206 -0.5563  0.1662
10303TIP3   OH255103   5.698   1.050  11.692 -0.0024  0.0666  0.4430
10303TIP3    H155104   5.683   1.069  11.784 -0.8170 -0.3852  0.4063
10303TIP3    H255105   5.658   1.123  11.645  0.2487  0.2018  0.4369
10304TIP3   OH255106   3.548   4.657  11.325 -0.0180 -0.0420 -0.2215
10304TIP3    H155107   3.466   4.646  11.278 -1.3731  0.8293  1.8213
10304TIP3    H255108   3.556   4.578  11.379  0.5211 -0.1400 -0.4367
10305TIP3   OH255109   7.575   5.775  11.154  0.0777  0.7529 -0.3552
10305TIP3    H155110   7.666   5.777  11.126  1.3820 -0.4070  3.2533
10305TIP3    H255111   7.556   5.866  11.178  0.9085  0.7237  0.4832
10306TIP3   OH255112   0.299   1.337  12.747  0.1134  0.3254 -0.1523
10306TIP3    H155113   0.283   1.260  12.692  1.9180  0.9254 -1.6397
10306TIP3    H255114   0.364   1.308  12.811  2.1334  0.9338 -1.7889
10307TIP3   OH255115   1.089   7.467  11.525 -0.2232 -0.0452  0.3182
10307TIP3    H155116   1.110   7.527  11.453 -1.5764  0.4739  0.3248
10307TIP3    H255117   1.067   7.524  11.598 -1.3206 -0.5314  0.3913
10308TIP3   OH255118   6.298   1.126  12.636 -0.4238 -0.0033  0.2802
10308TIP3    H155119   6.393   1.128  12.626 -0.2987  2.2294  1.2908
10308TIP3    H255120   6.284   1.142  12.729 -1.7968  0.4131  0.0148
10309TIP3   OH255121   2.919   7.138  12.155  0.1852 -0.8208 -0.4576
10309TIP3    H155122   2.998   7.084  12.162  0.0421 -0.9251  0.6351
10309TIP3    H255123   2.936   7.198  12.082  2.4044  0.9623  1.3692
10310TIP3   OH255124   5.115   5.205  11.914 -0.1677  0.3308 -0.1626
10310TIP3    H155125   5.070   5.229  11.833 -0.7578 -1.2853 -0.3479
10310TIP3    H255126   5.200   5.171  11.885 -0.9435 -1.6528 -0.2863
10311TIP3   OH255127   0.632   5.711  11.352 -0.2449  0.0245  0.7700
10311TIP3    H155128   0.541   5.738  11.345 -0.0065  0.6557 -0.2491
10311TIP3    H255129   0.656   5.729  11.443 -1.3592 -0.9304  1.2603
10312TIP3   OH255130   3.786   6.992  10.596  0.2111 -0.1991 -0.8348
10312TIP3    H155131   3.826   7.079  10.601 -0.1597 -0.0883  0.4834
10312TIP3    H255132   3.860   6.932  10.606  0.2980 -0.0155 -0.3506
10313TIP3   OH255133   2.298   5.470  11.712 -0.8426 -0.3539 -0.3589
10313TIP3    H155134   2.364   5.530  11.748 -1.0134  0.2603 -1.0392
10313TIP3    H255135   2.289   5.497  11.621  0.2235 -2.4474 -1.1254
10314TIP3   OH255136   5.071   5.833  12.001  0.3062  0.2044 -1.0822
10314TIP3    H155137   5.049   5.742  12.021  2.4220 -0.5496 -1.8471
10314TIP3    H255138   5.018   5.854  11.925 -0.5478 -0.2279 -0.6179
10315TIP3   OH255139   3.645   3.575  10.885  0.3955  0.1811 -0.4225
10315TIP3    H155140   3.735   3.543  10.898  0.3697  0.3729  0.2886
10315TIP3    H255141   3.591   3.496  10.884  0.3782  0.1580  0.9144
10316TIP3   OH255142   7.274   4.074  11.597 -0.2928  0.1062 -0.1960
10316TIP3    H155143   7.279   4.131  11.520 -0.4410 -1.0192 -1.0657
10316TIP3    H255144   7.337   4.004  11.579 -1.7699 -1.2613 -0.2602
10317TIP3   OH255145   1.092   1.525  11.951 -0.1630 -0.0002  0.1779
10317TIP3    H155146   1.142   1.492  12.026 -0.8800  1.7457  1.4983
10317TIP3    H255147   1.004   1.490  11.964  0.2821 -1.9010 -1.3790
10318TIP3   OH255148   5.169   1.961  12.089  0.2214 -0.8954 -0.1561
10318TIP3    H155149   5.170   1.891  12.023  1.5127 -1.4325  0.4048
10318TIP3    H255150   5.175   2.042  12.038  1.4104 -1.3103 -0.7277
10319TIP3   OH255151   2.063   4.248  12.864 -0.1484  0.2286 -0.6495
10319TIP3    H155152   2.116   4.311  12.814 -1.4239  0.5765 -1.6117
10319TIP3    H255153   2.093   4.162  12.833  1.1726  0.3530  0.2208
10320TIP3   OH255154   3.670   4.544  11.007  0.1266  0.2328  0.4654
10320TIP3    H155155   3.740   4.484  11.036  1.2137  0.6745 -1.1296
10320TIP3    H255156   3.696   4.629  11.040 -0.1033  0.2604  0.5781
10321TIP3   OH255157   7.369   1.766  12.744  0.0910 -0.6070  0.4478
10321TIP3    H155158   7.374   1.670  12.749 -0.8291 -0.6357  1.1227
10321TIP3    H255159   7.403   1.796  12.828  1.3247 -0.2817 -0.1454
10322TIP3   OH255160   4.932   0.586  11.838 -0.2567  0.0055 -0.4006
10322TIP3    H155161   5.000   0.653  11.851  0.2137 -0.2899 -1.2402
10322TIP3    H255162   4.981   0.506  11.819 -0.8203 -0.5512  0.4485
10323TIP3   OH255163   7.341   4.483  10.585 -0.0892  0.3048  0.0504
10323TIP3    H155164   7.362   4.447  10.671  0.5220 -0.2613 -0.3281
10323TIP3    H255165   7.426   4.513  10.550 -0.1550 -0.4543 -0.7952
10324TIP3   OH255166   0.951   6.613  11.765  0.3453  0.4037 -0.6415
10324TIP3    H155167   1.015   6.680  11.789  0.0687  0.9289 -1.3506
10324TIP3    H255168   0.870   6.642  11.805  0.3218  0.2701 -0.5925
10325TIP3   OH255169   4.131   1.265  12.846  0.6589  0.1905  0.0328
10325TIP3    H155170   4.090   1.351  12.849  2.4433  1.1196 -0.7401
10325TIP3    H255171   4.148   1.249  12.753  0.5670 -0.8945  0.1821
10326TIP3   OH255172   3.996   7.448  12.105  0.6077  0.4764 -0.6648
10326TIP3    H155173   3.973   7.540  12.097  0.3882  0.8095  2.6154
10326TIP3    H255174   3.937   7.403  12.044 -0.0927  2.3734 -1.4440
10327TIP3   OH255175   2.902   7.617  10.935 -0.1627  0.2894 -0.1507
10327TIP3    H155176   2.960   7.556  10.889 -0.9184  0.0665 -0.8322
10327TIP3    H255177   2.949   7.700  10.934 -0.0381  0.2216 -1.1081
10328TIP3   OH255178   6.804   2.607  12.225 -0.2535  0.3337  0.6211
10328TIP3    H155179   6.869   2.677  12.217  0.6918 -0.4380  1.3017
10328TIP3    H255180   6.850   2.528  12.195 -0.9426 -0.1865  0.9036
10329TIP3   OH255181   0.820   2.422  12.076  0.1337 -0.6920 -0.8381
10329TIP3    H155182   0.884   2.475  12.028 -1.7519  2.6662  0.0159
10329TIP3    H255183   0.873   2.361  12.127  2.8211  2.1692  0.1709
10330TIP3   OH255184   2.204   5.009  11.199  0.2791  0.1648 -0.0387
10330TIP3    H155185   2.299   5.018  11.189  0.2996 -0.7680 -0.9073
10330TIP3    H255186   2.182   4.932  11.146 -1.0965  0.9715 -0.7075
10331TIP3   OH255187   5.135   6.186  12.418 -0.0357  0.1116  0.4186
10331TIP3    H155188   5.196   6.113  12.434  0.3199  0.5265  0.9957
10331TIP3    H255189   5.159   6.218  12.331 -0.7835 -1.0111 -0.2322
10332TIP3   OH255190   5.158   3.804  12.576  0.8100 -0.6405 -0.0145
10332TIP3    H155191   5.163   3.708  12.584  1.1208 -0.7861 -1.7013
10332TIP3    H255192   5.139   3.819  12.484  2.6325  0.9869 -0.1691
10333TIP3   OH255193   3.613   5.920  11.444 -0.4303  0.1970  0.1455
10333TIP3    H155194   3.523   5.929  11.412  0.2072  1.1675 -1.4439
10333TIP3    H255195   3.661   5.879  11.372  0.8929  1.7733  0.0732
10334TIP3   OH255196   2.569   1.913  12.363  0.4366  0.1032 -0.3138
10334TIP3    H155197   2.522   1.983  12.408 -1.3340 -0.6057 -0.9602
10334TIP3    H255198   2.541   1.833  12.407  1.2151 -0.3323 -0.5913
10335TIP3   OH255199   1.818   4.202  11.893 -0.3146 -0.1604 -0.0711
10335TIP3    H155200   1.767   4.188  11.813 -1.2189  1.4813  0.1832
10335TIP3    H255201   1.765   4.262  11.945  1.1815  0.3605  0.9035
10336TIP3   OH255202   6.335   7.190  10.695  0.7061 -0.2154  0.1533
10336TIP3    H155203   6.430   7.196  10.680  0.7855 -2.5981 -0.6093
10336TIP3    H255204   6.298   7.257  10.637  1.8718  0.2621 -0.0697
10337TIP3   OH255205   0.960   3.944  10.957  1.3161  0.2517  0.4815
10337TIP3    H155206   0.966   3.883  11.030  2.5469 -0.2093  0.0231
10337TIP3    H255207   0.932   4.026  10.997  1.3920 -0.1428  1.3748
10338TIP3   OH255208   3.717   0.428  11.382  0.3676 -0.1204  0.4375
10338TIP3    H155209   3.697   0.514  11.418  2.3260  0.7061 -0.3179
10338TIP3    H255210   3.643   0.409  11.323 -0.8075  0.3381  1.7086
10339TIP3   OH255211   2.894   7.175  10.279 -0.3314  0.1090  0.0501
10339TIP3    H155212   2.858   7.209  10.197  0.6725 -0.1791 -0.5275
10339TIP3    H255213   2.988   7.192  10.273  0.2881 -2.9092 -0.3845
10340TIP3   OH255214   4.885   6.943  11.822 -0.0956 -0.6151 -0.3559
10340TIP3    H155215   4.845   6.992  11.751  1.1098  0.3918 -0.3842
10340TIP3    H255216   4.814   6.927  11.884 -0.3295  2.3253  0.2785
10341TIP3   OH255217   2.765   0.139  11.162  0.1444 -1.0853 -0.2496
10341TIP3    H155218   2.746   0.178  11.247 -0.5882 -1.8975 -0.0340
10341TIP3    H255219   2.860   0.152  11.150  0.0834 -0.1238  0.2482
10342TIP3   OH255220   2.168   2.513  11.873 -0.6864 -0.2751  0.6282
10342TIP3    H155221   2.178   2.419  11.857 -0.1319  0.0977 -1.5922
10342TIP3    H255222   2.238   2.535  11.934  0.9322 -0.8707 -0.9348
10343TIP3   OH255223   1.710   6.235  11.657  0.7219  0.2430 -0.7946
10343TIP3    H155224   1.711   6.199  11.568 -0.2411 -0.5442 -0.5027
10343TIP3    H255225   1.627   6.282  11.664  0.2030 -0.7541  0.0725
10344TIP3   OH255226   5.059   6.757  10.712  0.3975 -0.4708 -0.1337
10344TIP3    H155227   5.017   6.816  10.649  0.4181 -1.0585 -0.6915
10344TIP3    H255228   5.147   6.745  10.679  0.6016 -0.2949  0.3393
10345TIP3   OH255229   4.814   1.547  10.564  0.3435  0.0765 -0.2603
10345TIP3    H155230   4.841   1.637  10.545  1.3254  0.3457  2.0635
10345TIP3    H255231   4.818   1.541  10.660 -2.3017 -1.6599 -0.1607
10346TIP3   OH255232   2.838   0.273  10.575 -0.0853  0.0979 -0.0036
10346TIP3    H155233   2.862   0.322  10.654  0.7756  1.3973 -1.0239
10346TIP3    H255234   2.767   0.324  10.536  0.5274  0.3184 -0.8530
10347TIP3   OH255235   2.939   5.249  10.774 -0.0398  0.4431  0.0789
10347TIP3    H155236   3.023   5.204  10.776 -0.5615 -0.6439 -0.8996
10347TIP3    H255237   2.948   5.313  10.703 -0.8084 -1.4099 -1.8075
10348TIP3   OH255238   3.814   6.786  11.533 -0.1562 -0.0859 -0.0308
10348TIP3    H155239   3.900   6.789  11.575 -0.7384  1.6758  1.1353
10348TIP3    H255240   3.825   6.725  11.460  1.9221 -0.3129  0.4202
10349TIP3   OH255241   3.430   5.175  11.663 -0.0089 -0.2156 -0.2265
10349TIP3    H155242   3.470   5.209  11.583 -0.6947 -0.6193 -0.7452
10349TIP3    H255243   3.415   5.082  11.645  0.7203 -0.5398  0.7267
10350TIP3   OH255244   7.543   6.264  11.817  0.2835  0.7038 -0.2074
10350TIP3    H155245   7.466   6.267  11.873  0.2051 -0.3269 -0.2421
10350TIP3    H255246   7.608   6.317  11.863 -0.0032  0.4490  0.5092
10351TIP3   OH255247   2.093   3.211  10.842  0.0952 -0.1959 -0.3158
10351TIP3    H155248   2.148   3.264  10.785  0.3594  0.9575  0.9749
10351TIP3    H255249   2.010   3.203  10.795  1.8306 -3.7572 -3.3442
10352TIP3   OH255250   1.361   3.807  11.302 -0.2588  0.2697  0.2280
10352TIP3    H155251   1.425   3.873  11.327  0.6028 -0.2338 -0.6273
10352TIP3    H255252   1.306   3.850  11.237  1.9749 -0.6252 -2.3973
10353TIP3   OH255253   4.667   1.025  11.545 -0.4489  0.5327 -0.0226
10353TIP3    H155254   4.648   1.116  11.568  0.8683  0.9037 -0.3109
10353TIP3    H255255   4.762   1.019  11.550 -0.6069 -1.2771  1.6268
10354TIP3   OH255256   4.122   2.946  12.613  0.2592 -0.3365  0.0567
10354TIP3    H155257   4.035   2.937  12.652  0.1363  0.5494  0.0067
10354TIP3    H255258   4.150   2.856  12.595 -1.3238 -0.5824 -1.4256
10355TIP3   OH255259   5.666   2.978  11.978 -0.1486 -0.0765 -0.1927
10355TIP3    H155260   5.650   3.038  11.905 -1.1213 -0.6555 -0.4767
10355TIP3    H255261   5.581   2.939  11.996  0.5399 -1.8150 -0.4328
10356TIP3   OH255262   2.823   4.093  11.172 -0.5075 -0.1504 -0.3211
10356TIP3    H155263   2.866   4.051  11.097  1.7087 -0.0085  0.7707
10356TIP3    H255264   2.868   4.177  11.181 -3.2946  1.5407 -1.0494
10357TIP3   OH255265   3.997   5.831  11.638  1.0050  0.3572 -0.2641
10357TIP3    H155266   3.984   5.791  11.724  1.9117 -2.0327 -1.1691
10357TIP3    H255267   3.952   5.773  11.577  2.8803  0.3515 -1.7262
10358TIP3   OH255268   0.044   5.604  10.487  0.2548  0.4401  0.1699
10358TIP3    H155269   0.116   5.646  10.439  0.3822  0.4898  0.3972
10358TIP3    H255270   0.085   5.527  10.528 -0.3132 -0.7908 -1.4770
10359TIP3   OH255271   5.314   6.844  13.335 -0.0613 -0.1519 -0.2554
10359TIP3    H155272   5.335   6.822  13.425  0.8929 -1.8048 -0.8372
10359TIP3    H255273   5.398   6.858  13.292 -0.5507  2.3987 -0.5250
10360TIP3   OH255274   6.954   1.504  13.009 -0.5510  0.0503  0.3214
10360TIP3    H155275   6.916   1.589  13.027  0.6996  0.0892  3.2727
10360TIP3    H255276   7.017   1.490  13.079  1.2963 -2.1283 -1.5874
10361TIP3   OH255277   1.600   6.168  10.718 -0.0463 -0.4493 -0.3951
10361TIP3    H155278   1.520   6.152  10.768  0.2677 -1.5086 -0.1866
10361TIP3    H255279   1.652   6.088  10.731  1.3626  0.5021  0.0713
10362TIP3   OH255280   7.170   7.352  11.333 -0.0992  0.6900 -0.0651
10362TIP3    H155281   7.244   7.358  11.273 -0.2192  1.9034 -0.1267
10362TIP3    H255282   7.149   7.259  11.337  2.5841  0.0554  1.3932
10363TIP3   OH255283   0.841   4.706  13.023  0.0972  0.6732  0.6410
10363TIP3    H155284   0.828   4.613  13.042 -0.0423  0.7169  0.7590
10363TIP3    H255285   0.837   4.712  12.928  1.9167  0.2799  0.4948
10364TIP3   OH255286   2.633   2.297  12.315 -0.3410 -0.5468  0.2204
10364TIP3    H155287   2.544   2.268  12.334 -0.7364  0.2974 -0.2493
10364TIP3    H255288   2.643   2.379  12.363  0.8659 -1.5677  1.7861
10365TIP3   OH255289   4.936   2.605  12.469  0.3664 -0.4407  0.3096
10365TIP3    H155290   4.916   2.512  12.464  1.0158 -0.5046 -2.2328
10365TIP3    H255291   4.957   2.620  12.561 -1.6484 -2.3641  1.1690
10366TIP3   OH255292   5.040   5.613  11.529 -0.3113 -0.3174 -0.4408
10366TIP3    H155293   4.947   5.603  11.550 -0.2880 -0.6910 -0.5199
10366TIP3    H255294   5.041   5.626  11.434 -0.3942  1.0866 -0.2749
10367TIP3   OH255295   5.016   3.521  11.371  0.0453 -0.3161 -0.0976
10367TIP3    H155296   5.083   3.589  11.380  0.3243 -0.4939 -0.7718
10367TIP3    H255297   5.064   3.443  11.345 -0.0223 -1.2988  2.4184
10368TIP3   OH255298   2.111   3.279  11.455  0.7732  0.5809  0.1084
10368TIP3    H155299   2.143   3.189  11.455 -1.6405 -0.3695 -1.1354
10368TIP3    H255300   2.117   3.306  11.547  2.5480 -0.4142  0.3303
10369TIP3   OH255301   2.759   7.060  11.422  0.3804  0.2248 -0.8556
10369TIP3    H155302   2.849   7.093  11.431  0.6588 -0.4906 -0.9553
10369TIP3    H255303   2.704   7.132  11.454  0.9400  0.9862 -1.5506
10370TIP3   OH255304   2.157   4.362  12.035  0.6777 -0.0636  1.0481
10370TIP3    H155305   2.072   4.402  12.014  0.6928  0.1948  1.4611
10370TIP3    H255306   2.143   4.269  12.022  1.1315  0.1559 -1.6830
10371TIP3   OH255307   4.372   6.017  11.063  0.3315  0.2578  0.3018
10371TIP3    H155308   4.373   6.080  10.991  0.2755  0.6304  0.6208
10371TIP3    H255309   4.301   6.047  11.120  0.4945  0.0757  0.6045
10372TIP3   OH255310   2.740   5.795  11.224 -0.1775 -0.0130  0.7776
10372TIP3    H155311   2.724   5.787  11.318 -3.9661  1.8030  0.4860
10372TIP3    H255312   2.702   5.716  11.186  1.2088 -0.6698  0.6970
10373TIP3   OH255313   5.367   4.669  11.317  1.0169  0.6773 -0.2492
10373TIP3    H155314   5.398   4.589  11.275 -0.0648  0.3209 -0.3967
10373TIP3    H255315   5.416   4.739  11.274  2.0827  0.0955 -0.0205
10374TIP3   OH255316   1.993   5.659  11.932 -0.2415  0.1425 -0.3839
10374TIP3    H155317   2.018   5.644  11.840  0.8173 -1.8425  0.1828
10374TIP3    H255318   1.912   5.709  11.926  1.2542  2.6039 -2.3550
10375TIP3   OH255319   2.422   1.839  12.922  0.1508  0.0155 -0.4450
10375TIP3    H155320   2.453   1.926  12.897 -0.7210  0.6159  0.5024
10375TIP3    H255321   2.332   1.853  12.952  1.0439 -0.6137  2.9575
10376TIP3   OH255322   3.723   0.465  10.991  0.0997  0.2713  0.1689
10376TIP3    H155323   3.785   0.418  10.935 -1.7071 -0.0377 -1.7127
10376TIP3    H255324   3.778   0.507  11.057  2.2293 -0.5243 -0.9724
10377TIP3   OH255325   7.432   5.898  11.553 -0.4386  0.8256  0.3678
10377TIP3    H155326   7.348   5.931  11.521 -1.1126  0.6161  1.8293
10377TIP3    H255327   7.444   5.814  11.508  0.7119  2.3748 -2.4681
10378TIP3   OH255328   0.005   5.305  12.029  0.1184 -0.1791 -0.0928
10378TIP3    H155329  -0.063   5.372  12.045  1.0806  1.7635 -3.2474
10378TIP3    H255330   0.005   5.252  12.109 -1.4358  2.9563  2.2248
10379TIP3   OH255331   2.836   7.335  11.601  0.2597  0.6511 -0.2565
10379TIP3    H155332   2.802   7.358  11.687  0.3687 -0.1947  0.0193
10379TIP3    H255333   2.762   7.347  11.541 -0.0189  0.5483  0.0652
10380TIP3   OH255334   0.728   0.299  11.300 -0.2978 -0.3511  0.2062
10380TIP3    H155335   0.648   0.259  11.334 -1.1021  0.2798 -0.8646
10380TIP3    H255336   0.772   0.229  11.252  0.9074 -1.2855  2.5021
10381TIP3   OH255337   7.076   1.324  11.983  0.0847  0.0439  0.3171
10381TIP3    H155338   7.155   1.314  11.930 -0.5011 -2.4739 -0.1744
10381TIP3    H255339   7.013   1.366  11.924 -0.7401 -3.2116 -1.3671
10382TIP3   OH255340   4.618   2.425  12.124  0.0293 -0.0543  0.1569
10382TIP3    H155341   4.605   2.366  12.198 -0.0604  0.1924  0.3372
10382TIP3    H255342   4.661   2.502  12.161  0.4272 -0.1344 -0.1327
10383TIP3   OH255343   1.927   1.910  13.413  0.2431  0.1631  0.2886
10383TIP3    H155344   1.966   1.829  13.380  0.0727 -0.1556  0.8514
10383TIP3    H255345   1.833   1.892  13.418  0.0041  0.8955 -0.9655
10384TIP3   OH255346   1.072   3.235  13.575  0.2631  1.2199  0.1426
10384TIP3    H155347   1.162   3.206  13.591  0.2097  1.1287  0.2822
10384TIP3    H255348   1.061   3.225  13.480  0.6025  1.8254  0.0357
10385TIP3   OH255349   0.555   5.453  10.496 -0.4568 -0.2074  0.3990
10385TIP3    H155350   0.547   5.492  10.409  0.1932  1.1780  0.9334
10385TIP3    H255351   0.597   5.368  10.480  1.2660  0.7557 -0.5140
10386TIP3   OH255352   5.572   1.669  12.952  0.6399  0.6729  0.3404
10386TIP3    H155353   5.579   1.741  13.014  2.7535  0.9325 -0.1018
10386TIP3    H255354   5.521   1.705  12.879  1.8855  1.8643  0.0091
10387TIP3   OH255355   5.478   2.782  11.607  0.7246  0.1660  0.6257
10387TIP3    H155356   5.478   2.877  11.613  0.7784  0.1386  1.1052
10387TIP3    H255357   5.386   2.758  11.599  0.8383  0.4493 -3.0975
10388TIP3   OH255358   3.512   0.708  12.074 -0.3559  0.3960  0.2893
10388TIP3    H155359   3.577   0.771  12.103 -1.7678  1.4166  1.4219
10388TIP3    H255360   3.551   0.622  12.091  0.5044  0.9797  1.3376
10389TIP3   OH255361   1.142   7.323  11.263 -0.1812 -0.0601 -0.1395
10389TIP3    H155362   1.179   7.362  11.183 -1.3951  1.1980 -0.1286
10389TIP3    H255363   1.095   7.246  11.232 -2.1697  1.3904 -0.9722
10390TIP3   OH255364   5.500   7.485  13.259 -0.0097  0.4782 -0.1836
10390TIP3    H155365   5.470   7.575  13.251  0.3449  0.8841  2.2233
10390TIP3    H255366   5.423   7.436  13.288  0.1476  0.3301 -0.0042
10391TIP3   OH255367   0.274   3.907  10.927 -0.0154  0.1503 -0.1377
10391TIP3    H155368   0.234   3.946  10.849  0.7056  1.8068  0.2686
10391TIP3    H255369   0.334   3.841  10.893 -0.4561  0.1395 -0.9253
10392TIP3   OH255370   4.312   1.158  11.163 -0.8815  0.2116  0.1555
10392TIP3    H155371   4.265   1.077  11.178 -0.4262 -0.4338 -1.6975
10392TIP3    H255372   4.287   1.185  11.074  1.0041  0.6662 -0.2797
10393TIP3   OH255373   6.125   5.429  11.524 -0.1190 -0.3311 -0.2038
10393TIP3    H155374   6.193   5.472  11.575 -0.1305 -0.1101 -0.3720
10393TIP3    H255375   6.063   5.500  11.502 -1.2115 -0.7963  1.2509
10394TIP3   OH255376   3.359   2.146  11.869  0.1274 -0.3572 -0.0734
10394TIP3    H155377   3.367   2.065  11.818  2.5084 -0.3521  0.1477
10394TIP3    H255378   3.418   2.132  11.944  0.1867  1.3745  0.2410
10395TIP3   OH255379   5.902   6.563  11.089  0.0017  0.4558 -0.2774
10395TIP3    H155380   5.863   6.584  11.004 -0.4609 -0.0179 -0.1889
10395TIP3    H255381   5.985   6.520  11.068  0.7976  2.0104 -0.4615
10396TIP3   OH255382   3.291   1.784  11.029  0.0304 -0.2568 -0.2500
10396TIP3    H155383   3.240   1.704  11.012 -0.1967 -0.0292 -0.6521
10396TIP3    H255384   3.231   1.855  11.010 -0.2059  0.0317  1.4049
10397TIP3   OH255385   2.804   0.891  11.738  0.4440 -0.1355  0.1872
10397TIP3    H155386   2.855   0.859  11.663 -0.1065 -0.1983 -0.1653
10397TIP3    H255387   2.806   0.986  11.730 -2.0019 -0.1335 -1.5834
10398TIP3   OH255388   0.299   6.423  10.504  0.0359 -0.6052 -0.0801
10398TIP3    H155389   0.274   6.336  10.535 -0.9641 -0.5451 -0.6912
10398TIP3    H255390   0.246   6.437  10.425 -0.7871  1.0751  0.7169
10399TIP3   OH255391   4.875   5.152  12.447 -0.5447 -0.2608  0.4467
10399TIP3    H155392   4.894   5.148  12.541  1.6817  0.2176  0.0597
10399TIP3    H255393   4.860   5.245  12.430  2.0762  0.1287 -0.1422
10400TIP3   OH255394   3.997   4.474  10.799 -0.1304  0.3378 -0.1759
10400TIP3    H155395   3.989   4.488  10.893 -0.0803 -0.5219 -0.0326
10400TIP3    H255396   4.086   4.440  10.787 -0.5812 -0.8300 -0.3556
10401TIP3   OH255397   5.187   0.200  11.412 -0.1936 -0.0196  0.1361
10401TIP3    H155398   5.260   0.233  11.464  1.1893 -0.6551 -1.3453
10401TIP3    H255399   5.205   0.229  11.323 -1.2895 -0.9388 -0.4148
10402TIP3   OH255400   2.918   7.321  11.266 -0.3318  0.2977 -0.2647
10402TIP3    H155401   2.845   7.341  11.325 -2.3222 -0.0900 -2.4458
10402TIP3    H255402   2.962   7.405  11.255  0.4993  0.2724  2.1604
10403TIP3   OH255403   1.673   4.764  10.819 -0.1797  0.0337 -0.3316
10403TIP3    H155404   1.626   4.809  10.749  0.6232  1.1820 -0.1674
10403TIP3    H255405   1.605   4.727  10.875 -0.8654  0.8578 -0.6078
10404TIP3   OH255406   5.854   5.602  12.876  0.0334 -0.1298  0.2370
10404TIP3    H155407   5.837   5.691  12.907  2.1562  0.1560  0.7377
10404TIP3    H255408   5.947   5.588  12.893 -0.0274 -2.0958 -0.7560
10405TIP3   OH255409   4.111   5.410  11.545  0.3646  0.7585  0.3692
10405TIP3    H155410   4.089   5.483  11.487 -0.0055 -1.5830 -2.7656
10405TIP3    H255411   4.203   5.422  11.566  0.3092  2.1145 -0.0843
10406TIP3   OH255412   0.012   1.945  11.790 -1.1237 -0.2098 -0.1384
10406TIP3    H155413   0.056   1.860  11.781 -0.9653 -0.1402 -0.0342
10406TIP3    H255414   0.056   1.986  11.864 -1.3645 -0.1378 -0.0338
10407TIP3   OH255415   1.988   6.789  11.618  0.1831 -0.4435  0.2472
10407TIP3    H155416   1.905   6.829  11.644  0.9590  1.2974  0.1401
10407TIP3    H255417   1.992   6.802  11.523  0.3531 -0.9925  0.1749
10408TIP3   OH255418   4.882   2.692  11.399  0.1177  0.3874  0.5117
10408TIP3    H155419   4.790   2.668  11.384 -0.1599  2.2549 -1.0688
10408TIP3    H255420   4.921   2.694  11.312  0.7301  3.0137  0.7593
10409TIP3   OH255421   2.692   1.676  10.719  0.2322  0.1140  0.9637
10409TIP3    H155422   2.701   1.682  10.624  0.8905 -1.7852  0.8580
10409TIP3    H255423   2.605   1.636  10.732 -1.3653  3.3980  1.3590
10410TIP3   OH255424   5.567   1.627  12.609  0.2952 -0.1091 -0.3943
10410TIP3    H155425   5.528   1.653  12.526  1.5882 -0.6915 -1.2069
10410TIP3    H255426   5.515   1.673  12.675 -2.6378 -1.7946 -1.2964
10411TIP3   OH255427   7.137   2.202  12.884 -0.4541  0.6318  0.2241
10411TIP3    H155428   7.116   2.219  12.976 -2.6164  0.1592 -0.1262
10411TIP3    H255429   7.176   2.114  12.885  2.5032  1.8358  0.9856
10412TIP3   OH255430   0.283   4.216  12.000  0.1744  0.0109 -0.3034
10412TIP3    H155431   0.333   4.296  11.984 -0.7366  0.5835 -0.3414
10412TIP3    H255432   0.331   4.173  12.071 -0.2275  1.4172  0.8818
10413TIP3   OH255433   6.409   1.779  12.268 -0.1408  0.2145  0.1394
10413TIP3    H155434   6.413   1.838  12.193 -1.0652  0.1150 -0.0044
10413TIP3    H255435   6.335   1.721  12.249  0.7540 -1.0138  0.2650
10414TIP3   OH255436   0.007   2.533  11.377 -0.3735  0.5630 -0.3236
10414TIP3    H155437   0.001   2.488  11.292 -0.8079  1.1650 -0.6180
10414TIP3    H255438   0.088   2.499  11.416  1.0849  1.9419 -1.9742
10415TIP3   OH255439   6.643   4.688  10.771 -0.1069  0.0226 -0.0056
10415TIP3    H155440   6.610   4.624  10.834 -1.2004 -0.7890 -1.3649
10415TIP3    H255441   6.570   4.748  10.757 -0.3700 -0.6238 -1.5457
10416TIP3   OH255442   1.866   4.175  13.248  0.0007 -0.3653 -0.7220
10416TIP3    H155443   1.889   4.083  13.231 -0.8086 -0.9047  0.9025
10416TIP3    H255444   1.811   4.172  13.326 -0.1282  1.5124 -0.6959
10417TIP3   OH255445   4.840   4.218  12.776  0.3293 -0.3292 -0.1777
10417TIP3    H155446   4.900   4.250  12.843 -0.8611 -1.7724  1.6950
10417TIP3    H255447   4.753   4.224  12.817 -0.7744  0.9821 -2.4953
10418TIP3   OH255448   0.632   0.032  11.073 -0.1003 -0.3656  0.0814
10418TIP3    H155449   0.590  -0.038  11.123  2.0458 -0.6640  1.6307
10418TIP3    H255450   0.709   0.055  11.125 -1.2689  3.9914  0.2589
10419TIP3   OH255451   1.496   6.883  11.406  0.2008 -0.1326  0.3479
10419TIP3    H155452   1.556   6.809  11.392  0.4307  0.2781 -0.9291
10419TIP3    H255453   1.553   6.959  11.412 -0.0413 -0.0222  1.6355
10420TIP3   OH255454   1.870   2.710  12.559 -0.0952  1.1612  0.4645
10420TIP3    H155455   1.831   2.676  12.479  0.9412 -1.1022  0.8629
10420TIP3    H255456   1.797   2.719  12.620 -0.6137  1.1689 -0.1492
10421TIP3   OH255457   5.797   2.134  13.351 -0.3958  0.3376  0.5316
10421TIP3    H155458   5.702   2.139  13.345 -0.4771 -0.2654  1.2563
10421TIP3    H255459   5.828   2.157  13.263 -1.3380 -2.7428 -0.7088
10422TIP3   OH255460   5.147   6.202  11.839 -1.1789  0.3060 -0.3037
10422TIP3    H155461   5.168   6.248  11.920  0.8068  1.2927 -1.2971
10422TIP3    H255462   5.225   6.152  11.818 -2.4904 -1.7919 -0.4578
10423TIP3   OH255463   5.940   6.483  11.842  0.0022 -0.3395  0.2798
10423TIP3    H155464   6.012   6.472  11.779  0.6834 -0.6045  1.0768
10423TIP3    H255465   5.895   6.398  11.841  1.7231 -1.3610  2.1663
10424TIP3   OH255466   2.843   1.131  12.035  0.1557 -0.1580  0.1977
10424TIP3    H155467   2.794   1.051  12.019  0.6239 -0.1323 -1.5946
10424TIP3    H255468   2.907   1.135  11.964 -0.7817  2.5080 -0.6509
10425TIP3   OH255469   2.187   2.994  12.879  0.0147  0.3383 -0.7992
10425TIP3    H155470   2.219   2.910  12.910 -0.6204  0.4766  0.2521
10425TIP3    H255471   2.228   3.004  12.792  1.5338 -0.2091 -0.1812
10426TIP3   OH255472   6.155   6.462  10.992 -0.4623 -0.2131  0.0374
10426TIP3    H155473   6.210   6.397  11.036  2.1493  0.9240 -1.3170
10426TIP3    H255474   6.217   6.520  10.947 -2.7948  1.2790 -1.5110
10427TIP3   OH255475   2.265   0.563  12.909 -0.4549 -0.2818 -0.3464
10427TIP3    H155476   2.321   0.580  12.833  0.0529  0.0716  0.1021
10427TIP3    H255477   2.183   0.610  12.890  0.5284  1.8590  0.3951
10428TIP3   OH255478   3.431   0.745  11.433  0.1099 -0.3829 -0.0499
10428TIP3    H155479   3.375   0.813  11.395 -0.1880  0.2600  1.4874
10428TIP3    H255480   3.416   0.668  11.377 -1.7290 -0.0100 -0.1359
10429TIP3   OH255481   2.333   6.064  11.352 -0.1307  0.2258  0.2536
10429TIP3    H155482   2.308   5.979  11.316  2.1498  0.5832 -2.5890
10429TIP3    H255483   2.352   6.047  11.444  0.0800 -2.2986 -0.1891
10430TIP3   OH255484   4.765   4.028  13.024 -0.0831 -0.3800  0.2971
10430TIP3    H155485   4.692   4.041  12.962 -0.6278 -0.1737  0.9665
10430TIP3    H255486   4.729   4.056  13.108  0.8438 -0.0940  0.6017
10431TIP3   OH255487   6.231   3.897  12.160 -0.0637 -0.3974  0.5445
10431TIP3    H155488   6.239   3.890  12.255  0.0399  1.5902  0.7268
10431TIP3    H255489   6.153   3.951  12.146  1.6245  1.9898 -0.3277
10432TIP3   OH255490   3.738   1.862  12.633  0.8394 -0.1359 -0.1054
10432TIP3    H155491   3.753   1.919  12.708 -2.2535  2.4642 -1.2344
10432TIP3    H255492   3.823   1.859  12.588  1.7294  1.5426  1.3437
10433TIP3   OH255493   1.369   3.403  12.117  0.1853 -0.0657 -0.0312
10433TIP3    H155494   1.448   3.375  12.071  1.1545 -0.4042  1.7326
10433TIP3    H255495   1.395   3.483  12.163 -0.3227 -0.4418  0.9485
10434TIP3   OH255496   3.549   2.246  11.168 -0.1461  0.0779 -0.4627
10434TIP3    H155497   3.564   2.337  11.142 -1.6791  0.7916  0.9783
10434TIP3    H255498   3.591   2.238  11.253 -0.9201 -0.2427 -0.1003
10435TIP3   OH255499   5.156   5.613  12.560  0.5349 -0.3026  0.4362
10435TIP3    H155500   5.172   5.653  12.646  0.8783  1.7331 -0.5135
10435TIP3    H255501   5.243   5.606  12.521  0.2713 -0.0033 -0.2257
10436TIP3   OH255502   2.373   2.247  12.362  0.4088 -0.4033 -0.0721
10436TIP3    H155503   2.312   2.320  12.366  0.0799 -0.7087  0.7590
10436TIP3    H255504   2.318   2.170  12.347  0.9136 -0.2876 -2.9191
10437TIP3   OH255505   2.173   4.487  10.745 -0.8360 -0.1540 -0.0632
10437TIP3    H155506   2.147   4.572  10.779  1.3869  0.6950 -0.3314
10437TIP3    H255507   2.189   4.503  10.651  1.0014 -0.4609  0.1598
10438TIP3   OH255508   0.803   1.420  11.419 -0.2253 -0.3863 -0.4944
10438TIP3    H155509   0.811   1.327  11.396  1.0215 -0.3728 -0.2048
10438TIP3    H255510   0.868   1.464  11.364 -0.3326  0.2225 -0.1431
10439TIP3   OH255511   1.605   4.365  11.706  0.7005  0.4985  0.0611
10439TIP3    H155512   1.645   4.284  11.676  0.9002 -0.2216  2.1805
10439TIP3    H255513   1.519   4.366  11.664  1.3359  0.0773 -1.3237
   7.68049   7.68049  30.00000
